      -----------------------------------------------------------      
     |                   =====================                   |     
     |                           x T B                           |     
     |                   =====================                   |     
     |                         S. Grimme                         |     
     |          Mulliken Center for Theoretical Chemistry        |     
     |                    University of Bonn                     |     
      -----------------------------------------------------------      

   * xtb version 6.4.1 (unknown) compiled by 'oda6@login1.crc.pitt.edu' on 2021-06-25

   xtb is free software: you can redistribute it and/or modify it under
   the terms of the GNU Lesser General Public License as published by
   the Free Software Foundation, either version 3 of the License, or
   (at your option) any later version.
   
   xtb is distributed in the hope that it will be useful,
   but WITHOUT ANY WARRANTY; without even the implied warranty of
   MERCHANTABILITY or FITNESS FOR A PARTICULAR PURPOSE.  See the
   GNU Lesser General Public License for more details.
   
   Cite this work as:
   * C. Bannwarth, E. Caldeweyher, S. Ehlert, A. Hansen, P. Pracht,
     J. Seibert, S. Spicher, S. Grimme, WIREs Comput. Mol. Sci., 2020, 11,
     e01493. DOI: 10.1002/wcms.1493
   
   for GFN2-xTB:
   * C. Bannwarth, S. Ehlert and S. Grimme., J. Chem. Theory Comput., 2019,
     15, 1652-1671. DOI: 10.1021/acs.jctc.8b01176
   for GFN1-xTB:
   * S. Grimme, C. Bannwarth, P. Shushkov, J. Chem. Theory Comput., 2017,
     13, 1989-2009. DOI: 10.1021/acs.jctc.7b00118
   for GFN0-xTB:
   * P. Pracht, E. Caldeweyher, S. Ehlert, S. Grimme, ChemRxiv, 2019, preprint.
     DOI: 10.26434/chemrxiv.8326202.v1
   for GFN-FF:
   * S. Spicher and S. Grimme, Angew. Chem. Int. Ed., 2020, 59, 15665-15673.
     DOI: 10.1002/anie.202004239
   
   for DFT-D4:
   * E. Caldeweyher, C. Bannwarth and S. Grimme, J. Chem. Phys., 2017,
     147, 034112. DOI: 10.1063/1.4993215
   * E. Caldeweyher, S. Ehlert, A. Hansen, H. Neugebauer, S. Spicher,
     C. Bannwarth and S. Grimme, J. Chem. Phys., 2019, 150, 154122.
     DOI: 10.1063/1.5090222
   * E. Caldeweyher, J.-M. Mewes, S. Ehlert and S. Grimme, Phys. Chem. Chem. Phys.
     2020, 22, 8499-8512. DOI: 10.1039/D0CP00502A
   
   for sTDA-xTB:
   * S. Grimme and C. Bannwarth, J. Chem. Phys., 2016, 145, 054103.
     DOI: 10.1063/1.4959605
   
   in the mass-spec context:
   * V. Asgeirsson, C. Bauer and S. Grimme, Chem. Sci., 2017, 8, 4879.
     DOI: 10.1039/c7sc00601b
   * J. Koopman and S. Grimme, ACS Omega 2019, 4, 12, 15120-15133.
     DOI: 10.1021/acsomega.9b02011
   
   for metadynamics refer to:
   * S. Grimme, J. Chem. Theory Comput., 2019, 155, 2847-2862
     DOI: 10.1021/acs.jctc.9b00143
   
   for SPH calculations refer to:
   * S. Spicher and S. Grimme, J. Chem. Theory Comput., 2021, 17, 1701-1714
     DOI: 10.1021/acs.jctc.0c01306
   
   with help from (in alphabetical order)
   P. Atkinson, C. Bannwarth, F. Bohle, G. Brandenburg, E. Caldeweyher
   M. Checinski, S. Dohm, S. Ehlert, S. Ehrlich, I. Gerasimov, J. Koopman
   C. Lavigne, S. Lehtola, F. März, M. Müller, F. Musil, H. Neugebauer
   J. Pisarek, C. Plett, P. Pracht, J. Seibert, P. Shushkov, S. Spicher
   M. Stahn, M. Steiner, T. Strunk, J. Stückrath, T. Rose, and J. Unsleber
   
 * started run on 2022/02/03 at 21:36:26.165     

           -------------------------------------------------
          |                Calculation Setup                |
           -------------------------------------------------

          program call               : /ihome/ghutchison/oda6/xtb/xtb-641/bin/xtb ../../GFN2_output/0_141_32_91_0.mol --sp --alpb water
          hostname                   : smp-n57
          coordinate file            : ../../GFN2_output/0_141_32_91_0.mol
          omp threads                :                     8
          number of atoms            :                   145
          number of electrons        :                   482
          charge                     :                     0
          spin                       :                   0.0
          first test random number   :      0.41086953129801

   ID    Z sym.   atoms
    1    6 C      1-3, 5-7, 9, 11-15, 17, 19, 20, 22, 24, 25, 27-29, 31-35,
                  37-41, 43-52, 54-68, 70-76, 78, 79, 81-83, 85-87, 89,
                  91-95, 97
    2    8 O      4, 26, 30, 36, 84
    3    9 F      8, 10, 21, 23, 42, 88, 90
    4    7 N      16, 18, 96, 98
    5   16 S      53, 69, 77, 80
    6    1 H      99-145

           -------------------------------------------------
          |                 G F N 2 - x T B                 |
           -------------------------------------------------

        Reference                      10.1021/acs.jctc.8b01176
      * Hamiltonian:
        H0-scaling (s, p, d)           1.850000    2.230000    2.230000
        zeta-weighting                 0.500000
      * Dispersion:
        s8                             2.700000
        a1                             0.520000
        a2                             5.000000
        s9                             5.000000
      * Repulsion:
        kExp                           1.500000    1.000000
        rExp                           1.000000
      * Coulomb:
        alpha                          2.000000
        third order                    shell-resolved
        anisotropic                    true
        a3                             3.000000
        a5                             4.000000
        cn-shift                       1.200000
        cn-exp                         4.000000
        max-rad                        5.000000

      * Solvation model:               ALPB
        Solvent                        water
        Parameter file                 internal GFN2-xTB/ALPB
        Dielectric constant                8.0200E+01
        Reference state                gsolv [1 M gas/solution]
        Free energy shift                  1.0808E-03 Eh       6.7819E-01 kcal/mol
        Temperature                        2.9815E+02 K
        Density                            1.0000E+00 kg/L
        Solvent mass                       1.8000E+01 g/mol
        Interaction kernel             P16
        Born radius scaling (c1)           1.4744E+00
        Born radii integrator          GBOBC
        Born offset                        0.0000E+00 a0       0.0000E+00 AA
        H-bond correction              true
        Ion screening                  false
        Surface tension                    1.0000E-05 Eh       1.5569E+01 dyn/cm
        Grid points                               230 per atom

          ...................................................
          :                      SETUP                      :
          :.................................................:
          :  # basis functions                 463          :
          :  # atomic orbitals                 459          :
          :  # shells                          247          :
          :  # electrons                       482          :
          :  max. iterations                   250          :
          :  Hamiltonian                  GFN2-xTB          :
          :  restarted?                      false          :
          :  GBSA solvation                   true          :
          :  PC potential                    false          :
          :  electronic temp.          300.0000000     K    :
          :  accuracy                    1.0000000          :
          :  -> integral cutoff          0.2500000E+02      :
          :  -> integral neglect         0.1000000E-07      :
          :  -> SCF convergence          0.1000000E-05 Eh   :
          :  -> wf. convergence          0.1000000E-03 e    :
          :  Broyden damping             0.4000000          :
          ...................................................

 iter      E             dE          RMSdq      gap      omega  full diag
   1   -272.8088818 -0.272809E+03  0.495E+00    0.95       0.0  T
   2   -272.9676681 -0.158786E+00  0.286E+00    0.71       1.0  T
   3   -272.8314983  0.136170E+00  0.138E+00    0.18       1.0  T
   4   -273.0116070 -0.180109E+00  0.438E-01    0.23       1.0  T
   5   -273.0242932 -0.126862E-01  0.157E-01    0.19       1.0  T
   6   -273.0248902 -0.597008E-03  0.718E-02    0.24       1.0  T
   7   -273.0251745 -0.284289E-03  0.321E-02    0.21       1.0  T
   8   -273.0252171 -0.425535E-04  0.181E-02    0.22       1.0  T
   9   -273.0252318 -0.146939E-04  0.820E-03    0.22       1.0  T
  10   -273.0252350 -0.322731E-05  0.433E-03    0.22       1.9  T
  11   -273.0252354 -0.394056E-06  0.249E-03    0.22       3.3  T
  12   -273.0252356 -0.200965E-06  0.124E-03    0.22       6.7  T
  13   -273.0252356 -0.431102E-07  0.616E-04    0.22      13.5  T
  14   -273.0252356 -0.192547E-07  0.245E-04    0.22      33.9  T

   *** convergence criteria satisfied after 14 iterations ***

         #    Occupation            Energy/Eh            Energy/eV
      -------------------------------------------------------------
         1        2.0000           -0.8630457             -23.4847
       ...           ...                  ...                  ...
       235        2.0000           -0.4021415             -10.9428
       236        2.0000           -0.3887727             -10.5790
       237        2.0000           -0.3885334             -10.5725
       238        2.0000           -0.3862313             -10.5099
       239        2.0000           -0.3699764             -10.0676
       240        1.9987           -0.3606423              -9.8136
       241        1.9715           -0.3576902              -9.7332 (HOMO)
       242        0.0298           -0.3496844              -9.5154 (LUMO)
       243        0.0000           -0.3406521              -9.2696
       244                         -0.3371258              -9.1737
       245                         -0.3300173              -8.9802
       246                         -0.2924021              -7.9567
       ...                                ...                  ...
       459                          1.1479163              31.2364
      -------------------------------------------------------------
                  HL-Gap            0.0080057 Eh            0.2178 eV
             Fermi-level           -0.3536660 Eh           -9.6237 eV

 SCC (total)                   0 d,  0 h,  0 min,  0.400 sec
 SCC setup                      ...        0 min,  0.004 sec (  0.926%)
 Dispersion                     ...        0 min,  0.007 sec (  1.846%)
 classical contributions        ...        0 min,  0.000 sec (  0.059%)
 integral evaluation            ...        0 min,  0.025 sec (  6.202%)
 iterations                     ...        0 min,  0.299 sec ( 74.779%)
 molecular gradient             ...        0 min,  0.063 sec ( 15.731%)
 printout                       ...        0 min,  0.002 sec (  0.438%)

         :::::::::::::::::::::::::::::::::::::::::::::::::::::
         ::                     SUMMARY                     ::
         :::::::::::::::::::::::::::::::::::::::::::::::::::::
         :: total energy            -269.043033528180 Eh    ::
         :: total w/o Gsasa/hb      -269.023564412559 Eh    ::
         :: gradient norm              0.039391327336 Eh/a0 ::
         :: HOMO-LUMO gap              0.217847541146 eV    ::
         ::.................................................::
         :: SCC energy              -273.025235638726 Eh    ::
         :: -> isotropic ES            0.249803864713 Eh    ::
         :: -> anisotropic ES          0.008857442583 Eh    ::
         :: -> anisotropic XC          0.117536195710 Eh    ::
         :: -> dispersion             -0.217456057869 Eh    ::
         :: -> Gsolv                  -0.061332330819 Eh    ::
         ::    -> Gelec               -0.041863215198 Eh    ::
         ::    -> Gsasa               -0.011342685358 Eh    ::
         ::    -> Ghb                 -0.009207189961 Eh    ::
         ::    -> Gshift               0.001080759698 Eh    ::
         :: repulsion energy           3.982586488545 Eh    ::
         :: add. restraining           0.000000000000 Eh    ::
         :: total charge              -0.000000000000 e     ::
         :::::::::::::::::::::::::::::::::::::::::::::::::::::

           -------------------------------------------------
          |                Property Printout                |
           -------------------------------------------------

    * Orbital Energies and Occupations

         #    Occupation            Energy/Eh            Energy/eV
      -------------------------------------------------------------
         1        2.0000           -0.8630457             -23.4847
       ...           ...                  ...                  ...
       229        2.0000           -0.4165306             -11.3344
       230        2.0000           -0.4148695             -11.2892
       231        2.0000           -0.4100116             -11.1570
       232        2.0000           -0.4086013             -11.1186
       233        2.0000           -0.4056457             -11.0382
       234        2.0000           -0.4042774             -11.0009
       235        2.0000           -0.4021415             -10.9428
       236        2.0000           -0.3887727             -10.5790
       237        2.0000           -0.3885334             -10.5725
       238        2.0000           -0.3862313             -10.5099
       239        2.0000           -0.3699764             -10.0676
       240        1.9987           -0.3606423              -9.8136
       241        1.9715           -0.3576902              -9.7332 (HOMO)
       242        0.0298           -0.3496844              -9.5154 (LUMO)
       243        0.0000           -0.3406521              -9.2696
       244                         -0.3371258              -9.1737
       245                         -0.3300173              -8.9802
       246                         -0.2924021              -7.9567
       247                         -0.2838115              -7.7229
       248                         -0.2751104              -7.4861
       249                         -0.2698413              -7.3428
       250                         -0.2639157              -7.1815
       251                         -0.2610874              -7.1045
       252                         -0.2603457              -7.0844
       ...                                ...                  ...
       459                          1.1479163              31.2364
      -------------------------------------------------------------
                  HL-Gap            0.0080057 Eh            0.2178 eV
             Fermi-level           -0.3536660 Eh           -9.6237 eV

     #   Z          covCN         q      C6AA      α(0)
     1   6 C        2.905     0.008    27.834     8.651
     2   6 C        3.008    -0.027    28.654     8.781
     3   6 C        2.862     0.240    22.992     7.860
     4   8 O        0.856    -0.388    21.435     6.207
     5   6 C        3.046    -0.013    28.299     8.725
     6   6 C        2.912    -0.036    28.901     8.815
     7   6 C        2.782     0.173    24.267     8.069
     8   9 F        0.787    -0.210    11.337     3.977
     9   6 C        2.782     0.175    24.229     8.062
    10   9 F        0.787    -0.210    11.335     3.977
    11   6 C        2.913    -0.042    29.053     8.839
    12   6 C        3.032     0.015    27.636     8.623
    13   6 C        3.019     0.042    27.027     8.528
    14   6 C        2.947     0.021    27.539     8.607
    15   6 C        1.931     0.134    27.821     8.518
    16   7 N        0.911    -0.254    26.590     7.458
    17   6 C        1.931     0.137    27.753     8.508
    18   7 N        0.911    -0.253    26.576     7.456
    19   6 C        2.968    -0.029    28.718     8.790
    20   6 C        2.786     0.143    24.869     8.168
    21   9 F        0.787    -0.223    11.476     4.002
    22   6 C        2.777     0.145    24.830     8.161
    23   9 F        0.787    -0.222    11.462     3.999
    24   6 C        2.974    -0.012    28.304     8.727
    25   6 C        2.869     0.123    25.302     8.245
    26   8 O        1.703    -0.278    18.619     5.826
    27   6 C        3.696     0.064    19.662     6.343
    28   6 C        3.750    -0.123    22.930     6.829
    29   6 C        2.853     0.142    24.898     8.178
    30   8 O        1.707    -0.219    17.637     5.670
    31   6 C        3.685     0.081    19.424     6.310
    32   6 C        3.751    -0.137    23.201     6.869
    33   6 C        2.974     0.011    27.771     8.644
    34   6 C        2.924    -0.064    29.600     8.922
    35   6 C        2.860     0.148    24.785     8.160
    36   8 O        1.751    -0.247    18.081     5.742
    37   6 C        3.687     0.066    19.664     6.347
    38   6 C        3.750    -0.133    23.117     6.857
    39   6 C        3.000    -0.006    28.164     8.705
    40   6 C        2.922    -0.059    29.476     8.903
    41   6 C        2.784     0.162    24.495     8.107
    42   9 F        0.787    -0.256    11.825     4.062
    43   6 C        2.987     0.038    27.137     8.545
    44   6 C        3.074    -0.056    29.303     8.876
    45   6 C        3.133     0.004    27.717     8.618
    46   6 C        2.993    -0.004    28.109     8.697
    47   6 C        2.973     0.010    27.779     8.645
    48   6 C        2.920    -0.037    28.918     8.818
    49   6 C        2.917    -0.041    29.013     8.833
    50   6 C        2.988     0.011    27.768     8.644
    51   6 C        2.943    -0.055    29.358     8.887
    52   6 C        2.962     0.051    26.847     8.499
    53  16 S        2.067    -0.201   149.599    20.586
    54   6 C        3.793    -0.004    20.663     6.473
    55   6 C        3.779    -0.113    22.682     6.785
    56   6 C        2.984    -0.040    28.992     8.832
    57   6 C        2.918    -0.038    28.933     8.821
    58   6 C        2.986     0.009    27.817     8.652
    59   6 C        2.924    -0.039    28.976     8.828
    60   6 C        3.003     0.031    27.296     8.570
    61   6 C        3.134     0.002    27.766     8.626
    62   6 C        2.993     0.007    27.857     8.658
    63   6 C        2.973     0.013    27.716     8.636
    64   6 C        2.924    -0.038    28.955     8.824
    65   6 C        2.986     0.011    27.756     8.642
    66   6 C        2.919    -0.038    28.955     8.824
    67   6 C        2.940    -0.040    28.999     8.832
    68   6 C        2.962     0.053    26.815     8.494
    69  16 S        2.061    -0.208   149.933    20.609
    70   6 C        3.793    -0.004    20.656     6.472
    71   6 C        3.779    -0.112    22.658     6.781
    72   6 C        2.983    -0.048    29.190     8.862
    73   6 C        2.987     0.015    27.674     8.629
    74   6 C        2.917    -0.035    28.881     8.813
    75   6 C        2.919    -0.031    28.780     8.797
    76   6 C        3.007     0.016    27.634     8.623
    77  16 S        2.321    -0.017   141.749    20.038
    78   6 C        3.053    -0.032    28.741     8.792
    79   6 C        2.978     0.039    27.131     8.544
    80  16 S        2.288    -0.065   143.759    20.180
    81   6 C        2.953    -0.005    28.154     8.703
    82   6 C        3.001    -0.035    28.855     8.812
    83   6 C        2.865     0.237    23.059     7.871
    84   8 O        0.856    -0.399    21.670     6.241
    85   6 C        3.049    -0.014    28.321     8.728
    86   6 C        2.913    -0.038    28.951     8.823
    87   6 C        2.783     0.169    24.340     8.081
    88   9 F        0.787    -0.216    11.397     3.988
    89   6 C        2.782     0.171    24.315     8.077
    90   9 F        0.787    -0.216    11.404     3.989
    91   6 C        2.914    -0.045    29.116     8.848
    92   6 C        3.031     0.013    27.690     8.631
    93   6 C        3.021     0.040    27.072     8.535
    94   6 C        2.947     0.011    27.766     8.642
    95   6 C        1.943     0.134    27.812     8.517
    96   7 N        0.911    -0.269    26.959     7.509
    97   6 C        1.946     0.135    27.788     8.513
    98   7 N        0.911    -0.271    26.999     7.515
    99   1 H        0.925     0.089     1.892     2.151
   100   1 H        0.926     0.124     1.582     1.967
   101   1 H        0.926     0.106     1.729     2.056
   102   1 H        0.924     0.058     2.222     2.331
   103   1 H        0.924     0.081     1.971     2.196
   104   1 H        0.925     0.052     2.293     2.368
   105   1 H        0.925     0.067     2.121     2.278
   106   1 H        0.925     0.040     2.451     2.448
   107   1 H        0.923     0.046     2.365     2.405
   108   1 H        0.924     0.049     2.332     2.388
   109   1 H        0.925     0.078     2.001     2.212
   110   1 H        0.925     0.075     2.032     2.229
   111   1 H        0.925     0.074     2.043     2.235
   112   1 H        0.926     0.091     1.866     2.136
   113   1 H        0.924     0.054     2.271     2.357
   114   1 H        0.924     0.077     2.012     2.218
   115   1 H        0.925     0.060     2.198     2.318
   116   1 H        0.925     0.060     2.203     2.321
   117   1 H        0.925     0.067     2.114     2.274
   118   1 H        0.926     0.083     1.953     2.185
   119   1 H        0.926     0.058     2.226     2.333
   120   1 H        0.926     0.044     2.395     2.420
   121   1 H        0.926     0.043     2.415     2.430
   122   1 H        0.926     0.044     2.397     2.421
   123   1 H        0.925     0.057     2.234     2.337
   124   1 H        0.925     0.065     2.137     2.286
   125   1 H        0.925     0.049     2.328     2.386
   126   1 H        0.925     0.056     2.244     2.343
   127   1 H        0.925     0.054     2.275     2.359
   128   1 H        0.926     0.045     2.379     2.412
   129   1 H        0.926     0.048     2.348     2.396
   130   1 H        0.926     0.042     2.417     2.431
   131   1 H        0.926     0.053     2.277     2.360
   132   1 H        0.926     0.053     2.287     2.365
   133   1 H        0.926     0.051     2.310     2.377
   134   1 H        0.925     0.058     2.219     2.330
   135   1 H        0.925     0.064     2.148     2.292
   136   1 H        0.925     0.057     2.240     2.340
   137   1 H        0.925     0.048     2.344     2.394
   138   1 H        0.925     0.052     2.301     2.372
   139   1 H        0.926     0.044     2.394     2.420
   140   1 H        0.926     0.045     2.389     2.417
   141   1 H        0.926     0.044     2.390     2.417
   142   1 H        0.926     0.097     1.812     2.105
   143   1 H        0.925     0.075     2.032     2.229
   144   1 H        0.926     0.119     1.624     1.993
   145   1 H        0.926     0.099     1.794     2.095

 Mol. C6AA /au·bohr⁶  :     342707.256402
 Mol. C8AA /au·bohr⁸  :    9201303.664484
 Mol. α(0) /au        :        927.670113


Wiberg/Mayer (AO) data.
largest (>0.10) Wiberg bond orders for each atom

 ---------------------------------------------------------------------------
     #   Z sym  total        # sym  WBO       # sym  WBO       # sym  WBO
 ---------------------------------------------------------------------------
     1   6 C    3.950 --     2 C    1.599    19 C    1.152    99 H    0.944
     2   6 C    3.977 --     1 C    1.599    13 C    1.116     3 C    1.021
     3   6 C    3.929 --     4 O    1.758     2 C    1.021     5 C    1.020
     4   8 O    2.053 --     3 C    1.758
     5   6 C    3.974 --     6 C    1.413    12 C    1.294     3 C    1.020
     6   6 C    3.972 --     5 C    1.413     7 C    1.389   100 H    0.953
     7   6 C    3.868 --     6 C    1.389     9 C    1.330     8 F    0.973
     8   9 F    1.105 --     7 C    0.973
     9   6 C    3.877 --    11 C    1.396     7 C    1.330    10 F    0.975
    10   9 F    1.109 --     9 C    0.975
    11   6 C    3.968 --     9 C    1.396    12 C    1.393   101 H    0.952
    12   6 C    3.983 --    11 C    1.393     5 C    1.294    13 C    1.091
    13   6 C    3.968 --    14 C    1.500     2 C    1.116    12 C    1.091
    14   6 C    3.956 --    13 C    1.500    17 C    1.096    15 C    1.094
    15   6 C    3.944 --    16 N    2.766    14 C    1.094
    16   7 N    2.970 --    15 C    2.766
    17   6 C    3.944 --    18 N    2.768    14 C    1.096
    18   7 N    2.969 --    17 C    2.768
    19   6 C    3.972 --    29 C    1.288    20 C    1.272     1 C    1.152
    20   6 C    3.868 --    22 C    1.411    19 C    1.272    21 F    0.958
    21   9 F    1.088 --    20 C    0.958
    22   6 C    3.871 --    20 C    1.411    24 C    1.291    23 F    0.959
    23   9 F    1.087 --    22 C    0.959
    24   6 C    3.972 --    25 C    1.372    22 C    1.291    33 C    1.049
    25   6 C    3.953 --    24 C    1.372    29 C    1.267    26 O    1.066
    26   8 O    2.167 --    25 C    1.066    27 C    0.927
    27   6 C    3.921 --    28 C    1.014   103 H    0.967   102 H    0.967
                            26 O    0.927
    28   6 C    3.993 --    27 C    1.014   106 H    0.986   104 H    0.986
                           105 H    0.981
    29   6 C    3.935 --    19 C    1.288    25 C    1.267    30 O    1.136
    30   8 O    2.318 --    29 C    1.136    31 C    0.946
    31   6 C    3.921 --    32 C    1.010   108 H    0.957   107 H    0.952
                            30 O    0.946
    32   6 C    3.981 --    31 C    1.010   110 H    0.983   109 H    0.981
                           111 H    0.979
    33   6 C    3.964 --    34 C    1.383    41 C    1.330    24 C    1.049
    34   6 C    3.977 --    35 C    1.385    33 C    1.383   112 H    0.955
    35   6 C    3.931 --    34 C    1.385    39 C    1.271    36 O    1.093
    36   8 O    2.308 --    35 C    1.093    37 C    0.938
    37   6 C    3.918 --    38 C    1.011   114 H    0.968   113 H    0.964
                            36 O    0.938
    38   6 C    3.986 --    37 C    1.011   115 H    0.985   117 H    0.981
                           116 H    0.981
    39   6 C    3.979 --    40 C    1.368    35 C    1.271    43 C    1.124
    40   6 C    3.971 --    41 C    1.422    39 C    1.368   118 H    0.959
    41   6 C    3.862 --    40 C    1.422    33 C    1.330    42 F    0.935
    42   9 F    1.055 --    41 C    0.935
    43   6 C    3.925 --    44 C    1.532    39 C    1.124    77 S    1.121
    44   6 C    3.960 --    43 C    1.532    45 C    1.248   119 H    0.955
    45   6 C    3.958 --    46 C    1.273    44 C    1.248    76 C    1.232
    46   6 C    3.962 --    60 C    1.399    45 C    1.273    47 C    1.043
    47   6 C    3.975 --    59 C    1.485    48 C    1.277    46 C    1.043
    48   6 C    3.987 --    49 C    1.565    47 C    1.277   120 H    0.967
    49   6 C    3.988 --    48 C    1.565    50 C    1.271   121 H    0.967
                            59 C    0.108
    50   6 C    3.986 --    51 C    1.283    49 C    1.271    58 C    1.245
    51   6 C    3.984 --    52 C    1.493    50 C    1.283   122 H    0.960
                            57 C    0.104
    52   6 C    3.957 --    51 C    1.493    56 C    1.268    53 S    1.050
    53  16 S    2.246 --    52 C    1.050    54 C    0.981
    54   6 C    3.970 --    55 C    1.026    53 S    0.981   123 H    0.968
                           124 H    0.968
    55   6 C    3.991 --    54 C    1.026   127 H    0.986   125 H    0.984
                           126 H    0.977
    56   6 C    3.990 --    57 C    1.582    52 C    1.268   128 H    0.967
    57   6 C    3.984 --    56 C    1.582    58 C    1.259   129 H    0.966
                            51 C    0.104
    58   6 C    3.988 --    59 C    1.299    57 C    1.259    50 C    1.245
    59   6 C    3.980 --    47 C    1.485    58 C    1.299   130 H    0.963
                            49 C    0.108
    60   6 C    3.940 --    46 C    1.399    61 C    1.213    80 S    1.114
    61   6 C    3.966 --    78 C    1.299    62 C    1.249    60 C    1.213
    62   6 C    3.951 --    76 C    1.400    61 C    1.249    63 C    1.056
    63   6 C    3.973 --    64 C    1.479    75 C    1.267    62 C    1.056
    64   6 C    3.973 --    63 C    1.479    65 C    1.298   131 H    0.961
                            74 C    0.107
    65   6 C    3.986 --    64 C    1.298    66 C    1.268    73 C    1.239
    66   6 C    3.982 --    67 C    1.566    65 C    1.268   132 H    0.965
                            72 C    0.107
    67   6 C    3.989 --    66 C    1.566    68 C    1.284   133 H    0.963
    68   6 C    3.954 --    72 C    1.484    67 C    1.284    69 S    1.040
    69  16 S    2.212 --    68 C    1.040    70 C    0.977
    70   6 C    3.969 --    71 C    1.027    69 S    0.977   134 H    0.969
                           135 H    0.968
    71   6 C    3.991 --    70 C    1.027   138 H    0.986   137 H    0.983
                           136 H    0.977
    72   6 C    3.983 --    68 C    1.484    73 C    1.299   139 H    0.966
                            66 C    0.107
    73   6 C    3.984 --    72 C    1.299    74 C    1.265    65 C    1.239
    74   6 C    3.987 --    75 C    1.573    73 C    1.265   140 H    0.966
                            64 C    0.107
    75   6 C    3.985 --    74 C    1.573    63 C    1.267   141 H    0.966
    76   6 C    3.947 --    62 C    1.400    45 C    1.232    77 S    1.104
    77  16 S    2.613 --    43 C    1.121    76 C    1.104
    78   6 C    3.936 --    79 C    1.436    61 C    1.299   142 H    0.939
    79   6 C    3.936 --    78 C    1.436    81 C    1.281    80 S    1.066
    80  16 S    2.497 --    60 C    1.114    79 C    1.066
    81   6 C    3.935 --    82 C    1.497    79 C    1.281   143 H    0.943
    82   6 C    3.948 --    81 C    1.497    93 C    1.145    83 C    1.051
    83   6 C    3.917 --    84 O    1.736    82 C    1.051    85 C    1.014
    84   8 O    2.032 --    83 C    1.736
    85   6 C    3.977 --    86 C    1.418    92 C    1.303    83 C    1.014
    86   6 C    3.970 --    85 C    1.418    87 C    1.386   144 H    0.954
    87   6 C    3.868 --    86 C    1.386    89 C    1.338    88 F    0.968
    88   9 F    1.098 --    87 C    0.968
    89   6 C    3.875 --    91 C    1.392    87 C    1.338    90 F    0.968
    90   9 F    1.100 --    89 C    0.968
    91   6 C    3.968 --    92 C    1.399    89 C    1.392   145 H    0.953
    92   6 C    3.983 --    91 C    1.399    85 C    1.303    93 C    1.081
    93   6 C    3.966 --    94 C    1.479    82 C    1.145    92 C    1.081
    94   6 C    3.943 --    93 C    1.479    97 C    1.098    95 C    1.098
    95   6 C    3.942 --    96 N    2.748    94 C    1.098
    96   7 N    2.955 --    95 C    2.748
    97   6 C    3.941 --    98 N    2.755    94 C    1.098
    98   7 N    2.959 --    97 C    2.755
    99   1 H    0.991 --     1 C    0.944
   100   1 H    0.984 --     6 C    0.953
   101   1 H    0.988 --    11 C    0.952
   102   1 H    0.997 --    27 C    0.967
   103   1 H    0.993 --    27 C    0.967
   104   1 H    0.997 --    28 C    0.986
   105   1 H    0.995 --    28 C    0.981
   106   1 H    0.998 --    28 C    0.986
   107   1 H    0.995 --    31 C    0.952
   108   1 H    0.997 --    31 C    0.957
   109   1 H    0.993 --    32 C    0.981
   110   1 H    0.994 --    32 C    0.983
   111   1 H    0.994 --    32 C    0.979
   112   1 H    0.991 --    34 C    0.955
   113   1 H    0.996 --    37 C    0.964
   114   1 H    0.994 --    37 C    0.968
   115   1 H    0.996 --    38 C    0.985
   116   1 H    0.996 --    38 C    0.981
   117   1 H    0.995 --    38 C    0.981
   118   1 H    0.992 --    40 C    0.959
   119   1 H    0.996 --    44 C    0.955
   120   1 H    0.997 --    48 C    0.967
   121   1 H    0.997 --    49 C    0.967
   122   1 H    0.998 --    51 C    0.960
   123   1 H    0.996 --    54 C    0.968
   124   1 H    0.995 --    54 C    0.968
   125   1 H    0.998 --    55 C    0.984
   126   1 H    0.996 --    55 C    0.977
   127   1 H    0.997 --    55 C    0.986
   128   1 H    0.997 --    56 C    0.967
   129   1 H    0.997 --    57 C    0.966
   130   1 H    0.998 --    59 C    0.963
   131   1 H    0.996 --    64 C    0.961
   132   1 H    0.997 --    66 C    0.965
   133   1 H    0.997 --    67 C    0.963
   134   1 H    0.996 --    70 C    0.969
   135   1 H    0.995 --    70 C    0.968
   136   1 H    0.996 --    71 C    0.977
   137   1 H    0.998 --    71 C    0.983
   138   1 H    0.997 --    71 C    0.986
   139   1 H    0.998 --    72 C    0.966
   140   1 H    0.996 --    74 C    0.966
   141   1 H    0.997 --    75 C    0.966
   142   1 H    0.990 --    78 C    0.939
   143   1 H    0.993 --    81 C    0.943
   144   1 H    0.985 --    86 C    0.954
   145   1 H    0.990 --    91 C    0.953
 ---------------------------------------------------------------------------

Topologies differ in bond orders
Writing corrected topology to xtbtopo.mol

molecular dipole:
                 x           y           z       tot (Debye)
 q only:        3.633       3.102       3.026
   full:        3.970       2.572       3.067      14.329
molecular quadrupole (traceless):
                xx          xy          yy          xz          yz          zz
 q only:     -226.272      20.033     156.719      57.707      22.742      69.553
  q+dip:     -225.097      -0.617     167.416      37.667      18.944      57.681
   full:     -232.182      -0.749     174.199      40.452      14.716      57.984


           -------------------------------------------------
          | TOTAL ENERGY             -269.043033528180 Eh   |
          | GRADIENT NORM               0.039391327336 Eh/α |
          | HOMO-LUMO GAP               0.217847541146 eV   |
           -------------------------------------------------

------------------------------------------------------------------------
 * finished run on 2022/02/03 at 21:36:26.643     
------------------------------------------------------------------------
 total:
 * wall-time:     0 d,  0 h,  0 min,  0.477 sec
 *  cpu-time:     0 d,  0 h,  0 min,  3.741 sec
 * ratio c/w:     7.835 speedup
 SCF:
 * wall-time:     0 d,  0 h,  0 min,  0.403 sec
 *  cpu-time:     0 d,  0 h,  0 min,  3.221 sec
 * ratio c/w:     7.994 speedup

