      -----------------------------------------------------------      
     |                   =====================                   |     
     |                           x T B                           |     
     |                   =====================                   |     
     |                         S. Grimme                         |     
     |          Mulliken Center for Theoretical Chemistry        |     
     |                    University of Bonn                     |     
      -----------------------------------------------------------      

   * xtb version 6.4.1 (unknown) compiled by 'oda6@login1.crc.pitt.edu' on 2021-06-25

   xtb is free software: you can redistribute it and/or modify it under
   the terms of the GNU Lesser General Public License as published by
   the Free Software Foundation, either version 3 of the License, or
   (at your option) any later version.
   
   xtb is distributed in the hope that it will be useful,
   but WITHOUT ANY WARRANTY; without even the implied warranty of
   MERCHANTABILITY or FITNESS FOR A PARTICULAR PURPOSE.  See the
   GNU Lesser General Public License for more details.
   
   Cite this work as:
   * C. Bannwarth, E. Caldeweyher, S. Ehlert, A. Hansen, P. Pracht,
     J. Seibert, S. Spicher, S. Grimme, WIREs Comput. Mol. Sci., 2020, 11,
     e01493. DOI: 10.1002/wcms.1493
   
   for GFN2-xTB:
   * C. Bannwarth, S. Ehlert and S. Grimme., J. Chem. Theory Comput., 2019,
     15, 1652-1671. DOI: 10.1021/acs.jctc.8b01176
   for GFN1-xTB:
   * S. Grimme, C. Bannwarth, P. Shushkov, J. Chem. Theory Comput., 2017,
     13, 1989-2009. DOI: 10.1021/acs.jctc.7b00118
   for GFN0-xTB:
   * P. Pracht, E. Caldeweyher, S. Ehlert, S. Grimme, ChemRxiv, 2019, preprint.
     DOI: 10.26434/chemrxiv.8326202.v1
   for GFN-FF:
   * S. Spicher and S. Grimme, Angew. Chem. Int. Ed., 2020, 59, 15665-15673.
     DOI: 10.1002/anie.202004239
   
   for DFT-D4:
   * E. Caldeweyher, C. Bannwarth and S. Grimme, J. Chem. Phys., 2017,
     147, 034112. DOI: 10.1063/1.4993215
   * E. Caldeweyher, S. Ehlert, A. Hansen, H. Neugebauer, S. Spicher,
     C. Bannwarth and S. Grimme, J. Chem. Phys., 2019, 150, 154122.
     DOI: 10.1063/1.5090222
   * E. Caldeweyher, J.-M. Mewes, S. Ehlert and S. Grimme, Phys. Chem. Chem. Phys.
     2020, 22, 8499-8512. DOI: 10.1039/D0CP00502A
   
   for sTDA-xTB:
   * S. Grimme and C. Bannwarth, J. Chem. Phys., 2016, 145, 054103.
     DOI: 10.1063/1.4959605
   
   in the mass-spec context:
   * V. Asgeirsson, C. Bauer and S. Grimme, Chem. Sci., 2017, 8, 4879.
     DOI: 10.1039/c7sc00601b
   * J. Koopman and S. Grimme, ACS Omega 2019, 4, 12, 15120-15133.
     DOI: 10.1021/acsomega.9b02011
   
   for metadynamics refer to:
   * S. Grimme, J. Chem. Theory Comput., 2019, 155, 2847-2862
     DOI: 10.1021/acs.jctc.9b00143
   
   for SPH calculations refer to:
   * S. Spicher and S. Grimme, J. Chem. Theory Comput., 2021, 17, 1701-1714
     DOI: 10.1021/acs.jctc.0c01306
   
   with help from (in alphabetical order)
   P. Atkinson, C. Bannwarth, F. Bohle, G. Brandenburg, E. Caldeweyher
   M. Checinski, S. Dohm, S. Ehlert, S. Ehrlich, I. Gerasimov, J. Koopman
   C. Lavigne, S. Lehtola, F. März, M. Müller, F. Musil, H. Neugebauer
   J. Pisarek, C. Plett, P. Pracht, J. Seibert, P. Shushkov, S. Spicher
   M. Stahn, M. Steiner, T. Strunk, J. Stückrath, T. Rose, and J. Unsleber
   
 * started run on 2022/02/11 at 18:05:26.210     

           -------------------------------------------------
          |                Calculation Setup                |
           -------------------------------------------------

          program call               : /ihome/ghutchison/oda6/xtb/xtb-641/bin/xtb ../../GFN2_output/0_28_121_28_64.mol --sp --alpb water
          hostname                   : smp-n25
          coordinate file            : ../../GFN2_output/0_28_121_28_64.mol
          omp threads                :                     8
          number of atoms            :                   202
          number of electrons        :                   624
          charge                     :                     0
          spin                       :                   0.0
          first test random number   :      0.41433537715045

   ID    Z sym.   atoms
    1    6 C      1-3, 5-7, 9, 11-15, 17, 19, 20, 22-36, 38, 39, 41-55, 57,
                  59-61, 63-71, 73, 74, 76-90, 92, 93, 95-109, 111-113,
                  115-117, 119, 121-125, 127
    2    8 O      4, 62, 114
    3    9 F      8, 10, 120
    4    7 N      16, 18, 21, 40, 75, 94, 126, 128
    5   16 S      37, 56, 58, 72, 91, 110
    6   17 Cl     118
    7    1 H      129-202

           -------------------------------------------------
          |                 G F N 2 - x T B                 |
           -------------------------------------------------

        Reference                      10.1021/acs.jctc.8b01176
      * Hamiltonian:
        H0-scaling (s, p, d)           1.850000    2.230000    2.230000
        zeta-weighting                 0.500000
      * Dispersion:
        s8                             2.700000
        a1                             0.520000
        a2                             5.000000
        s9                             5.000000
      * Repulsion:
        kExp                           1.500000    1.000000
        rExp                           1.000000
      * Coulomb:
        alpha                          2.000000
        third order                    shell-resolved
        anisotropic                    true
        a3                             3.000000
        a5                             4.000000
        cn-shift                       1.200000
        cn-exp                         4.000000
        max-rad                        5.000000

      * Solvation model:               ALPB
        Solvent                        water
        Parameter file                 internal GFN2-xTB/ALPB
        Dielectric constant                8.0200E+01
        Reference state                gsolv [1 M gas/solution]
        Free energy shift                  1.0808E-03 Eh       6.7819E-01 kcal/mol
        Temperature                        2.9815E+02 K
        Density                            1.0000E+00 kg/L
        Solvent mass                       1.8000E+01 g/mol
        Interaction kernel             P16
        Born radius scaling (c1)           1.4744E+00
        Born radii integrator          GBOBC
        Born offset                        0.0000E+00 a0       0.0000E+00 AA
        H-bond correction              true
        Ion screening                  false
        Surface tension                    1.0000E-05 Eh       1.5569E+01 dyn/cm
        Grid points                               230 per atom

          ...................................................
          :                      SETUP                      :
          :.................................................:
          :  # basis functions                 628          :
          :  # atomic orbitals                 621          :
          :  # shells                          337          :
          :  # electrons                       624          :
          :  max. iterations                   250          :
          :  Hamiltonian                  GFN2-xTB          :
          :  restarted?                      false          :
          :  GBSA solvation                   true          :
          :  PC potential                    false          :
          :  electronic temp.          300.0000000     K    :
          :  accuracy                    1.0000000          :
          :  -> integral cutoff          0.2500000E+02      :
          :  -> integral neglect         0.1000000E-07      :
          :  -> SCF convergence          0.1000000E-05 Eh   :
          :  -> wf. convergence          0.1000000E-03 e    :
          :  Broyden damping             0.4000000          :
          ...................................................

 iter      E             dE          RMSdq      gap      omega  full diag
   1   -345.9423356 -0.345942E+03  0.442E+00    0.39       0.0  T
   2   -346.1673194 -0.224984E+00  0.263E+00    0.68       1.0  T
   3   -345.9845085  0.182811E+00  0.132E+00    0.31       1.0  T
   4   -346.2223866 -0.237878E+00  0.500E-01    0.56       1.0  T
   5   -346.2571230 -0.347363E-01  0.152E-01    0.46       1.0  T
   6   -346.2585574 -0.143445E-02  0.641E-02    0.46       1.0  T
   7   -346.2587100 -0.152572E-03  0.321E-02    0.45       1.0  T
   8   -346.2587828 -0.728420E-04  0.185E-02    0.46       1.0  T
   9   -346.2588034 -0.205513E-04  0.124E-02    0.46       1.0  T
  10   -346.2588112 -0.778063E-05  0.921E-03    0.46       1.0  T
  11   -346.2588170 -0.577161E-05  0.635E-03    0.46       1.1  T
  12   -346.2588202 -0.325719E-05  0.361E-03    0.46       2.0  T
  13   -346.2588215 -0.132210E-05  0.165E-03    0.46       4.3  T
  14   -346.2588217 -0.205585E-06  0.979E-04    0.46       7.2  T
  15   -346.2588218 -0.491533E-07  0.560E-04    0.46      12.6  T

   *** convergence criteria satisfied after 15 iterations ***

         #    Occupation            Energy/Eh            Energy/eV
      -------------------------------------------------------------
         1        2.0000           -1.0793498             -29.3706
       ...           ...                  ...                  ...
       306        2.0000           -0.3902856             -10.6202
       307        2.0000           -0.3872763             -10.5383
       308        2.0000           -0.3721086             -10.1256
       309        2.0000           -0.3660996              -9.9621
       310        2.0000           -0.3631146              -9.8809
       311        2.0000           -0.3547252              -9.6526
       312        1.9997           -0.3484715              -9.4824 (HOMO)
       313        0.0003           -0.3315769              -9.0227 (LUMO)
       314        0.0000           -0.3288849              -8.9494
       315                         -0.3231631              -8.7937
       316                         -0.3179627              -8.6522
       317                         -0.2918320              -7.9412
       ...                                ...                  ...
       621                          1.1577579              31.5042
      -------------------------------------------------------------
                  HL-Gap            0.0168945 Eh            0.4597 eV
             Fermi-level           -0.3400508 Eh           -9.2533 eV

 SCC (total)                   0 d,  0 h,  0 min,  0.923 sec
 SCC setup                      ...        0 min,  0.007 sec (  0.787%)
 Dispersion                     ...        0 min,  0.008 sec (  0.912%)
 classical contributions        ...        0 min,  0.000 sec (  0.037%)
 integral evaluation            ...        0 min,  0.038 sec (  4.125%)
 iterations                     ...        0 min,  0.747 sec ( 80.906%)
 molecular gradient             ...        0 min,  0.119 sec ( 12.859%)
 printout                       ...        0 min,  0.003 sec (  0.363%)

         :::::::::::::::::::::::::::::::::::::::::::::::::::::
         ::                     SUMMARY                     ::
         :::::::::::::::::::::::::::::::::::::::::::::::::::::
         :: total energy            -340.718651624843 Eh    ::
         :: total w/o Gsasa/hb      -340.701094029820 Eh    ::
         :: gradient norm              0.046054712709 Eh/a0 ::
         :: HOMO-LUMO gap              0.459723267547 eV    ::
         ::.................................................::
         :: SCC energy              -346.258821785287 Eh    ::
         :: -> isotropic ES            0.201612951847 Eh    ::
         :: -> anisotropic ES          0.017171912947 Eh    ::
         :: -> anisotropic XC          0.182042980364 Eh    ::
         :: -> dispersion             -0.371455774569 Eh    ::
         :: -> Gsolv                  -0.055122775499 Eh    ::
         ::    -> Gelec               -0.037565180477 Eh    ::
         ::    -> Gsasa               -0.009691491758 Eh    ::
         ::    -> Ghb                 -0.008946862962 Eh    ::
         ::    -> Gshift               0.001080759698 Eh    ::
         :: repulsion energy           5.526236776884 Eh    ::
         :: add. restraining           0.000000000000 Eh    ::
         :: total charge              -0.000000000000 e     ::
         :::::::::::::::::::::::::::::::::::::::::::::::::::::

           -------------------------------------------------
          |                Property Printout                |
           -------------------------------------------------

    * Orbital Energies and Occupations

         #    Occupation            Energy/Eh            Energy/eV
      -------------------------------------------------------------
         1        2.0000           -1.0793498             -29.3706
       ...           ...                  ...                  ...
       300        2.0000           -0.4015482             -10.9267
       301        2.0000           -0.3992918             -10.8653
       302        2.0000           -0.3979037             -10.8275
       303        2.0000           -0.3963594             -10.7855
       304        2.0000           -0.3955234             -10.7627
       305        2.0000           -0.3932504             -10.7009
       306        2.0000           -0.3902856             -10.6202
       307        2.0000           -0.3872763             -10.5383
       308        2.0000           -0.3721086             -10.1256
       309        2.0000           -0.3660996              -9.9621
       310        2.0000           -0.3631146              -9.8809
       311        2.0000           -0.3547252              -9.6526
       312        1.9997           -0.3484715              -9.4824 (HOMO)
       313        0.0003           -0.3315769              -9.0227 (LUMO)
       314        0.0000           -0.3288849              -8.9494
       315                         -0.3231631              -8.7937
       316                         -0.3179627              -8.6522
       317                         -0.2918320              -7.9412
       318                         -0.2796471              -7.6096
       319                         -0.2699826              -7.3466
       320                         -0.2611787              -7.1070
       321                         -0.2503636              -6.8127
       322                         -0.2475475              -6.7361
       323                         -0.2439128              -6.6372
       ...                                ...                  ...
       621                          1.1577579              31.5042
      -------------------------------------------------------------
                  HL-Gap            0.0168945 Eh            0.4597 eV
             Fermi-level           -0.3400508 Eh           -9.2533 eV

     #   Z          covCN         q      C6AA      α(0)
     1   6 C        2.966    -0.016    28.411     8.743
     2   6 C        3.014    -0.048    29.169     8.859
     3   6 C        2.874     0.233    23.128     7.884
     4   8 O        0.856    -0.419    22.074     6.299
     5   6 C        3.049    -0.019    28.435     8.746
     6   6 C        2.913    -0.038    28.946     8.822
     7   6 C        2.783     0.165    24.423     8.095
     8   9 F        0.787    -0.220    11.446     3.996
     9   6 C        2.783     0.168    24.376     8.087
    10   9 F        0.787    -0.220    11.439     3.995
    11   6 C        2.914    -0.046    29.141     8.852
    12   6 C        3.040     0.011    27.741     8.639
    13   6 C        3.024     0.033    27.226     8.559
    14   6 C        2.948    -0.008    28.211     8.711
    15   6 C        1.930     0.130    27.920     8.533
    16   7 N        0.911    -0.292    27.514     7.586
    17   6 C        1.932     0.132    27.859     8.524
    18   7 N        0.911    -0.299    27.691     7.611
    19   6 C        2.985     0.005    27.897     8.664
    20   6 C        3.032     0.064    26.535     8.449
    21   7 N        2.746    -0.048    22.168     6.993
    22   6 C        2.936     0.054    26.793     8.489
    23   6 C        2.920    -0.042    29.055     8.839
    24   6 C        2.925    -0.041    29.020     8.834
    25   6 C        2.966     0.026    27.428     8.590
    26   6 C        3.758    -0.130    23.050     6.845
    27   6 C        2.926    -0.039    28.972     8.827
    28   6 C        2.921    -0.040    28.994     8.830
    29   6 C        2.924     0.058    26.693     8.473
    30   6 C        2.922    -0.043    29.066     8.841
    31   6 C        2.925    -0.043    29.074     8.842
    32   6 C        2.965     0.019    27.590     8.616
    33   6 C        3.758    -0.125    22.945     6.829
    34   6 C        2.925    -0.041    29.024     8.835
    35   6 C        2.920    -0.046    29.153     8.854
    36   6 C        3.168    -0.001    27.696     8.599
    37  16 S        2.250    -0.039   142.649    20.102
    38   6 C        3.035     0.002    27.946     8.671
    39   6 C        3.055     0.050    26.837     8.496
    40   7 N        2.748    -0.067    22.539     7.051
    41   6 C        2.926     0.058    26.698     8.474
    42   6 C        2.921    -0.049    29.228     8.866
    43   6 C        2.925    -0.043    29.070     8.842
    44   6 C        2.965     0.011    27.762     8.643
    45   6 C        3.758    -0.122    22.890     6.821
    46   6 C        2.926    -0.042    29.042     8.838
    47   6 C        2.921    -0.049    29.211     8.863
    48   6 C        2.927     0.057    26.724     8.478
    49   6 C        2.923    -0.046    29.133     8.851
    50   6 C        2.925    -0.042    29.034     8.836
    51   6 C        2.965     0.011    27.778     8.645
    52   6 C        3.757    -0.115    22.756     6.801
    53   6 C        2.925    -0.044    29.082     8.844
    54   6 C        2.921    -0.052    29.301     8.877
    55   6 C        3.171     0.015    27.294     8.535
    56  16 S        2.280    -0.035   142.515    20.092
    57   6 C        3.019     0.018    27.597     8.617
    58  16 S        2.308    -0.025   142.080    20.062
    59   6 C        3.028     0.024    27.434     8.591
    60   6 C        3.021    -0.012    28.284     8.724
    61   6 C        3.033     0.143    24.858     8.178
    62   8 O        1.702    -0.272    18.507     5.808
    63   6 C        3.787     0.139    18.356     6.102
    64   6 C        3.804    -0.066    21.760     6.641
    65   6 C        3.751    -0.116    22.778     6.806
    66   6 C        3.803    -0.073    21.894     6.662
    67   6 C        3.751    -0.106    22.590     6.778
    68   6 C        3.149    -0.023    28.301     8.702
    69   6 C        3.089    -0.054    29.230     8.862
    70   6 C        3.079    -0.081    29.925     8.968
    71   6 C        3.035     0.025    27.422     8.589
    72  16 S        2.290    -0.022   141.943    20.052
    73   6 C        3.025     0.005    27.895     8.663
    74   6 C        3.055     0.050    26.829     8.495
    75   7 N        2.747    -0.074    22.669     7.071
    76   6 C        2.930     0.059    26.671     8.469
    77   6 C        2.922    -0.046    29.154     8.854
    78   6 C        2.925    -0.040    28.989     8.830
    79   6 C        2.965     0.017    27.639     8.623
    80   6 C        3.757    -0.118    22.809     6.809
    81   6 C        2.926    -0.041    29.009     8.833
    82   6 C        2.919    -0.050    29.230     8.866
    83   6 C        2.944     0.059    26.670     8.470
    84   6 C        2.920    -0.045    29.108     8.847
    85   6 C        2.925    -0.041    29.007     8.832
    86   6 C        2.966     0.014    27.687     8.631
    87   6 C        3.758    -0.118    22.810     6.809
    88   6 C        2.925    -0.043    29.061     8.841
    89   6 C        2.921    -0.047    29.165     8.856
    90   6 C        3.183     0.016    27.216     8.514
    91  16 S        2.265    -0.083   144.501    20.232
    92   6 C        2.987     0.005    27.900     8.665
    93   6 C        3.046     0.067    26.453     8.435
    94   7 N        2.748    -0.034    21.908     6.952
    95   6 C        2.933     0.056    26.748     8.482
    96   6 C        2.921    -0.044    29.085     8.844
    97   6 C        2.925    -0.041    29.012     8.833
    98   6 C        2.966     0.023    27.482     8.599
    99   6 C        3.758    -0.129    23.030     6.842
   100   6 C        2.925    -0.041    29.012     8.833
   101   6 C        2.920    -0.043    29.057     8.840
   102   6 C        2.927     0.055    26.771     8.485
   103   6 C        2.920    -0.046    29.131     8.851
   104   6 C        2.926    -0.042    29.039     8.837
   105   6 C        2.966     0.020    27.566     8.612
   106   6 C        3.758    -0.126    22.964     6.832
   107   6 C        2.926    -0.040    28.985     8.829
   108   6 C        2.919    -0.046    29.140     8.852
   109   6 C        3.157    -0.001    27.737     8.611
   110  16 S        2.274    -0.027   142.152    20.067
   111   6 C        2.933    -0.016    28.402     8.740
   112   6 C        3.016    -0.049    29.203     8.864
   113   6 C        2.873     0.232    23.145     7.886
   114   8 O        0.856    -0.430    22.280     6.328
   115   6 C        3.046    -0.018    28.423     8.744
   116   6 C        2.947    -0.031    28.782     8.799
   117   6 C        2.885     0.087    26.056     8.369
   118  17 Cl       0.961    -0.145   103.703    15.580
   119   6 C        2.819     0.174    24.260     8.070
   120   9 F        0.787    -0.221    11.457     3.998
   121   6 C        2.912    -0.044    29.104     8.846
   122   6 C        3.041     0.012    27.718     8.635
   123   6 C        3.026     0.036    27.172     8.550
   124   6 C        2.950    -0.002    28.070     8.690
   125   6 C        1.940     0.133    27.838     8.521
   126   7 N        0.911    -0.295    27.603     7.599
   127   6 C        1.927     0.130    27.904     8.531
   128   7 N        0.911    -0.290    27.468     7.580
   129   1 H        0.925     0.080     1.981     2.201
   130   1 H        0.926     0.110     1.697     2.037
   131   1 H        0.926     0.094     1.836     2.119
   132   1 H        0.926     0.049     2.334     2.389
   133   1 H        0.926     0.060     2.204     2.322
   134   1 H        0.925     0.067     2.117     2.276
   135   1 H        0.925     0.066     2.131     2.283
   136   1 H        0.925     0.060     2.199     2.319
   137   1 H        0.926     0.052     2.293     2.368
   138   1 H        0.926     0.025     2.653     2.547
   139   1 H        0.926     0.041     2.431     2.438
   140   1 H        0.926     0.048     2.351     2.398
   141   1 H        0.924     0.078     2.000     2.212
   142   1 H        0.925     0.056     2.241     2.341
   143   1 H        0.925     0.048     2.345     2.395
   144   1 H        0.926     0.054     2.271     2.357
   145   1 H        0.926     0.042     2.419     2.432
   146   1 H        0.926     0.041     2.436     2.441
   147   1 H        0.926     0.043     2.409     2.427
   148   1 H        0.925     0.055     2.254     2.348
   149   1 H        0.925     0.051     2.307     2.375
   150   1 H        0.925     0.052     2.299     2.371
   151   1 H        0.926     0.037     2.486     2.466
   152   1 H        0.926     0.027     2.622     2.532
   153   1 H        0.926     0.042     2.421     2.433
   154   1 H        0.926     0.037     2.493     2.469
   155   1 H        0.925     0.048     2.347     2.396
   156   1 H        0.924     0.052     2.291     2.367
   157   1 H        0.925     0.054     2.268     2.355
   158   1 H        0.926     0.041     2.441     2.443
   159   1 H        0.926     0.030     2.592     2.518
   160   1 H        0.924     0.046     2.370     2.408
   161   1 H        0.925     0.051     2.309     2.376
   162   1 H        0.925     0.053     2.277     2.360
   163   1 H        0.925     0.046     2.370     2.408
   164   1 H        0.925     0.051     2.313     2.378
   165   1 H        0.924     0.052     2.292     2.367
   166   1 H        0.925     0.062     2.175     2.306
   167   1 H        0.925     0.050     2.314     2.379
   168   1 H        0.925     0.032     2.560     2.502
   169   1 H        0.925     0.035     2.516     2.481
   170   1 H        0.926     0.062     2.173     2.305
   171   1 H        0.926     0.078     2.003     2.213
   172   1 H        0.926     0.040     2.445     2.445
   173   1 H        0.926     0.042     2.420     2.433
   174   1 H        0.925     0.055     2.256     2.349
   175   1 H        0.924     0.060     2.204     2.322
   176   1 H        0.925     0.047     2.355     2.400
   177   1 H        0.926     0.043     2.407     2.426
   178   1 H        0.926     0.026     2.644     2.543
   179   1 H        0.926     0.034     2.535     2.490
   180   1 H        0.926     0.039     2.457     2.451
   181   1 H        0.925     0.047     2.363     2.404
   182   1 H        0.925     0.065     2.144     2.290
   183   1 H        0.925     0.046     2.376     2.411
   184   1 H        0.926     0.047     2.355     2.400
   185   1 H        0.926     0.043     2.410     2.428
   186   1 H        0.926     0.039     2.465     2.455
   187   1 H        0.926     0.054     2.271     2.356
   188   1 H        0.924     0.070     2.090     2.261
   189   1 H        0.925     0.059     2.205     2.322
   190   1 H        0.925     0.056     2.242     2.342
   191   1 H        0.926     0.054     2.267     2.355
   192   1 H        0.926     0.047     2.361     2.403
   193   1 H        0.926     0.049     2.330     2.387
   194   1 H        0.926     0.052     2.291     2.367
   195   1 H        0.925     0.055     2.264     2.353
   196   1 H        0.924     0.061     2.187     2.312
   197   1 H        0.925     0.060     2.201     2.320
   198   1 H        0.926     0.044     2.398     2.422
   199   1 H        0.926     0.040     2.446     2.446
   200   1 H        0.925     0.071     2.071     2.251
   201   1 H        0.926     0.105     1.739     2.062
   202   1 H        0.926     0.092     1.857     2.131

 Mol. C6AA /au·bohr⁶  :     663586.433231
 Mol. C8AA /au·bohr⁸  :   18009776.095661
 Mol. α(0) /au        :       1301.929005


Wiberg/Mayer (AO) data.
largest (>0.10) Wiberg bond orders for each atom

 ---------------------------------------------------------------------------
     #   Z sym  total        # sym  WBO       # sym  WBO       # sym  WBO
 ---------------------------------------------------------------------------
     1   6 C    3.942 --     2 C    1.413    19 C    1.365   129 H    0.949
     2   6 C    3.956 --     1 C    1.413    13 C    1.201     3 C    1.052
     3   6 C    3.917 --     4 O    1.731     2 C    1.052     5 C    1.004
     4   8 O    2.004 --     3 C    1.731
     5   6 C    3.977 --     6 C    1.426    12 C    1.304     3 C    1.004
     6   6 C    3.971 --     5 C    1.426     7 C    1.379   130 H    0.956
     7   6 C    3.867 --     6 C    1.379     9 C    1.347     8 F    0.963
     8   9 F    1.091 --     7 C    0.963
     9   6 C    3.875 --    11 C    1.384     7 C    1.347    10 F    0.965
    10   9 F    1.095 --     9 C    0.965
    11   6 C    3.969 --    12 C    1.408     9 C    1.384   131 H    0.955
    12   6 C    3.984 --    11 C    1.408     5 C    1.304    13 C    1.068
    13   6 C    3.974 --    14 C    1.400     2 C    1.201    12 C    1.068
    14   6 C    3.960 --    13 C    1.400    17 C    1.121    15 C    1.118
    15   6 C    3.942 --    16 N    2.736    14 C    1.118
    16   7 N    2.951 --    15 C    2.736
    17   6 C    3.942 --    18 N    2.726    14 C    1.121
    18   7 N    2.957 --    17 C    2.726
    19   6 C    3.924 --     1 C    1.365    20 C    1.268    56 S    1.060
    20   6 C    3.958 --    19 C    1.268    36 C    1.254    21 N    1.172
    21   7 N    3.550 --    20 C    1.172    29 C    1.051    22 C    1.005
    22   6 C    3.954 --    23 C    1.380    28 C    1.372    21 N    1.005
    23   6 C    3.976 --    24 C    1.453    22 C    1.380   132 H    0.966
                            27 C    0.104
    24   6 C    3.988 --    23 C    1.453    25 C    1.403   133 H    0.966
                            28 C    0.102
    25   6 C    3.973 --    24 C    1.403    27 C    1.396    26 C    1.032
    26   6 C    3.992 --    25 C    1.032   136 H    0.984   135 H    0.971
                           134 H    0.964
    27   6 C    3.987 --    28 C    1.458    25 C    1.396   137 H    0.968
                            23 C    0.104
    28   6 C    3.986 --    27 C    1.458    22 C    1.372   138 H    0.965
                            24 C    0.102
    29   6 C    3.959 --    35 C    1.360    30 C    1.353    21 N    1.051
    30   6 C    3.983 --    31 C    1.459    29 C    1.353   139 H    0.965
    31   6 C    3.989 --    30 C    1.459    32 C    1.398   140 H    0.967
    32   6 C    3.973 --    31 C    1.398    34 C    1.391    33 C    1.032
    33   6 C    3.992 --    32 C    1.032   143 H    0.982   142 H    0.977
                           141 H    0.959
    34   6 C    3.986 --    35 C    1.464    32 C    1.391   144 H    0.967
    35   6 C    3.981 --    34 C    1.464    29 C    1.360   145 H    0.966
    36   6 C    3.932 --    55 C    1.349    20 C    1.254    37 S    1.100
    37  16 S    2.551 --    36 C    1.100    38 C    1.100
    38   6 C    3.899 --    39 C    1.394    57 C    1.149    37 S    1.100
    39   6 C    3.953 --    38 C    1.394    55 C    1.232    40 N    1.097
    40   7 N    3.492 --    39 C    1.097    41 C    1.049    48 C    1.040
    41   6 C    3.962 --    42 C    1.367    47 C    1.364    40 N    1.049
    42   6 C    3.983 --    43 C    1.457    41 C    1.367   146 H    0.967
                            46 C    0.105
    43   6 C    3.989 --    42 C    1.457    44 C    1.402   147 H    0.968
                            47 C    0.102
    44   6 C    3.976 --    43 C    1.402    46 C    1.401    45 C    1.027
    45   6 C    3.994 --    44 C    1.027   149 H    0.984   150 H    0.978
                           148 H    0.966
    46   6 C    3.990 --    47 C    1.459    44 C    1.401   151 H    0.969
                            42 C    0.105
    47   6 C    3.985 --    46 C    1.459    41 C    1.364   152 H    0.967
                            43 C    0.102
    48   6 C    3.961 --    54 C    1.374    49 C    1.365    40 N    1.040
    49   6 C    3.986 --    50 C    1.459    48 C    1.365   153 H    0.965
                            53 C    0.103
    50   6 C    3.990 --    49 C    1.459    51 C    1.400   154 H    0.962
                            54 C    0.102
    51   6 C    3.982 --    53 C    1.402    50 C    1.400    52 C    1.028
    52   6 C    3.995 --    51 C    1.028   155 H    0.982   157 H    0.980
                           156 H    0.963
    53   6 C    3.989 --    54 C    1.455    51 C    1.402   158 H    0.967
                            49 C    0.103
    54   6 C    3.986 --    53 C    1.455    48 C    1.374   159 H    0.968
                            50 C    0.102
    55   6 C    3.933 --    36 C    1.349    39 C    1.232    56 S    1.125
    56  16 S    2.515 --    55 C    1.125    19 C    1.060
    57   6 C    3.904 --    69 C    1.470    38 C    1.149    58 S    1.114
    58  16 S    2.585 --    59 C    1.138    57 C    1.114
    59   6 C    3.932 --    68 C    1.398    60 C    1.206    58 S    1.138
    60   6 C    3.897 --    61 C    1.322    59 C    1.206    72 S    1.133
    61   6 C    3.922 --    60 C    1.322    70 C    1.317    62 O    1.095
    62   8 O    2.248 --    61 C    1.095    63 C    0.917
    63   6 C    3.923 --    68 C    0.982    64 C    0.968    66 C    0.962
                            62 O    0.917
    64   6 C    3.988 --    65 C    1.019   160 H    0.973   161 H    0.972
                            63 C    0.968
    65   6 C    3.992 --    64 C    1.019   163 H    0.985   162 H    0.985
                           164 H    0.985
    66   6 C    3.986 --    67 C    1.021   165 H    0.973   166 H    0.969
                            63 C    0.962
    67   6 C    3.995 --    66 C    1.021   169 H    0.987   168 H    0.986
                           167 H    0.985
    68   6 C    3.944 --    59 C    1.398    69 C    1.334    63 C    0.982
    69   6 C    3.964 --    57 C    1.470    68 C    1.334   170 H    0.958
    70   6 C    3.946 --    71 C    1.415    61 C    1.317   171 H    0.954
    71   6 C    3.921 --    70 C    1.415    73 C    1.226    72 S    1.114
    72  16 S    2.592 --    60 C    1.133    71 C    1.114
    73   6 C    3.906 --    74 C    1.356    71 C    1.226   110 S    1.087
    74   6 C    3.946 --    73 C    1.356    90 C    1.246    75 N    1.102
    75   7 N    3.467 --    74 C    1.102    76 C    1.038    83 C    1.022
    76   6 C    3.961 --    82 C    1.369    77 C    1.364    75 N    1.038
    77   6 C    3.982 --    78 C    1.459    76 C    1.364   172 H    0.968
                            81 C    0.104
    78   6 C    3.990 --    77 C    1.459    79 C    1.401   173 H    0.968
                            82 C    0.101
    79   6 C    3.974 --    78 C    1.401    81 C    1.396    80 C    1.028
    80   6 C    3.994 --    79 C    1.028   176 H    0.982   174 H    0.975
                           175 H    0.965
    81   6 C    3.990 --    82 C    1.457    79 C    1.396   177 H    0.968
                            77 C    0.104
    82   6 C    3.985 --    81 C    1.457    76 C    1.369   178 H    0.968
                            78 C    0.101
    83   6 C    3.964 --    84 C    1.378    89 C    1.368    75 N    1.022
    84   6 C    3.983 --    85 C    1.452    83 C    1.378   179 H    0.967
                            88 C    0.106
    85   6 C    3.990 --    84 C    1.452    86 C    1.406   180 H    0.967
                            89 C    0.103
    86   6 C    3.977 --    85 C    1.406    88 C    1.400    87 C    1.028
    87   6 C    3.995 --    86 C    1.028   183 H    0.985   181 H    0.974
                           182 H    0.967
    88   6 C    3.989 --    89 C    1.459    86 C    1.400   184 H    0.968
                            84 C    0.106
    89   6 C    3.984 --    88 C    1.459    83 C    1.368   185 H    0.968
                            85 C    0.103
    90   6 C    3.930 --   109 C    1.348    74 C    1.246    91 S    1.107
    91  16 S    2.551 --    90 C    1.107    92 C    1.060
    92   6 C    3.916 --   111 C    1.363    93 C    1.255    91 S    1.060
    93   6 C    3.951 --    92 C    1.255   109 C    1.247    94 N    1.197
    94   7 N    3.528 --    93 C    1.197    95 C    1.024   102 C    1.020
    95   6 C    3.953 --   101 C    1.373    96 C    1.364    94 N    1.024
    96   6 C    3.979 --    97 C    1.460    95 C    1.364   186 H    0.967
                           100 C    0.102
    97   6 C    3.987 --    96 C    1.460    98 C    1.397   187 H    0.967
                           101 C    0.103
    98   6 C    3.968 --   100 C    1.400    97 C    1.397    99 C    1.031
    99   6 C    3.992 --    98 C    1.031   190 H    0.982   189 H    0.976
                           188 H    0.961
   100   6 C    3.988 --   101 C    1.458    98 C    1.400   191 H    0.967
                            96 C    0.102
   101   6 C    3.970 --   100 C    1.458    95 C    1.373   192 H    0.967
                            97 C    0.103
   102   6 C    3.956 --   103 C    1.376   108 C    1.372    94 N    1.020
   103   6 C    3.977 --   104 C    1.455   102 C    1.376   193 H    0.966
                           107 C    0.102
   104   6 C    3.989 --   103 C    1.455   105 C    1.403   194 H    0.967
                           108 C    0.105
   105   6 C    3.976 --   104 C    1.403   107 C    1.397   106 C    1.030
   106   6 C    3.993 --   105 C    1.030   195 H    0.981   197 H    0.979
                           196 H    0.963
   107   6 C    3.989 --   108 C    1.461   105 C    1.397   198 H    0.968
                           103 C    0.102
   108   6 C    3.985 --   107 C    1.461   102 C    1.372   199 H    0.964
                           104 C    0.105
   109   6 C    3.925 --    90 C    1.348    93 C    1.247   110 S    1.100
   110  16 S    2.529 --   109 C    1.100    73 C    1.087
   111   6 C    3.939 --   112 C    1.421    92 C    1.363   200 H    0.945
   112   6 C    3.949 --   111 C    1.421   123 C    1.181   113 C    1.060
   113   6 C    3.911 --   114 O    1.719   112 C    1.060   115 C    1.003
   114   8 O    1.994 --   113 C    1.719
   115   6 C    3.973 --   116 C    1.432   122 C    1.295   113 C    1.003
   116   6 C    3.968 --   115 C    1.432   117 C    1.377   201 H    0.957
   117   6 C    3.904 --   116 C    1.377   119 C    1.355   118 Cl   0.994
   118  17 Cl   1.132 --   117 C    0.994
   119   6 C    3.874 --   121 C    1.384   117 C    1.355   120 F    0.963
   120   9 F    1.094 --   119 C    0.963
   121   6 C    3.966 --   122 C    1.407   119 C    1.384   202 H    0.955
   122   6 C    3.982 --   121 C    1.407   115 C    1.295   123 C    1.072
   123   6 C    3.951 --   124 C    1.422   112 C    1.181   122 C    1.072
   124   6 C    3.946 --   123 C    1.422   127 C    1.117   125 C    1.107
   125   6 C    3.942 --   126 N    2.735   124 C    1.107
   126   7 N    2.956 --   125 C    2.735
   127   6 C    3.940 --   128 N    2.737   124 C    1.117
   128   7 N    2.943 --   127 C    2.737
   129   1 H    0.990 --     1 C    0.949
   130   1 H    0.987 --     6 C    0.956
   131   1 H    0.991 --    11 C    0.955
   132   1 H    0.997 --    23 C    0.966
   133   1 H    0.996 --    24 C    0.966
   134   1 H    0.994 --    26 C    0.964
   135   1 H    0.994 --    26 C    0.971
   136   1 H    0.996 --    26 C    0.984
   137   1 H    0.997 --    27 C    0.968
   138   1 H    0.999 --    28 C    0.965
   139   1 H    0.998 --    30 C    0.965
   140   1 H    0.997 --    31 C    0.967
   141   1 H    0.991 --    33 C    0.959
   142   1 H    0.996 --    33 C    0.977
   143   1 H    0.997 --    33 C    0.982
   144   1 H    0.996 --    34 C    0.967
   145   1 H    0.998 --    35 C    0.966
   146   1 H    0.998 --    42 C    0.967
   147   1 H    0.998 --    43 C    0.968
   148   1 H    0.995 --    45 C    0.966
   149   1 H    0.997 --    45 C    0.984
   150   1 H    0.996 --    45 C    0.978
   151   1 H    0.998 --    46 C    0.969
   152   1 H    0.999 --    47 C    0.967
   153   1 H    0.998 --    49 C    0.965
   154   1 H    0.998 --    50 C    0.962
   155   1 H    0.997 --    52 C    0.982
   156   1 H    0.996 --    52 C    0.963
   157   1 H    0.996 --    52 C    0.980
   158   1 H    0.998 --    53 C    0.967
   159   1 H    0.999 --    54 C    0.968
   160   1 H    0.998 --    64 C    0.973
   161   1 H    0.997 --    64 C    0.972
   162   1 H    0.997 --    65 C    0.985
   163   1 H    0.998 --    65 C    0.985
   164   1 H    0.997 --    65 C    0.985
   165   1 H    0.996 --    66 C    0.973
   166   1 H    0.994 --    66 C    0.969
   167   1 H    0.997 --    67 C    0.985
   168   1 H    0.999 --    67 C    0.986
   169   1 H    0.999 --    67 C    0.987
   170   1 H    0.995 --    69 C    0.958
   171   1 H    0.993 --    70 C    0.954
   172   1 H    0.998 --    77 C    0.968
   173   1 H    0.998 --    78 C    0.968
   174   1 H    0.996 --    80 C    0.975
   175   1 H    0.995 --    80 C    0.965
   176   1 H    0.997 --    80 C    0.982
   177   1 H    0.998 --    81 C    0.968
   178   1 H    0.999 --    82 C    0.968
   179   1 H    0.999 --    84 C    0.967
   180   1 H    0.998 --    85 C    0.967
   181   1 H    0.997 --    87 C    0.974
   182   1 H    0.994 --    87 C    0.967
   183   1 H    0.998 --    87 C    0.985
   184   1 H    0.997 --    88 C    0.968
   185   1 H    0.998 --    89 C    0.968
   186   1 H    0.998 --    96 C    0.967
   187   1 H    0.996 --    97 C    0.967
   188   1 H    0.993 --    99 C    0.961
   189   1 H    0.995 --    99 C    0.976
   190   1 H    0.996 --    99 C    0.982
   191   1 H    0.996 --   100 C    0.967
   192   1 H    0.997 --   101 C    0.967
   193   1 H    0.997 --   103 C    0.966
   194   1 H    0.997 --   104 C    0.967
   195   1 H    0.996 --   106 C    0.981
   196   1 H    0.994 --   106 C    0.963
   197   1 H    0.996 --   106 C    0.979
   198   1 H    0.997 --   107 C    0.968
   199   1 H    0.998 --   108 C    0.964
   200   1 H    0.993 --   111 C    0.945
   201   1 H    0.988 --   116 C    0.957
   202   1 H    0.991 --   121 C    0.955
 ---------------------------------------------------------------------------

Topologies differ in bond orders
Writing corrected topology to xtbtopo.mol

molecular dipole:
                 x           y           z       tot (Debye)
 q only:       -4.819      -3.660       6.714
   full:       -4.410      -3.165       6.139      20.829
molecular quadrupole (traceless):
                xx          xy          yy          xz          yz          zz
 q only:     -123.022     -11.283      83.578    -136.239      11.013      39.444
  q+dip:     -102.602      10.270      71.083    -109.000      19.931      31.519
   full:     -100.568       9.903      69.530    -107.577      17.339      31.038


           -------------------------------------------------
          | TOTAL ENERGY             -340.718651624843 Eh   |
          | GRADIENT NORM               0.046054712709 Eh/α |
          | HOMO-LUMO GAP               0.459723267547 eV   |
           -------------------------------------------------

------------------------------------------------------------------------
 * finished run on 2022/02/11 at 18:05:27.233     
------------------------------------------------------------------------
 total:
 * wall-time:     0 d,  0 h,  0 min,  1.023 sec
 *  cpu-time:     0 d,  0 h,  0 min,  8.047 sec
 * ratio c/w:     7.866 speedup
 SCF:
 * wall-time:     0 d,  0 h,  0 min,  0.926 sec
 *  cpu-time:     0 d,  0 h,  0 min,  7.387 sec
 * ratio c/w:     7.975 speedup

