      -----------------------------------------------------------      
     |                   =====================                   |     
     |                           x T B                           |     
     |                   =====================                   |     
     |                         S. Grimme                         |     
     |          Mulliken Center for Theoretical Chemistry        |     
     |                    University of Bonn                     |     
      -----------------------------------------------------------      

   * xtb version 6.4.1 (unknown) compiled by 'oda6@login1.crc.pitt.edu' on 2021-06-25

   xtb is free software: you can redistribute it and/or modify it under
   the terms of the GNU Lesser General Public License as published by
   the Free Software Foundation, either version 3 of the License, or
   (at your option) any later version.
   
   xtb is distributed in the hope that it will be useful,
   but WITHOUT ANY WARRANTY; without even the implied warranty of
   MERCHANTABILITY or FITNESS FOR A PARTICULAR PURPOSE.  See the
   GNU Lesser General Public License for more details.
   
   Cite this work as:
   * C. Bannwarth, E. Caldeweyher, S. Ehlert, A. Hansen, P. Pracht,
     J. Seibert, S. Spicher, S. Grimme, WIREs Comput. Mol. Sci., 2020, 11,
     e01493. DOI: 10.1002/wcms.1493
   
   for GFN2-xTB:
   * C. Bannwarth, S. Ehlert and S. Grimme., J. Chem. Theory Comput., 2019,
     15, 1652-1671. DOI: 10.1021/acs.jctc.8b01176
   for GFN1-xTB:
   * S. Grimme, C. Bannwarth, P. Shushkov, J. Chem. Theory Comput., 2017,
     13, 1989-2009. DOI: 10.1021/acs.jctc.7b00118
   for GFN0-xTB:
   * P. Pracht, E. Caldeweyher, S. Ehlert, S. Grimme, ChemRxiv, 2019, preprint.
     DOI: 10.26434/chemrxiv.8326202.v1
   for GFN-FF:
   * S. Spicher and S. Grimme, Angew. Chem. Int. Ed., 2020, 59, 15665-15673.
     DOI: 10.1002/anie.202004239
   
   for DFT-D4:
   * E. Caldeweyher, C. Bannwarth and S. Grimme, J. Chem. Phys., 2017,
     147, 034112. DOI: 10.1063/1.4993215
   * E. Caldeweyher, S. Ehlert, A. Hansen, H. Neugebauer, S. Spicher,
     C. Bannwarth and S. Grimme, J. Chem. Phys., 2019, 150, 154122.
     DOI: 10.1063/1.5090222
   * E. Caldeweyher, J.-M. Mewes, S. Ehlert and S. Grimme, Phys. Chem. Chem. Phys.
     2020, 22, 8499-8512. DOI: 10.1039/D0CP00502A
   
   for sTDA-xTB:
   * S. Grimme and C. Bannwarth, J. Chem. Phys., 2016, 145, 054103.
     DOI: 10.1063/1.4959605
   
   in the mass-spec context:
   * V. Asgeirsson, C. Bauer and S. Grimme, Chem. Sci., 2017, 8, 4879.
     DOI: 10.1039/c7sc00601b
   * J. Koopman and S. Grimme, ACS Omega 2019, 4, 12, 15120-15133.
     DOI: 10.1021/acsomega.9b02011
   
   for metadynamics refer to:
   * S. Grimme, J. Chem. Theory Comput., 2019, 155, 2847-2862
     DOI: 10.1021/acs.jctc.9b00143
   
   for SPH calculations refer to:
   * S. Spicher and S. Grimme, J. Chem. Theory Comput., 2021, 17, 1701-1714
     DOI: 10.1021/acs.jctc.0c01306
   
   with help from (in alphabetical order)
   P. Atkinson, C. Bannwarth, F. Bohle, G. Brandenburg, E. Caldeweyher
   M. Checinski, S. Dohm, S. Ehlert, S. Ehrlich, I. Gerasimov, J. Koopman
   C. Lavigne, S. Lehtola, F. März, M. Müller, F. Musil, H. Neugebauer
   J. Pisarek, C. Plett, P. Pracht, J. Seibert, P. Shushkov, S. Spicher
   M. Stahn, M. Steiner, T. Strunk, J. Stückrath, T. Rose, and J. Unsleber
   
 * started run on 2022/02/14 at 02:49:49.337     

           -------------------------------------------------
          |                Calculation Setup                |
           -------------------------------------------------

          program call               : /ihome/ghutchison/oda6/xtb/xtb-641/bin/xtb ../../GFN2_output/20_130_130_132_20.mol --sp --alpb water
          hostname                   : smp-n25
          coordinate file            : ../../GFN2_output/20_130_130_132_20.mol
          omp threads                :                     8
          number of atoms            :                   223
          number of electrons        :                   686
          charge                     :                     0
          spin                       :                   0.0
          first test random number   :      0.82527525217663

   ID    Z sym.   atoms
    1    6 C      1, 2, 4-6, 8, 11, 12, 14-21, 23-26, 28-34, 36-39, 41, 42,
                  44-47, 49-55, 57-60, 62, 63, 65-68, 70-76, 78-81, 83, 84,
                  86-89, 91-97, 99-102, 104, 105, 107, 108, 110, 111,
                  113-116, 119-123, 125-127, 129, 132-134, 136, 137
    2    7 N      3, 7, 9, 22, 43, 64, 85, 106, 112, 128, 130, 131
    3   16 S      10, 27, 35, 40, 48, 56, 61, 69, 77, 82, 90, 98, 103, 124
    4    8 O      13, 109, 135
    5    9 F      117, 118
    6    1 H      138-223

           -------------------------------------------------
          |                 G F N 2 - x T B                 |
           -------------------------------------------------

        Reference                      10.1021/acs.jctc.8b01176
      * Hamiltonian:
        H0-scaling (s, p, d)           1.850000    2.230000    2.230000
        zeta-weighting                 0.500000
      * Dispersion:
        s8                             2.700000
        a1                             0.520000
        a2                             5.000000
        s9                             5.000000
      * Repulsion:
        kExp                           1.500000    1.000000
        rExp                           1.000000
      * Coulomb:
        alpha                          2.000000
        third order                    shell-resolved
        anisotropic                    true
        a3                             3.000000
        a5                             4.000000
        cn-shift                       1.200000
        cn-exp                         4.000000
        max-rad                        5.000000

      * Solvation model:               ALPB
        Solvent                        water
        Parameter file                 internal GFN2-xTB/ALPB
        Dielectric constant                8.0200E+01
        Reference state                gsolv [1 M gas/solution]
        Free energy shift                  1.0808E-03 Eh       6.7819E-01 kcal/mol
        Temperature                        2.9815E+02 K
        Density                            1.0000E+00 kg/L
        Solvent mass                       1.8000E+01 g/mol
        Interaction kernel             P16
        Born radius scaling (c1)           1.4744E+00
        Born radii integrator          GBOBC
        Born offset                        0.0000E+00 a0       0.0000E+00 AA
        H-bond correction              true
        Ion screening                  false
        Surface tension                    1.0000E-05 Eh       1.5569E+01 dyn/cm
        Grid points                               230 per atom

          ...................................................
          :                      SETUP                      :
          :.................................................:
          :  # basis functions                 718          :
          :  # atomic orbitals                 704          :
          :  # shells                          374          :
          :  # electrons                       686          :
          :  max. iterations                   250          :
          :  Hamiltonian                  GFN2-xTB          :
          :  restarted?                      false          :
          :  GBSA solvation                   true          :
          :  PC potential                    false          :
          :  electronic temp.          300.0000000     K    :
          :  accuracy                    1.0000000          :
          :  -> integral cutoff          0.2500000E+02      :
          :  -> integral neglect         0.1000000E-07      :
          :  -> SCF convergence          0.1000000E-05 Eh   :
          :  -> wf. convergence          0.1000000E-03 e    :
          :  Broyden damping             0.4000000          :
          ...................................................

 iter      E             dE          RMSdq      gap      omega  full diag
   1   -378.3284205 -0.378328E+03  0.457E+00    0.89       0.0  T
   2   -378.6418409 -0.313420E+00  0.263E+00    0.80       1.0  T
   3   -378.5095437  0.132297E+00  0.135E+00    0.79       1.0  T
   4   -378.7223477 -0.212804E+00  0.469E-01    0.68       1.0  T
   5   -378.7415362 -0.191885E-01  0.204E-01    0.67       1.0  T
   6   -378.7433074 -0.177115E-02  0.916E-02    0.69       1.0  T
   7   -378.7441078 -0.800402E-03  0.340E-02    0.69       1.0  T
   8   -378.7441540 -0.462360E-04  0.211E-02    0.70       1.0  T
   9   -378.7441830 -0.290543E-04  0.106E-02    0.70       1.0  T
  10   -378.7441880 -0.500120E-05  0.516E-03    0.70       1.3  T
  11   -378.7441897 -0.166215E-05  0.273E-03    0.70       2.5  T
  12   -378.7441899 -0.218631E-06  0.160E-03    0.70       4.2  T
  13   -378.7441901 -0.124235E-06  0.812E-04    0.70       8.2  T
  14   -378.7441901 -0.472653E-07  0.420E-04    0.70      15.9  T

   *** convergence criteria satisfied after 14 iterations ***

         #    Occupation            Energy/Eh            Energy/eV
      -------------------------------------------------------------
         1        2.0000           -0.8535160             -23.2254
       ...           ...                  ...                  ...
       337        2.0000           -0.3660672              -9.9612
       338        2.0000           -0.3645592              -9.9202
       339        2.0000           -0.3618717              -9.8470
       340        2.0000           -0.3520082              -9.5786
       341        2.0000           -0.3506083              -9.5405
       342        2.0000           -0.3494151              -9.5081
       343        2.0000           -0.3446306              -9.3779 (HOMO)
       344        0.0000           -0.3187241              -8.6729 (LUMO)
       345        0.0000           -0.3172544              -8.6329
       346                         -0.3146167              -8.5612
       347                         -0.2877856              -7.8310
       348                         -0.2765301              -7.5248
       ...                                ...                  ...
       704                          1.1586974              31.5298
      -------------------------------------------------------------
                  HL-Gap            0.0259065 Eh            0.7050 eV
             Fermi-level           -0.3317701 Eh           -9.0279 eV

 SCC (total)                   0 d,  0 h,  0 min,  3.578 sec
 SCC setup                      ...        0 min,  0.011 sec (  0.320%)
 Dispersion                     ...        0 min,  0.015 sec (  0.416%)
 classical contributions        ...        0 min,  0.001 sec (  0.036%)
 integral evaluation            ...        0 min,  0.072 sec (  2.022%)
 iterations                     ...        0 min,  3.247 sec ( 90.740%)
 molecular gradient             ...        0 min,  0.225 sec (  6.282%)
 printout                       ...        0 min,  0.006 sec (  0.181%)

         :::::::::::::::::::::::::::::::::::::::::::::::::::::
         ::                     SUMMARY                     ::
         :::::::::::::::::::::::::::::::::::::::::::::::::::::
         :: total energy            -373.110790910173 Eh    ::
         :: total w/o Gsasa/hb      -373.091971514357 Eh    ::
         :: gradient norm              0.040374047268 Eh/a0 ::
         :: HOMO-LUMO gap              0.704952524928 eV    ::
         ::.................................................::
         :: SCC energy              -378.744190098325 Eh    ::
         :: -> isotropic ES            0.231439441199 Eh    ::
         :: -> anisotropic ES          0.020348557959 Eh    ::
         :: -> anisotropic XC          0.222239261326 Eh    ::
         :: -> dispersion             -0.415901250955 Eh    ::
         :: -> Gsolv                  -0.065892460523 Eh    ::
         ::    -> Gelec               -0.047073064706 Eh    ::
         ::    -> Gsasa               -0.009683399135 Eh    ::
         ::    -> Ghb                 -0.010216756379 Eh    ::
         ::    -> Gshift               0.001080759698 Eh    ::
         :: repulsion energy           5.615417046435 Eh    ::
         :: add. restraining           0.000000000000 Eh    ::
         :: total charge              -0.000000001703 e     ::
         :::::::::::::::::::::::::::::::::::::::::::::::::::::

           -------------------------------------------------
          |                Property Printout                |
           -------------------------------------------------

    * Orbital Energies and Occupations

         #    Occupation            Energy/Eh            Energy/eV
      -------------------------------------------------------------
         1        2.0000           -0.8535160             -23.2254
       ...           ...                  ...                  ...
       331        2.0000           -0.3844092             -10.4603
       332        2.0000           -0.3835295             -10.4364
       333        2.0000           -0.3812178             -10.3735
       334        2.0000           -0.3767992             -10.2532
       335        2.0000           -0.3714635             -10.1080
       336        2.0000           -0.3677121             -10.0060
       337        2.0000           -0.3660672              -9.9612
       338        2.0000           -0.3645592              -9.9202
       339        2.0000           -0.3618717              -9.8470
       340        2.0000           -0.3520082              -9.5786
       341        2.0000           -0.3506083              -9.5405
       342        2.0000           -0.3494151              -9.5081
       343        2.0000           -0.3446306              -9.3779 (HOMO)
       344        0.0000           -0.3187241              -8.6729 (LUMO)
       345        0.0000           -0.3172544              -8.6329
       346                         -0.3146167              -8.5612
       347                         -0.2877856              -7.8310
       348                         -0.2765301              -7.5248
       349                         -0.2750438              -7.4843
       350                         -0.2691884              -7.3250
       351                         -0.2637008              -7.1757
       352                         -0.2563309              -6.9751
       353                         -0.2561993              -6.9715
       354                         -0.2492492              -6.7824
       ...                                ...                  ...
       704                          1.1586974              31.5298
      -------------------------------------------------------------
                  HL-Gap            0.0259065 Eh            0.7050 eV
             Fermi-level           -0.3317701 Eh           -9.0279 eV

     #   Z          covCN         q      C6AA      α(0)
     1   6 C        3.752    -0.119    22.840     6.815
     2   6 C        3.745     0.005    20.555     6.467
     3   7 N        2.848    -0.053    22.258     7.007
     4   6 C        2.933     0.122    25.331     8.254
     5   6 C        3.003    -0.031    28.758     8.797
     6   6 C        1.940     0.128    27.954     8.538
     7   7 N        0.911    -0.290    27.477     7.581
     8   6 C        1.923     0.129    27.936     8.536
     9   7 N        0.911    -0.301    27.747     7.618
    10  16 S        2.255    -0.040   142.708    20.106
    11   6 C        2.962    -0.019    28.479     8.753
    12   6 C        2.893     0.278    22.307     7.744
    13   8 O        0.858    -0.455    22.808     6.403
    14   6 C        3.001     0.048    26.903     8.508
    15   6 C        2.903    -0.040    28.983     8.827
    16   6 C        2.905    -0.011    28.296     8.722
    17   6 C        3.884    -0.017    20.825     6.488
    18   6 C        3.812    -0.062    21.674     6.627
    19   6 C        3.813    -0.072    21.859     6.655
    20   6 C        3.003     0.006    27.882     8.662
    21   6 C        3.075     0.040    27.022     8.523
    22   7 N        2.748    -0.072    22.645     7.068
    23   6 C        2.930     0.061    26.625     8.462
    24   6 C        2.924    -0.050    29.234     8.867
    25   6 C        2.971    -0.042    29.029     8.838
    26   6 C        2.967     0.043    27.026     8.527
    27  16 S        2.027    -0.218   150.351    20.637
    28   6 C        3.744    -0.057    21.681     6.642
    29   6 C        2.949    -0.039    28.970     8.828
    30   6 C        2.923    -0.049    29.223     8.865
    31   6 C        2.919     0.063    26.596     8.457
    32   6 C        2.924    -0.051    29.272     8.873
    33   6 C        2.941    -0.046    29.130     8.852
    34   6 C        2.965     0.039    27.116     8.541
    35  16 S        2.030    -0.229   150.831    20.670
    36   6 C        3.744    -0.051    21.560     6.624
    37   6 C        2.982    -0.039    28.968     8.829
    38   6 C        2.923    -0.046    29.147     8.853
    39   6 C        3.194     0.004    27.417     8.538
    40  16 S        2.421    -0.079   144.344    20.221
    41   6 C        3.055    -0.006    28.110     8.695
    42   6 C        3.048     0.046    26.933     8.512
    43   7 N        2.747    -0.067    22.534     7.050
    44   6 C        2.919     0.059    26.681     8.470
    45   6 C        2.923    -0.044    29.102     8.847
    46   6 C        2.985    -0.040    28.976     8.830
    47   6 C        2.965     0.044    27.021     8.526
    48  16 S        2.034    -0.197   149.425    20.574
    49   6 C        3.744    -0.062    21.758     6.654
    50   6 C        2.941    -0.047    29.159     8.856
    51   6 C        2.923    -0.051    29.277     8.873
    52   6 C        2.931     0.056    26.740     8.481
    53   6 C        2.928    -0.044    29.088     8.845
    54   6 C        2.944    -0.043    29.077     8.844
    55   6 C        2.966     0.047    26.949     8.515
    56  16 S        2.032    -0.196   149.388    20.571
    57   6 C        3.744    -0.063    21.778     6.657
    58   6 C        2.981    -0.043    29.064     8.843
    59   6 C        2.921    -0.046    29.135     8.852
    60   6 C        3.187    -0.005    27.673     8.583
    61  16 S        2.286    -0.043   142.823    20.114
    62   6 C        3.055    -0.001    28.008     8.679
    63   6 C        3.056     0.044    26.969     8.517
    64   7 N        2.748    -0.069    22.568     7.056
    65   6 C        2.918     0.060    26.646     8.465
    66   6 C        2.923    -0.052    29.295     8.876
    67   6 C        2.941    -0.046    29.130     8.852
    68   6 C        2.965     0.042    27.056     8.532
    69  16 S        2.031    -0.197   149.437    20.575
    70   6 C        3.744    -0.061    21.749     6.653
    71   6 C        2.981    -0.039    28.969     8.829
    72   6 C        2.924    -0.046    29.131     8.851
    73   6 C        2.937     0.057    26.713     8.477
    74   6 C        2.923    -0.047    29.168     8.857
    75   6 C        2.943    -0.046    29.150     8.855
    76   6 C        2.966     0.046    26.963     8.517
    77  16 S        2.034    -0.194   149.296    20.565
    78   6 C        3.744    -0.064    21.809     6.662
    79   6 C        2.984    -0.036    28.885     8.816
    80   6 C        2.927    -0.039    28.976     8.828
    81   6 C        3.191    -0.000    27.531     8.558
    82  16 S        2.285    -0.039   142.654    20.102
    83   6 C        3.005    -0.002    28.059     8.689
    84   6 C        3.057     0.050    26.833     8.495
    85   7 N        2.748    -0.062    22.446     7.037
    86   6 C        2.926     0.059    26.676     8.470
    87   6 C        2.924    -0.048    29.199     8.861
    88   6 C        2.946    -0.044    29.097     8.847
    89   6 C        2.967     0.045    26.989     8.521
    90  16 S        2.034    -0.195   149.332    20.567
    91   6 C        3.744    -0.060    21.725     6.649
    92   6 C        2.981    -0.041    29.009     8.835
    93   6 C        2.923    -0.043    29.066     8.841
    94   6 C        2.925     0.056    26.735     8.479
    95   6 C        2.923    -0.051    29.275     8.873
    96   6 C        2.980    -0.046    29.130     8.853
    97   6 C        2.966     0.039    27.134     8.544
    98  16 S        2.031    -0.188   149.022    20.546
    99   6 C        3.744    -0.064    21.800     6.660
   100   6 C        2.944    -0.047    29.158     8.856
   101   6 C        2.924    -0.046    29.142     8.853
   102   6 C        3.174    -0.002    27.668     8.591
   103  16 S        2.423    -0.077   144.239    20.214
   104   6 C        3.005    -0.014    28.350     8.734
   105   6 C        2.976     0.057    26.713     8.478
   106   7 N        1.860    -0.205    26.289     7.600
   107   6 C        2.893     0.039    27.134     8.541
   108   6 C        2.852     0.233    23.120     7.881
   109   8 O        1.706    -0.248    18.115     5.746
   110   6 C        3.706     0.077    19.428     6.301
   111   6 C        3.751    -0.128    23.015     6.842
   112   7 N        1.843    -0.271    27.883     7.826
   113   6 C        2.972     0.073    26.355     8.421
   114   6 C        2.976    -0.016    28.409     8.743
   115   6 C        2.781     0.143    24.875     8.169
   116   6 C        2.781     0.136    25.019     8.193
   117   9 F        0.787    -0.229    11.539     4.013
   118   9 F        0.787    -0.226    11.506     4.007
   119   6 C        3.864    -0.006    20.652     6.463
   120   6 C        2.905     0.005    27.918     8.664
   121   6 C        2.902    -0.040    28.988     8.828
   122   6 C        2.998     0.052    26.816     8.495
   123   6 C        2.963    -0.020    28.492     8.755
   124  16 S        2.250    -0.044   142.868    20.117
   125   6 C        2.930     0.116    25.455     8.274
   126   6 C        3.002    -0.034    28.829     8.808
   127   6 C        1.939     0.127    27.984     8.543
   128   7 N        0.911    -0.292    27.519     7.587
   129   6 C        1.923     0.128    27.956     8.539
   130   7 N        0.911    -0.299    27.698     7.612
   131   7 N        2.847    -0.055    22.291     7.012
   132   6 C        3.744     0.000    20.649     6.482
   133   6 C        3.752    -0.120    22.867     6.819
   134   6 C        2.891     0.274    22.379     7.756
   135   8 O        0.858    -0.452    22.738     6.393
   136   6 C        3.814    -0.073    21.876     6.657
   137   6 C        3.814    -0.057    21.586     6.613
   138   1 H        0.925     0.060     2.194     2.316
   139   1 H        0.925     0.073     2.056     2.242
   140   1 H        0.925     0.046     2.369     2.407
   141   1 H        0.924     0.063     2.167     2.302
   142   1 H        0.924     0.085     1.925     2.170
   143   1 H        0.926     0.071     2.078     2.254
   144   1 H        0.926     0.064     2.158     2.297
   145   1 H        0.923     0.094     1.843     2.123
   146   1 H        0.924     0.052     2.298     2.371
   147   1 H        0.924     0.070     2.091     2.261
   148   1 H        0.924     0.072     2.060     2.245
   149   1 H        0.924     0.093     1.853     2.129
   150   1 H        0.926     0.038     2.472     2.459
   151   1 H        0.926     0.046     2.370     2.407
   152   1 H        0.925     0.077     2.009     2.217
   153   1 H        0.925     0.067     2.121     2.278
   154   1 H        0.925     0.064     2.154     2.295
   155   1 H        0.926     0.050     2.324     2.384
   156   1 H        0.926     0.039     2.456     2.451
   157   1 H        0.925     0.041     2.434     2.440
   158   1 H        0.926     0.052     2.295     2.369
   159   1 H        0.925     0.070     2.086     2.259
   160   1 H        0.925     0.074     2.040     2.234
   161   1 H        0.925     0.063     2.162     2.299
   162   1 H        0.926     0.032     2.559     2.502
   163   1 H        0.926     0.045     2.380     2.413
   164   1 H        0.926     0.043     2.415     2.430
   165   1 H        0.926     0.045     2.380     2.412
   166   1 H        0.925     0.081     1.970     2.195
   167   1 H        0.925     0.065     2.137     2.286
   168   1 H        0.925     0.070     2.084     2.258
   169   1 H        0.926     0.045     2.385     2.415
   170   1 H        0.926     0.030     2.585     2.514
   171   1 H        0.926     0.031     2.567     2.505
   172   1 H        0.926     0.056     2.246     2.343
   173   1 H        0.925     0.070     2.088     2.260
   174   1 H        0.925     0.080     1.977     2.199
   175   1 H        0.925     0.074     2.044     2.235
   176   1 H        0.926     0.050     2.324     2.384
   177   1 H        0.926     0.044     2.401     2.423
   178   1 H        0.926     0.027     2.633     2.537
   179   1 H        0.926     0.045     2.388     2.417
   180   1 H        0.925     0.066     2.131     2.283
   181   1 H        0.925     0.066     2.130     2.283
   182   1 H        0.925     0.081     1.969     2.194
   183   1 H        0.926     0.046     2.375     2.410
   184   1 H        0.926     0.041     2.431     2.438
   185   1 H        0.926     0.045     2.381     2.413
   186   1 H        0.926     0.053     2.278     2.360
   187   1 H        0.925     0.070     2.082     2.256
   188   1 H        0.925     0.083     1.947     2.182
   189   1 H        0.925     0.068     2.106     2.269
   190   1 H        0.926     0.048     2.350     2.397
   191   1 H        0.926     0.031     2.569     2.507
   192   1 H        0.926     0.044     2.401     2.423
   193   1 H        0.926     0.056     2.248     2.345
   194   1 H        0.925     0.072     2.065     2.247
   195   1 H        0.925     0.069     2.098     2.265
   196   1 H        0.925     0.081     1.972     2.196
   197   1 H        0.926     0.045     2.384     2.415
   198   1 H        0.926     0.034     2.527     2.486
   199   1 H        0.926     0.037     2.489     2.467
   200   1 H        0.926     0.045     2.387     2.416
   201   1 H        0.925     0.067     2.118     2.276
   202   1 H        0.925     0.088     1.900     2.156
   203   1 H        0.925     0.070     2.087     2.259
   204   1 H        0.926     0.055     2.257     2.349
   205   1 H        0.926     0.043     2.404     2.425
   206   1 H        0.926     0.085     1.928     2.171
   207   1 H        0.924     0.052     2.301     2.372
   208   1 H        0.924     0.064     2.149     2.292
   209   1 H        0.925     0.066     2.130     2.282
   210   1 H        0.925     0.065     2.145     2.290
   211   1 H        0.925     0.071     2.070     2.250
   212   1 H        0.923     0.087     1.910     2.161
   213   1 H        0.926     0.070     2.086     2.259
   214   1 H        0.926     0.078     1.996     2.209
   215   1 H        0.924     0.092     1.859     2.132
   216   1 H        0.924     0.065     2.140     2.288
   217   1 H        0.925     0.045     2.384     2.415
   218   1 H        0.925     0.074     2.044     2.236
   219   1 H        0.925     0.061     2.186     2.312
   220   1 H        0.924     0.074     2.041     2.234
   221   1 H        0.924     0.093     1.852     2.128
   222   1 H        0.924     0.055     2.256     2.349
   223   1 H        0.924     0.059     2.215     2.327

 Mol. C6AA /au·bohr⁶  :     850377.079559
 Mol. C8AA /au·bohr⁸  :   24313178.374301
 Mol. α(0) /au        :       1474.689843


Wiberg/Mayer (AO) data.
largest (>0.10) Wiberg bond orders for each atom

 ---------------------------------------------------------------------------
     #   Z sym  total        # sym  WBO       # sym  WBO       # sym  WBO
 ---------------------------------------------------------------------------
     1   6 C    3.987 --     2 C    1.008   138 H    0.985   140 H    0.984
                           139 H    0.979
     2   6 C    3.948 --     1 C    1.008   141 H    0.961   142 H    0.961
                             3 N    0.960
     3   7 N    3.601 --     4 C    1.213    12 C    1.107     2 C    0.960
                            13 O    0.125
     4   6 C    3.956 --     5 C    1.406     3 N    1.213    10 S    1.111
     5   6 C    3.941 --     4 C    1.406     8 C    1.118     6 C    1.109
     6   6 C    3.945 --     7 N    2.749     5 C    1.109
     7   7 N    2.973 --     6 C    2.749
     8   6 C    3.946 --     9 N    2.733     5 C    1.118
     9   7 N    2.969 --     8 C    2.733
    10  16 S    2.516 --     4 C    1.111    11 C    1.040
    11   6 C    3.937 --    14 C    1.573    12 C    1.070    10 S    1.040
    12   6 C    3.939 --    13 O    1.643     3 N    1.107    11 C    1.070
    13   8 O    1.998 --    12 C    1.643     3 N    0.125
    14   6 C    3.958 --    11 C    1.573    15 C    1.144    19 C    1.023
    15   6 C    3.985 --    16 C    1.773    14 C    1.144   143 H    0.952
    16   6 C    3.958 --    15 C    1.773    17 C    1.020   144 H    0.964
    17   6 C    3.986 --    16 C    1.020    20 C    0.999    18 C    0.970
                           145 H    0.924
    18   6 C    3.982 --    19 C    0.990   147 H    0.972    17 C    0.970
                           146 H    0.966
    19   6 C    3.988 --    14 C    1.023    18 C    0.990   148 H    0.957
                           149 H    0.941
    20   6 C    3.913 --    21 C    1.532    61 S    1.131    17 C    0.999
    21   6 C    3.959 --    20 C    1.532    39 C    1.199    22 N    1.025
    22   7 N    3.469 --    31 C    1.080    23 C    1.061    21 C    1.025
    23   6 C    3.966 --    30 C    1.360    24 C    1.356    22 N    1.061
    24   6 C    3.984 --    25 C    1.466    23 C    1.356   150 H    0.965
    25   6 C    3.990 --    24 C    1.466    26 C    1.384   151 H    0.968
                            30 C    0.101
    26   6 C    3.953 --    29 C    1.388    25 C    1.384    27 S    1.027
    27  16 S    2.198 --    26 C    1.027    28 C    1.002
    28   6 C    3.968 --    27 S    1.002   154 H    0.982   153 H    0.978
                           152 H    0.977
    29   6 C    3.989 --    30 C    1.460    26 C    1.388   155 H    0.964
    30   6 C    3.986 --    29 C    1.460    23 C    1.360   156 H    0.965
                            25 C    0.101
    31   6 C    3.967 --    32 C    1.362    38 C    1.338    22 N    1.080
    32   6 C    3.984 --    33 C    1.441    31 C    1.362   157 H    0.963
    33   6 C    3.988 --    32 C    1.441    34 C    1.395   158 H    0.964
    34   6 C    3.948 --    33 C    1.395    37 C    1.362    35 S    1.032
    35  16 S    2.239 --    34 C    1.032    36 C    1.008
    36   6 C    3.968 --    35 S    1.008   160 H    0.979   159 H    0.978
                           161 H    0.977
    37   6 C    3.990 --    38 C    1.482    34 C    1.362   162 H    0.968
    38   6 C    3.987 --    37 C    1.482    31 C    1.338   163 H    0.965
    39   6 C    3.930 --    60 C    1.401    21 C    1.199    40 S    1.113
    40  16 S    2.535 --    39 C    1.113    41 C    1.076
    41   6 C    3.912 --    42 C    1.431    62 C    1.144    40 S    1.076
    42   6 C    3.950 --    41 C    1.431    60 C    1.201    43 N    1.088
    43   7 N    3.499 --    42 C    1.088    44 C    1.064    52 C    1.044
    44   6 C    3.963 --    51 C    1.370    45 C    1.343    43 N    1.064
    45   6 C    3.985 --    46 C    1.482    44 C    1.343   164 H    0.963
    46   6 C    3.990 --    45 C    1.482    47 C    1.358   165 H    0.967
                            51 C    0.100
    47   6 C    3.950 --    50 C    1.390    46 C    1.358    48 S    1.046
    48  16 S    2.250 --    47 C    1.046    49 C    1.010
    49   6 C    3.969 --    48 S    1.010   167 H    0.980   168 H    0.980
                           166 H    0.975
    50   6 C    3.988 --    51 C    1.444    47 C    1.390   169 H    0.964
    51   6 C    3.985 --    50 C    1.444    44 C    1.370   170 H    0.966
                            46 C    0.100
    52   6 C    3.960 --    53 C    1.364    59 C    1.353    43 N    1.044
    53   6 C    3.985 --    54 C    1.448    52 C    1.364   171 H    0.962
    54   6 C    3.987 --    53 C    1.448    55 C    1.388   172 H    0.962
    55   6 C    3.952 --    54 C    1.388    58 C    1.364    56 S    1.051
    56  16 S    2.254 --    55 C    1.051    57 C    1.009
    57   6 C    3.967 --    56 S    1.009   175 H    0.979   173 H    0.979
                           174 H    0.975
    58   6 C    3.988 --    59 C    1.477    55 C    1.364   176 H    0.967
    59   6 C    3.983 --    58 C    1.477    52 C    1.353   177 H    0.965
    60   6 C    3.941 --    39 C    1.401    42 C    1.201    61 S    1.109
    61  16 S    2.565 --    20 C    1.131    60 C    1.109
    62   6 C    3.904 --    63 C    1.435    41 C    1.144   103 S    1.078
    63   6 C    3.951 --    62 C    1.435    81 C    1.205    64 N    1.076
    64   7 N    3.491 --    63 C    1.076    65 C    1.072    73 C    1.040
    65   6 C    3.963 --    66 C    1.364    72 C    1.341    64 N    1.072
    66   6 C    3.985 --    67 C    1.445    65 C    1.364   178 H    0.966
    67   6 C    3.989 --    66 C    1.445    68 C    1.391   179 H    0.965
    68   6 C    3.951 --    67 C    1.391    71 C    1.362    69 S    1.041
    69  16 S    2.239 --    68 C    1.041    70 C    1.009
    70   6 C    3.969 --    69 S    1.009   180 H    0.981   181 H    0.980
                           182 H    0.975
    71   6 C    3.989 --    72 C    1.482    68 C    1.362   183 H    0.967
    72   6 C    3.985 --    71 C    1.482    65 C    1.341   184 H    0.963
    73   6 C    3.962 --    74 C    1.375    80 C    1.346    64 N    1.040
    74   6 C    3.983 --    75 C    1.448    73 C    1.375   185 H    0.965
                            79 C    0.101
    75   6 C    3.987 --    74 C    1.448    76 C    1.388   186 H    0.964
    76   6 C    3.952 --    75 C    1.388    79 C    1.369    77 S    1.045
    77  16 S    2.252 --    76 C    1.045    78 C    1.008
    78   6 C    3.968 --    77 S    1.008   189 H    0.980   187 H    0.980
                           188 H    0.975
    79   6 C    3.989 --    80 C    1.474    76 C    1.369   190 H    0.967
                            74 C    0.101
    80   6 C    3.986 --    79 C    1.474    73 C    1.346   191 H    0.963
    81   6 C    3.936 --   102 C    1.383    63 C    1.205    82 S    1.123
    82  16 S    2.601 --    81 C    1.123    83 C    1.099
    83   6 C    3.913 --    84 C    1.414   104 C    1.123    82 S    1.099
    84   6 C    3.956 --    83 C    1.414   102 C    1.215    85 N    1.097
    85   7 N    3.503 --    84 C    1.097    94 C    1.052    86 C    1.049
    86   6 C    3.961 --    87 C    1.367    93 C    1.353    85 N    1.049
    87   6 C    3.983 --    88 C    1.456    86 C    1.367   192 H    0.966
                            92 C    0.101
    88   6 C    3.987 --    87 C    1.456    89 C    1.384   193 H    0.963
    89   6 C    3.953 --    88 C    1.384    92 C    1.374    90 S    1.046
    90  16 S    2.246 --    89 C    1.046    91 C    1.007
    91   6 C    3.966 --    90 S    1.007   195 H    0.979   194 H    0.978
                           196 H    0.975
    92   6 C    3.989 --    93 C    1.469    89 C    1.374   197 H    0.968
                            87 C    0.101
    93   6 C    3.985 --    92 C    1.469    86 C    1.353   198 H    0.967
    94   6 C    3.963 --   101 C    1.370    95 C    1.348    85 N    1.052
    95   6 C    3.987 --    96 C    1.480    94 C    1.348   199 H    0.967
    96   6 C    3.989 --    95 C    1.480    97 C    1.365   200 H    0.968
    97   6 C    3.959 --   100 C    1.389    96 C    1.365    98 S    1.047
    98  16 S    2.250 --    97 C    1.047    99 C    1.007
    99   6 C    3.966 --    98 S    1.007   203 H    0.980   201 H    0.979
                           202 H    0.974
   100   6 C    3.988 --   101 C    1.449    97 C    1.389   204 H    0.963
   101   6 C    3.983 --   100 C    1.449    94 C    1.370   205 H    0.966
   102   6 C    3.929 --    81 C    1.383    84 C    1.215   103 S    1.105
   103  16 S    2.536 --   102 C    1.105    62 C    1.078
   104   6 C    3.976 --   116 C    1.385   105 C    1.215    83 C    1.123
   105   6 C    3.974 --   106 N    1.273   113 C    1.241   104 C    1.215
   106   7 N    3.101 --   107 C    1.600   105 C    1.273
   107   6 C    3.953 --   106 N    1.600   108 C    1.172   206 H    0.952
   108   6 C    3.936 --   112 N    1.443   107 C    1.172   109 O    1.157
   109   8 O    2.303 --   108 C    1.157   110 C    0.926   112 N    0.108
   110   6 C    3.914 --   111 C    1.019   207 H    0.966   208 H    0.963
                           109 O    0.926
   111   6 C    3.986 --   110 C    1.019   209 H    0.985   211 H    0.983
                           210 H    0.980
   112   7 N    3.061 --   108 C    1.443   113 C    1.274   109 O    0.108
   113   6 C    3.980 --   112 N    1.274   114 C    1.246   105 C    1.241
   114   6 C    3.956 --   115 C    1.436   113 C    1.246   119 C    0.993
   115   6 C    3.876 --   114 C    1.436   116 C    1.292   118 F    0.954
   116   6 C    3.855 --   104 C    1.385   115 C    1.292   117 F    0.952
   117   9 F    1.077 --   116 C    0.952
   118   9 F    1.079 --   115 C    0.954
   119   6 C    3.988 --   120 C    1.020   114 C    0.993   137 C    0.968
                           212 H    0.927
   120   6 C    3.951 --   121 C    1.743   119 C    1.020   213 H    0.961
   121   6 C    3.982 --   120 C    1.743   122 C    1.167   214 H    0.951
   122   6 C    3.958 --   123 C    1.550   121 C    1.167   136 C    1.023
   123   6 C    3.933 --   122 C    1.550   134 C    1.083   124 S    1.040
   124  16 S    2.522 --   125 C    1.117   123 C    1.040
   125   6 C    3.956 --   126 C    1.404   131 N    1.215   124 S    1.117
   126   6 C    3.939 --   125 C    1.404   129 C    1.119   127 C    1.107
   127   6 C    3.944 --   128 N    2.751   126 C    1.107
   128   7 N    2.974 --   127 C    2.751
   129   6 C    3.946 --   130 N    2.732   126 C    1.119
   130   7 N    2.969 --   129 C    2.732
   131   7 N    3.598 --   125 C    1.215   134 C    1.100   132 C    0.960
                           135 O    0.124
   132   6 C    3.946 --   133 C    1.007   216 H    0.962   131 N    0.960
                           215 H    0.960
   133   6 C    3.987 --   132 C    1.007   219 H    0.985   217 H    0.985
                           218 H    0.979
   134   6 C    3.941 --   135 O    1.638   131 N    1.100   123 C    1.083
   135   8 O    1.999 --   134 C    1.638   131 N    0.124
   136   6 C    3.989 --   122 C    1.023   137 C    0.994   220 H    0.956
                           221 H    0.939
   137   6 C    3.985 --   136 C    0.994   222 H    0.975   223 H    0.975
                           119 C    0.968
   138   1 H    0.996 --     1 C    0.985
   139   1 H    0.994 --     1 C    0.979
   140   1 H    0.998 --     1 C    0.984
   141   1 H    0.995 --     2 C    0.961
   142   1 H    0.992 --     2 C    0.961
   143   1 H    0.994 --    15 C    0.952
   144   1 H    0.994 --    16 C    0.964
   145   1 H    0.985 --    17 C    0.924
   146   1 H    0.997 --    18 C    0.966
   147   1 H    0.994 --    18 C    0.972
   148   1 H    0.993 --    19 C    0.957
   149   1 H    0.989 --    19 C    0.941
   150   1 H    0.998 --    24 C    0.965
   151   1 H    0.997 --    25 C    0.968
   152   1 H    0.993 --    28 C    0.977
   153   1 H    0.995 --    28 C    0.978
   154   1 H    0.996 --    28 C    0.982
   155   1 H    0.997 --    29 C    0.964
   156   1 H    0.998 --    30 C    0.965
   157   1 H    0.998 --    32 C    0.963
   158   1 H    0.997 --    33 C    0.964
   159   1 H    0.995 --    36 C    0.978
   160   1 H    0.994 --    36 C    0.979
   161   1 H    0.996 --    36 C    0.977
   162   1 H    0.998 --    37 C    0.968
   163   1 H    0.998 --    38 C    0.965
   164   1 H    0.998 --    45 C    0.963
   165   1 H    0.997 --    46 C    0.967
   166   1 H    0.993 --    49 C    0.975
   167   1 H    0.995 --    49 C    0.980
   168   1 H    0.994 --    49 C    0.980
   169   1 H    0.998 --    50 C    0.964
   170   1 H    0.999 --    51 C    0.966
   171   1 H    0.999 --    53 C    0.962
   172   1 H    0.996 --    54 C    0.962
   173   1 H    0.995 --    57 C    0.979
   174   1 H    0.993 --    57 C    0.975
   175   1 H    0.994 --    57 C    0.979
   176   1 H    0.997 --    58 C    0.967
   177   1 H    0.998 --    59 C    0.965
   178   1 H    0.999 --    66 C    0.966
   179   1 H    0.998 --    67 C    0.965
   180   1 H    0.995 --    70 C    0.981
   181   1 H    0.995 --    70 C    0.980
   182   1 H    0.993 --    70 C    0.975
   183   1 H    0.997 --    71 C    0.967
   184   1 H    0.998 --    72 C    0.963
   185   1 H    0.998 --    74 C    0.965
   186   1 H    0.997 --    75 C    0.964
   187   1 H    0.994 --    78 C    0.980
   188   1 H    0.993 --    78 C    0.975
   189   1 H    0.995 --    78 C    0.980
   190   1 H    0.997 --    79 C    0.967
   191   1 H    0.999 --    80 C    0.963
   192   1 H    0.998 --    87 C    0.966
   193   1 H    0.996 --    88 C    0.963
   194   1 H    0.994 --    91 C    0.978
   195   1 H    0.995 --    91 C    0.979
   196   1 H    0.993 --    91 C    0.975
   197   1 H    0.997 --    92 C    0.968
   198   1 H    0.998 --    93 C    0.967
   199   1 H    0.998 --    95 C    0.967
   200   1 H    0.998 --    96 C    0.968
   201   1 H    0.995 --    99 C    0.979
   202   1 H    0.992 --    99 C    0.974
   203   1 H    0.995 --    99 C    0.980
   204   1 H    0.997 --   100 C    0.963
   205   1 H    0.998 --   101 C    0.966
   206   1 H    0.992 --   107 C    0.952
   207   1 H    0.997 --   110 C    0.966
   208   1 H    0.995 --   110 C    0.963
   209   1 H    0.996 --   111 C    0.985
   210   1 H    0.995 --   111 C    0.980
   211   1 H    0.995 --   111 C    0.983
   212   1 H    0.987 --   119 C    0.927
   213   1 H    0.994 --   120 C    0.961
   214   1 H    0.993 --   121 C    0.951
   215   1 H    0.991 --   132 C    0.960
   216   1 H    0.995 --   132 C    0.962
   217   1 H    0.998 --   133 C    0.985
   218   1 H    0.993 --   133 C    0.979
   219   1 H    0.996 --   133 C    0.985
   220   1 H    0.993 --   136 C    0.956
   221   1 H    0.989 --   136 C    0.939
   222   1 H    0.997 --   137 C    0.975
   223   1 H    0.996 --   137 C    0.975
 ---------------------------------------------------------------------------

Topologies differ in bond orders
Writing corrected topology to xtbtopo.mol

molecular dipole:
                 x           y           z       tot (Debye)
 q only:        1.750      -3.360       0.965
   full:        2.204      -2.906      -0.156       9.279
molecular quadrupole (traceless):
                xx          xy          yy          xz          yz          zz
 q only:       -1.873     -72.026     -19.524    -159.136     -59.264      21.397
  q+dip:      -11.965    -100.355     -14.350    -173.093     -60.617      26.315
   full:      -12.279     -96.696      -7.586    -176.500     -59.186      19.865


           -------------------------------------------------
          | TOTAL ENERGY             -373.110790910173 Eh   |
          | GRADIENT NORM               0.040374047268 Eh/α |
          | HOMO-LUMO GAP               0.704952524928 eV   |
           -------------------------------------------------

------------------------------------------------------------------------
 * finished run on 2022/02/14 at 02:49:53.083     
------------------------------------------------------------------------
 total:
 * wall-time:     0 d,  0 h,  0 min,  3.746 sec
 *  cpu-time:     0 d,  0 h,  0 min, 18.596 sec
 * ratio c/w:     4.964 speedup
 SCF:
 * wall-time:     0 d,  0 h,  0 min,  3.581 sec
 *  cpu-time:     0 d,  0 h,  0 min, 17.817 sec
 * ratio c/w:     4.975 speedup

