      -----------------------------------------------------------      
     |                   =====================                   |     
     |                           x T B                           |     
     |                   =====================                   |     
     |                         S. Grimme                         |     
     |          Mulliken Center for Theoretical Chemistry        |     
     |                    University of Bonn                     |     
      -----------------------------------------------------------      

   * xtb version 6.4.1 (unknown) compiled by 'oda6@login1.crc.pitt.edu' on 2021-06-25

   xtb is free software: you can redistribute it and/or modify it under
   the terms of the GNU Lesser General Public License as published by
   the Free Software Foundation, either version 3 of the License, or
   (at your option) any later version.
   
   xtb is distributed in the hope that it will be useful,
   but WITHOUT ANY WARRANTY; without even the implied warranty of
   MERCHANTABILITY or FITNESS FOR A PARTICULAR PURPOSE.  See the
   GNU Lesser General Public License for more details.
   
   Cite this work as:
   * C. Bannwarth, E. Caldeweyher, S. Ehlert, A. Hansen, P. Pracht,
     J. Seibert, S. Spicher, S. Grimme, WIREs Comput. Mol. Sci., 2020, 11,
     e01493. DOI: 10.1002/wcms.1493
   
   for GFN2-xTB:
   * C. Bannwarth, S. Ehlert and S. Grimme., J. Chem. Theory Comput., 2019,
     15, 1652-1671. DOI: 10.1021/acs.jctc.8b01176
   for GFN1-xTB:
   * S. Grimme, C. Bannwarth, P. Shushkov, J. Chem. Theory Comput., 2017,
     13, 1989-2009. DOI: 10.1021/acs.jctc.7b00118
   for GFN0-xTB:
   * P. Pracht, E. Caldeweyher, S. Ehlert, S. Grimme, ChemRxiv, 2019, preprint.
     DOI: 10.26434/chemrxiv.8326202.v1
   for GFN-FF:
   * S. Spicher and S. Grimme, Angew. Chem. Int. Ed., 2020, 59, 15665-15673.
     DOI: 10.1002/anie.202004239
   
   for DFT-D4:
   * E. Caldeweyher, C. Bannwarth and S. Grimme, J. Chem. Phys., 2017,
     147, 034112. DOI: 10.1063/1.4993215
   * E. Caldeweyher, S. Ehlert, A. Hansen, H. Neugebauer, S. Spicher,
     C. Bannwarth and S. Grimme, J. Chem. Phys., 2019, 150, 154122.
     DOI: 10.1063/1.5090222
   * E. Caldeweyher, J.-M. Mewes, S. Ehlert and S. Grimme, Phys. Chem. Chem. Phys.
     2020, 22, 8499-8512. DOI: 10.1039/D0CP00502A
   
   for sTDA-xTB:
   * S. Grimme and C. Bannwarth, J. Chem. Phys., 2016, 145, 054103.
     DOI: 10.1063/1.4959605
   
   in the mass-spec context:
   * V. Asgeirsson, C. Bauer and S. Grimme, Chem. Sci., 2017, 8, 4879.
     DOI: 10.1039/c7sc00601b
   * J. Koopman and S. Grimme, ACS Omega 2019, 4, 12, 15120-15133.
     DOI: 10.1021/acsomega.9b02011
   
   for metadynamics refer to:
   * S. Grimme, J. Chem. Theory Comput., 2019, 155, 2847-2862
     DOI: 10.1021/acs.jctc.9b00143
   
   for SPH calculations refer to:
   * S. Spicher and S. Grimme, J. Chem. Theory Comput., 2021, 17, 1701-1714
     DOI: 10.1021/acs.jctc.0c01306
   
   with help from (in alphabetical order)
   P. Atkinson, C. Bannwarth, F. Bohle, G. Brandenburg, E. Caldeweyher
   M. Checinski, S. Dohm, S. Ehlert, S. Ehrlich, I. Gerasimov, J. Koopman
   C. Lavigne, S. Lehtola, F. März, M. Müller, F. Musil, H. Neugebauer
   J. Pisarek, C. Plett, P. Pracht, J. Seibert, P. Shushkov, S. Spicher
   M. Stahn, M. Steiner, T. Strunk, J. Stückrath, T. Rose, and J. Unsleber
   
 * started run on 2022/02/06 at 02:23:28.472     

           -------------------------------------------------
          |                Calculation Setup                |
           -------------------------------------------------

          program call               : /ihome/ghutchison/oda6/xtb/xtb-641/bin/xtb ../../GFN2_output/25_143_130_130_25.mol --sp --alpb water
          hostname                   : smp-n57
          coordinate file            : ../../GFN2_output/25_143_130_130_25.mol
          omp threads                :                     8
          number of atoms            :                   210
          number of electrons        :                   658
          charge                     :                     0
          spin                       :                   0.0
          first test random number   :      0.35015840724272

   ID    Z sym.   atoms
    1    6 C      1-3, 5-7, 9-14, 16, 18-23, 25-28, 30-35, 37-40, 42-48,
                  50-53, 55, 56, 58-61, 63-69, 71-74, 76, 77, 79-82, 84-90,
                  92-95, 97, 98, 100-103, 105-111, 113-116, 118-120, 122-124,
                  126-131, 133
    2    8 O      4, 121
    3   17 Cl     8, 125
    4    7 N      15, 17, 36, 57, 78, 99, 132, 134
    5   16 S      24, 29, 41, 49, 54, 62, 70, 75, 83, 91, 96, 104, 112, 117
    6    1 H      135-210

           -------------------------------------------------
          |                 G F N 2 - x T B                 |
           -------------------------------------------------

        Reference                      10.1021/acs.jctc.8b01176
      * Hamiltonian:
        H0-scaling (s, p, d)           1.850000    2.230000    2.230000
        zeta-weighting                 0.500000
      * Dispersion:
        s8                             2.700000
        a1                             0.520000
        a2                             5.000000
        s9                             5.000000
      * Repulsion:
        kExp                           1.500000    1.000000
        rExp                           1.000000
      * Coulomb:
        alpha                          2.000000
        third order                    shell-resolved
        anisotropic                    true
        a3                             3.000000
        a5                             4.000000
        cn-shift                       1.200000
        cn-exp                         4.000000
        max-rad                        5.000000

      * Solvation model:               ALPB
        Solvent                        water
        Parameter file                 internal GFN2-xTB/ALPB
        Dielectric constant                8.0200E+01
        Reference state                gsolv [1 M gas/solution]
        Free energy shift                  1.0808E-03 Eh       6.7819E-01 kcal/mol
        Temperature                        2.9815E+02 K
        Density                            1.0000E+00 kg/L
        Solvent mass                       1.8000E+01 g/mol
        Interaction kernel             P16
        Born radius scaling (c1)           1.4744E+00
        Born radii integrator          GBOBC
        Born offset                        0.0000E+00 a0       0.0000E+00 AA
        H-bond correction              true
        Ion screening                  false
        Surface tension                    1.0000E-05 Eh       1.5569E+01 dyn/cm
        Grid points                               230 per atom

          ...................................................
          :                      SETUP                      :
          :.................................................:
          :  # basis functions                 708          :
          :  # atomic orbitals                 692          :
          :  # shells                          360          :
          :  # electrons                       658          :
          :  max. iterations                   250          :
          :  Hamiltonian                  GFN2-xTB          :
          :  restarted?                      false          :
          :  GBSA solvation                   true          :
          :  PC potential                    false          :
          :  electronic temp.          300.0000000     K    :
          :  accuracy                    1.0000000          :
          :  -> integral cutoff          0.2500000E+02      :
          :  -> integral neglect         0.1000000E-07      :
          :  -> SCF convergence          0.1000000E-05 Eh   :
          :  -> wf. convergence          0.1000000E-03 e    :
          :  Broyden damping             0.4000000          :
          ...................................................

 iter      E             dE          RMSdq      gap      omega  full diag
   1   -361.3967375 -0.361397E+03  0.470E+00    0.42       0.0  T
   2   -361.6392037 -0.242466E+00  0.270E+00    0.72       1.0  T
   3   -361.4511413  0.188062E+00  0.134E+00    0.28       1.0  T
   4   -361.7020309 -0.250890E+00  0.512E-01    0.43       1.0  T
   5   -361.7297047 -0.276737E-01  0.191E-01    0.38       1.0  T
   6   -361.7310976 -0.139292E-02  0.886E-02    0.40       1.0  T
   7   -361.7316798 -0.582159E-03  0.347E-02    0.41       1.0  T
   8   -361.7317319 -0.521231E-04  0.218E-02    0.41       1.0  T
   9   -361.7317565 -0.246357E-04  0.134E-02    0.42       1.0  T
  10   -361.7317653 -0.882256E-05  0.864E-03    0.42       1.0  T
  11   -361.7317699 -0.460381E-05  0.641E-03    0.42       1.1  T
  12   -361.7317730 -0.302537E-05  0.385E-03    0.42       1.8  T
  13   -361.7317744 -0.142730E-05  0.222E-03    0.42       3.1  T
  14   -361.7317748 -0.402046E-06  0.127E-03    0.42       5.4  T
  15   -361.7317749 -0.925050E-07  0.678E-04    0.42      10.2  T
  16   -361.7317749 -0.328269E-07  0.321E-04    0.42      21.5  T

   *** convergence criteria satisfied after 16 iterations ***

         #    Occupation            Energy/Eh            Energy/eV
      -------------------------------------------------------------
         1        2.0000           -1.0759172             -29.2772
       ...           ...                  ...                  ...
       323        2.0000           -0.3650717              -9.9341
       324        2.0000           -0.3646788              -9.9234
       325        2.0000           -0.3640861              -9.9073
       326        2.0000           -0.3559488              -9.6859
       327        1.9999           -0.3484516              -9.4819
       328        1.9997           -0.3476616              -9.4604
       329        1.9996           -0.3473883              -9.4529 (HOMO)
       330        0.0007           -0.3317886              -9.0284 (LUMO)
       331        0.0001           -0.3297171              -8.9721
       332                         -0.3211915              -8.7401
       333                         -0.3180140              -8.6536
       334                         -0.2828604              -7.6970
       ...                                ...                  ...
       692                          1.1537866              31.3961
      -------------------------------------------------------------
                  HL-Gap            0.0155997 Eh            0.4245 eV
             Fermi-level           -0.3392921 Eh           -9.2326 eV

 SCC (total)                   0 d,  0 h,  0 min,  0.939 sec
 SCC setup                      ...        0 min,  0.008 sec (  0.883%)
 Dispersion                     ...        0 min,  0.011 sec (  1.138%)
 classical contributions        ...        0 min,  0.000 sec (  0.044%)
 integral evaluation            ...        0 min,  0.046 sec (  4.901%)
 iterations                     ...        0 min,  0.713 sec ( 75.952%)
 molecular gradient             ...        0 min,  0.156 sec ( 16.655%)
 printout                       ...        0 min,  0.004 sec (  0.418%)

         :::::::::::::::::::::::::::::::::::::::::::::::::::::
         ::                     SUMMARY                     ::
         :::::::::::::::::::::::::::::::::::::::::::::::::::::
         :: total energy            -356.091483763125 Eh    ::
         :: total w/o Gsasa/hb      -356.075927567490 Eh    ::
         :: gradient norm              0.035317500593 Eh/a0 ::
         :: HOMO-LUMO gap              0.424488948641 eV    ::
         ::.................................................::
         :: SCC energy              -361.731774929078 Eh    ::
         :: -> isotropic ES            0.164044154921 Eh    ::
         :: -> anisotropic ES          0.010180002357 Eh    ::
         :: -> anisotropic XC          0.220718641469 Eh    ::
         :: -> dispersion             -0.412387784951 Eh    ::
         :: -> Gsolv                  -0.052285014884 Eh    ::
         ::    -> Gelec               -0.036728819249 Eh    ::
         ::    -> Gsasa               -0.008106515002 Eh    ::
         ::    -> Ghb                 -0.008530440332 Eh    ::
         ::    -> Gshift               0.001080759698 Eh    ::
         :: repulsion energy           5.618514919265 Eh    ::
         :: add. restraining           0.000000000000 Eh    ::
         :: total charge               0.000000000523 e     ::
         :::::::::::::::::::::::::::::::::::::::::::::::::::::

           -------------------------------------------------
          |                Property Printout                |
           -------------------------------------------------

    * Orbital Energies and Occupations

         #    Occupation            Energy/Eh            Energy/eV
      -------------------------------------------------------------
         1        2.0000           -1.0759172             -29.2772
       ...           ...                  ...                  ...
       317        2.0000           -0.3870339             -10.5317
       318        2.0000           -0.3834056             -10.4330
       319        2.0000           -0.3795166             -10.3272
       320        2.0000           -0.3771611             -10.2631
       321        2.0000           -0.3721608             -10.1270
       322        2.0000           -0.3656146              -9.9489
       323        2.0000           -0.3650717              -9.9341
       324        2.0000           -0.3646788              -9.9234
       325        2.0000           -0.3640861              -9.9073
       326        2.0000           -0.3559488              -9.6859
       327        1.9999           -0.3484516              -9.4819
       328        1.9997           -0.3476616              -9.4604
       329        1.9996           -0.3473883              -9.4529 (HOMO)
       330        0.0007           -0.3317886              -9.0284 (LUMO)
       331        0.0001           -0.3297171              -8.9721
       332                         -0.3211915              -8.7401
       333                         -0.3180140              -8.6536
       334                         -0.2828604              -7.6970
       335                         -0.2759677              -7.5095
       336                         -0.2679580              -7.2915
       337                         -0.2560853              -6.9684
       338                         -0.2545140              -6.9257
       339                         -0.2534147              -6.8958
       340                         -0.2490045              -6.7758
       ...                                ...                  ...
       692                          1.1537866              31.3961
      -------------------------------------------------------------
                  HL-Gap            0.0155997 Eh            0.4245 eV
             Fermi-level           -0.3392921 Eh           -9.2326 eV

     #   Z          covCN         q      C6AA      α(0)
     1   6 C        2.906    -0.005    28.147     8.699
     2   6 C        3.004    -0.034    28.830     8.808
     3   6 C        2.871     0.229    23.209     7.897
     4   8 O        0.889    -0.417    22.018     6.292
     5   6 C        3.048    -0.012    28.268     8.720
     6   6 C        2.949    -0.028    28.697     8.786
     7   6 C        2.890     0.112    25.536     8.285
     8  17 Cl       0.970    -0.169   104.452    15.636
     9   6 C        2.958    -0.035    28.859     8.811
    10   6 C        2.915    -0.021    28.542     8.761
    11   6 C        3.032     0.007    27.824     8.652
    12   6 C        3.020     0.042    27.038     8.529
    13   6 C        2.947     0.006    27.884     8.661
    14   6 C        1.952     0.135    27.773     8.511
    15   7 N        0.911    -0.278    27.174     7.539
    16   6 C        1.950     0.138    27.705     8.500
    17   7 N        0.911    -0.288    27.413     7.572
    18   6 C        2.980     0.001    27.997     8.679
    19   6 C        3.145    -0.003    27.837     8.632
    20   6 C        3.086    -0.062    29.433     8.893
    21   6 C        2.982     0.042    27.050     8.531
    22   6 C        3.827    -0.063    21.687     6.627
    23   6 C        3.754    -0.113    22.711     6.796
    24  16 S        2.288    -0.040   142.700    20.105
    25   6 C        3.013     0.015    27.664     8.628
    26   6 C        3.013     0.007    27.834     8.654
    27   6 C        3.162    -0.004    27.801     8.618
    28   6 C        2.995     0.027    27.381     8.584
    29  16 S        2.340    -0.021   141.925    20.051
    30   6 C        2.984     0.036    27.183     8.552
    31   6 C        3.825    -0.061    21.646     6.620
    32   6 C        3.754    -0.108    22.625     6.783
    33   6 C        3.082    -0.061    29.431     8.894
    34   6 C        3.004    -0.004    28.112     8.697
    35   6 C        3.059     0.050    26.819     8.493
    36   7 N        2.748    -0.059    22.383     7.027
    37   6 C        2.926     0.059    26.669     8.469
    38   6 C        2.922    -0.045    29.122     8.850
    39   6 C        2.984    -0.041    29.015     8.836
    40   6 C        2.965     0.045    26.994     8.522
    41  16 S        2.033    -0.201   149.602    20.586
    42   6 C        3.744    -0.064    21.803     6.661
    43   6 C        2.942    -0.046    29.139     8.853
    44   6 C        2.924    -0.047    29.168     8.857
    45   6 C        2.924     0.061    26.624     8.462
    46   6 C        2.924    -0.043    29.060     8.840
    47   6 C        2.973    -0.038    28.930     8.823
    48   6 C        2.967     0.044    27.015     8.526
    49  16 S        2.027    -0.224   150.619    20.656
    50   6 C        3.744    -0.057    21.673     6.641
    51   6 C        2.947    -0.041    29.006     8.833
    52   6 C        2.924    -0.046    29.139     8.852
    53   6 C        3.179     0.002    27.564     8.572
    54  16 S        2.258    -0.038   142.624    20.100
    55   6 C        3.019    -0.006    28.159     8.704
    56   6 C        3.064     0.050    26.811     8.491
    57   7 N        2.748    -0.070    22.592     7.059
    58   6 C        2.919     0.058    26.709     8.475
    59   6 C        2.924    -0.049    29.223     8.865
    60   6 C        2.975    -0.039    28.963     8.828
    61   6 C        2.965     0.041    27.073     8.535
    62  16 S        2.026    -0.197   149.438    20.575
    63   6 C        3.745    -0.060    21.721     6.648
    64   6 C        2.944    -0.046    29.152     8.855
    65   6 C        2.924    -0.052    29.301     8.877
    66   6 C        2.924     0.060    26.660     8.467
    67   6 C        2.928    -0.050    29.238     8.868
    68   6 C        2.980    -0.039    28.952     8.826
    69   6 C        2.966     0.043    27.031     8.528
    70  16 S        2.031    -0.202   149.650    20.589
    71   6 C        3.745    -0.057    21.671     6.641
    72   6 C        2.945    -0.043    29.074     8.844
    73   6 C        2.923    -0.050    29.252     8.869
    74   6 C        3.185     0.000    27.564     8.568
    75  16 S        2.252    -0.046   142.960    20.124
    76   6 C        3.021     0.007    27.839     8.655
    77   6 C        3.079     0.050    26.785     8.485
    78   7 N        2.748    -0.075    22.702     7.076
    79   6 C        2.918     0.062    26.619     8.461
    80   6 C        2.926    -0.051    29.279     8.874
    81   6 C        2.985    -0.041    29.013     8.836
    82   6 C        2.966     0.039    27.123     8.543
    83  16 S        2.033    -0.211   150.030    20.615
    84   6 C        3.745    -0.056    21.646     6.637
    85   6 C        2.943    -0.045    29.117     8.850
    86   6 C        2.924    -0.054    29.340     8.883
    87   6 C        2.926     0.058    26.708     8.475
    88   6 C        2.928    -0.049    29.223     8.865
    89   6 C        2.942    -0.045    29.105     8.848
    90   6 C        2.965     0.043    27.025     8.527
    91  16 S        2.033    -0.198   149.458    20.576
    92   6 C        3.744    -0.060    21.726     6.649
    93   6 C        2.985    -0.041    29.007     8.835
    94   6 C        2.922    -0.051    29.262     8.871
    95   6 C        3.162     0.003    27.629     8.592
    96  16 S        2.291    -0.028   142.204    20.070
    97   6 C        2.984     0.008    27.827     8.653
    98   6 C        3.040     0.062    26.573     8.455
    99   7 N        2.748    -0.029    21.803     6.935
   100   6 C        2.926     0.054    26.786     8.487
   101   6 C        2.921    -0.036    28.890     8.814
   102   6 C        2.987    -0.038    28.947     8.826
   103   6 C        2.965     0.047    26.933     8.512
   104  16 S        2.037    -0.181   148.737    20.526
   105   6 C        3.744    -0.068    21.870     6.671
   106   6 C        2.943    -0.046    29.150     8.855
   107   6 C        2.922    -0.047    29.177     8.858
   108   6 C        2.935     0.055    26.774     8.486
   109   6 C        2.921    -0.039    28.968     8.826
   110   6 C        2.984    -0.040    28.980     8.831
   111   6 C        2.966     0.054    26.791     8.490
   112  16 S        2.037    -0.165   148.028    20.477
   113   6 C        3.745    -0.066    21.838     6.666
   114   6 C        2.946    -0.042    29.044     8.839
   115   6 C        2.923    -0.037    28.932     8.821
   116   6 C        3.147    -0.001    27.797     8.625
   117  16 S        2.233    -0.019   141.841    20.045
   118   6 C        2.920    -0.017    28.446     8.746
   119   6 C        3.010    -0.048    29.166     8.859
   120   6 C        2.873     0.230    23.190     7.894
   121   8 O        0.951    -0.414    21.910     6.278
   122   6 C        3.050    -0.015    28.340     8.731
   123   6 C        2.948    -0.028    28.707     8.788
   124   6 C        2.891     0.109    25.587     8.293
   125  17 Cl       0.969    -0.173   104.599    15.647
   126   6 C        2.958    -0.035    28.861     8.812
   127   6 C        2.915    -0.024    28.591     8.768
   128   6 C        3.035     0.006    27.850     8.656
   129   6 C        3.022     0.032    27.251     8.563
   130   6 C        2.947    -0.003    28.103     8.695
   131   6 C        1.945     0.132    27.845     8.522
   132   7 N        0.911    -0.288    27.421     7.574
   133   6 C        1.944     0.127    27.978     8.542
   134   7 N        0.911    -0.288    27.421     7.573
   135   1 H        0.925     0.068     2.105     2.269
   136   1 H        0.926     0.086     1.913     2.163
   137   1 H        0.926     0.094     1.838     2.120
   138   1 H        0.926     0.076     2.016     2.221
   139   1 H        0.926     0.048     2.347     2.396
   140   1 H        0.924     0.067     2.121     2.277
   141   1 H        0.924     0.060     2.195     2.317
   142   1 H        0.925     0.051     2.308     2.376
   143   1 H        0.925     0.057     2.229     2.335
   144   1 H        0.925     0.044     2.401     2.423
   145   1 H        0.924     0.061     2.189     2.314
   146   1 H        0.924     0.058     2.220     2.330
   147   1 H        0.925     0.057     2.233     2.337
   148   1 H        0.925     0.045     2.380     2.413
   149   1 H        0.925     0.043     2.414     2.430
   150   1 H        0.926     0.054     2.276     2.359
   151   1 H        0.926     0.040     2.445     2.445
   152   1 H        0.926     0.049     2.327     2.386
   153   1 H        0.925     0.070     2.084     2.258
   154   1 H        0.925     0.079     1.985     2.203
   155   1 H        0.925     0.072     2.059     2.244
   156   1 H        0.926     0.052     2.296     2.370
   157   1 H        0.926     0.049     2.332     2.388
   158   1 H        0.926     0.036     2.497     2.471
   159   1 H        0.926     0.044     2.396     2.420
   160   1 H        0.925     0.075     2.029     2.228
   161   1 H        0.925     0.065     2.140     2.288
   162   1 H        0.925     0.070     2.084     2.257
   163   1 H        0.926     0.053     2.280     2.361
   164   1 H        0.926     0.050     2.318     2.381
   165   1 H        0.926     0.038     2.478     2.462
   166   1 H        0.926     0.049     2.330     2.387
   167   1 H        0.925     0.063     2.166     2.302
   168   1 H        0.925     0.066     2.133     2.284
   169   1 H        0.925     0.078     1.999     2.211
   170   1 H        0.926     0.045     2.384     2.415
   171   1 H        0.926     0.043     2.409     2.427
   172   1 H        0.926     0.033     2.548     2.496
   173   1 H        0.926     0.037     2.483     2.464
   174   1 H        0.925     0.076     2.019     2.222
   175   1 H        0.925     0.062     2.171     2.304
   176   1 H        0.925     0.070     2.084     2.258
   177   1 H        0.926     0.049     2.335     2.390
   178   1 H        0.926     0.046     2.373     2.409
   179   1 H        0.926     0.030     2.588     2.515
   180   1 H        0.926     0.034     2.531     2.488
   181   1 H        0.925     0.063     2.167     2.302
   182   1 H        0.925     0.079     1.992     2.207
   183   1 H        0.925     0.072     2.059     2.244
   184   1 H        0.926     0.048     2.350     2.397
   185   1 H        0.926     0.045     2.385     2.415
   186   1 H        0.926     0.033     2.547     2.496
   187   1 H        0.926     0.052     2.300     2.372
   188   1 H        0.925     0.069     2.095     2.264
   189   1 H        0.925     0.070     2.085     2.258
   190   1 H        0.925     0.080     1.975     2.198
   191   1 H        0.926     0.040     2.449     2.447
   192   1 H        0.926     0.044     2.391     2.418
   193   1 H        0.926     0.064     2.156     2.296
   194   1 H        0.926     0.056     2.246     2.343
   195   1 H        0.925     0.070     2.084     2.257
   196   1 H        0.925     0.078     1.995     2.209
   197   1 H        0.925     0.086     1.920     2.167
   198   1 H        0.926     0.058     2.227     2.334
   199   1 H        0.926     0.043     2.405     2.425
   200   1 H        0.926     0.055     2.254     2.348
   201   1 H        0.926     0.063     2.163     2.300
   202   1 H        0.925     0.071     2.070     2.250
   203   1 H        0.925     0.077     2.013     2.219
   204   1 H        0.925     0.085     1.933     2.174
   205   1 H        0.926     0.070     2.090     2.261
   206   1 H        0.926     0.042     2.419     2.432
   207   1 H        0.925     0.064     2.152     2.294
   208   1 H        0.926     0.084     1.940     2.178
   209   1 H        0.926     0.093     1.850     2.127
   210   1 H        0.926     0.075     2.032     2.229

 Mol. C6AA /au·bohr⁶  :     837103.181535
 Mol. C8AA /au·bohr⁸  :   24669977.947123
 Mol. α(0) /au        :       1476.232289


Wiberg/Mayer (AO) data.
largest (>0.10) Wiberg bond orders for each atom

 ---------------------------------------------------------------------------
     #   Z sym  total        # sym  WBO       # sym  WBO       # sym  WBO
 ---------------------------------------------------------------------------
     1   6 C    3.954 --     2 C    1.527    18 C    1.222   135 H    0.934
     2   6 C    3.943 --     1 C    1.527    12 C    1.134     3 C    1.060
     3   6 C    3.911 --     4 O    1.700     2 C    1.060     5 C    1.017
     4   8 O    2.025 --     3 C    1.700
     5   6 C    3.977 --     6 C    1.429    11 C    1.290     3 C    1.017
     6   6 C    3.976 --     5 C    1.429     7 C    1.380   136 H    0.961
     7   6 C    3.897 --     9 C    1.397     6 C    1.380     8 Cl   0.983
     8  17 Cl   1.116 --     7 C    0.983
     9   6 C    3.969 --    10 C    1.434     7 C    1.397   137 H    0.962
    10   6 C    3.972 --     9 C    1.434    11 C    1.396   138 H    0.958
    11   6 C    3.981 --    10 C    1.396     5 C    1.290    12 C    1.089
    12   6 C    3.967 --    13 C    1.474     2 C    1.134    11 C    1.089
    13   6 C    3.953 --    12 C    1.474    16 C    1.107    14 C    1.098
    14   6 C    3.941 --    15 N    2.751    13 C    1.098
    15   7 N    2.959 --    14 C    2.751
    16   6 C    3.940 --    17 N    2.721    13 C    1.107
    17   7 N    2.953 --    16 C    2.721
    18   6 C    3.967 --    28 C    1.301     1 C    1.222    19 C    1.219
    19   6 C    3.976 --    25 C    1.292    20 C    1.225    18 C    1.219
    20   6 C    3.977 --    21 C    1.613    19 C    1.225   139 H    0.958
    21   6 C    3.927 --    20 C    1.613    24 S    1.133    22 C    1.030
    22   6 C    3.991 --    21 C    1.030    23 C    0.995   141 H    0.968
                           140 H    0.961
    23   6 C    3.986 --    22 C    0.995   144 H    0.988   142 H    0.986
                           143 H    0.983
    24  16 S    2.532 --    21 C    1.133    25 C    1.104
    25   6 C    3.951 --    26 C    1.331    19 C    1.292    24 S    1.104
    26   6 C    3.937 --    25 C    1.331    27 C    1.293    34 C    1.087
    27   6 C    3.974 --    26 C    1.293    28 C    1.259    33 C    1.195
    28   6 C    3.942 --    18 C    1.301    27 C    1.259    29 S    1.154
    29  16 S    2.650 --    28 C    1.154    30 C    1.110
    30   6 C    3.931 --    33 C    1.644    29 S    1.110    31 C    1.027
    31   6 C    3.991 --    30 C    1.027    32 C    0.996   146 H    0.968
                           145 H    0.965
    32   6 C    3.988 --    31 C    0.996   149 H    0.988   148 H    0.987
                           147 H    0.984
    33   6 C    3.971 --    30 C    1.644    27 C    1.195   150 H    0.955
    34   6 C    3.914 --    35 C    1.445    75 S    1.098    26 C    1.087
    35   6 C    3.951 --    34 C    1.445    53 C    1.204    36 N    1.088
    36   7 N    3.501 --    35 C    1.088    37 C    1.056    45 C    1.052
    37   6 C    3.960 --    44 C    1.364    38 C    1.347    36 N    1.056
    38   6 C    3.984 --    39 C    1.473    37 C    1.347   151 H    0.965
    39   6 C    3.989 --    38 C    1.473    40 C    1.369   152 H    0.967
                            44 C    0.101
    40   6 C    3.950 --    43 C    1.383    39 C    1.369    41 S    1.046
    41  16 S    2.247 --    40 C    1.046    42 C    1.009
    42   6 C    3.968 --    41 S    1.009   153 H    0.980   155 H    0.979
                           154 H    0.975
    43   6 C    3.987 --    44 C    1.454    40 C    1.383   156 H    0.963
    44   6 C    3.982 --    43 C    1.454    37 C    1.364   157 H    0.963
                            39 C    0.101
    45   6 C    3.963 --    52 C    1.366    46 C    1.359    36 N    1.052
    46   6 C    3.987 --    47 C    1.466    45 C    1.359   158 H    0.964
    47   6 C    3.989 --    46 C    1.466    48 C    1.381   159 H    0.968
    48   6 C    3.954 --    51 C    1.388    47 C    1.381    49 S    1.027
    49  16 S    2.214 --    48 C    1.027    50 C    1.002
    50   6 C    3.964 --    49 S    1.002   160 H    0.980   162 H    0.978
                           161 H    0.971
    51   6 C    3.987 --    52 C    1.456    48 C    1.388   163 H    0.965
    52   6 C    3.985 --    51 C    1.456    45 C    1.366   164 H    0.965
    53   6 C    3.941 --    74 C    1.393    35 C    1.204    54 S    1.118
    54  16 S    2.563 --    53 C    1.118    55 C    1.093
    55   6 C    3.914 --    56 C    1.485    54 S    1.093    76 C    1.076
    56   6 C    3.960 --    55 C    1.485    74 C    1.202    57 N    1.058
    57   7 N    3.491 --    58 C    1.066    66 C    1.063    56 C    1.058
    58   6 C    3.962 --    65 C    1.361    59 C    1.349    57 N    1.066
    59   6 C    3.985 --    60 C    1.474    58 C    1.349   165 H    0.966
    60   6 C    3.989 --    59 C    1.474    61 C    1.370   166 H    0.965
                            65 C    0.101
    61   6 C    3.955 --    64 C    1.388    60 C    1.370    62 S    1.038
    62  16 S    2.249 --    61 C    1.038    63 C    1.006
    63   6 C    3.970 --    62 S    1.006   167 H    0.981   168 H    0.980
                           169 H    0.976
    64   6 C    3.989 --    65 C    1.452    61 C    1.388   170 H    0.964
    65   6 C    3.985 --    64 C    1.452    58 C    1.361   171 H    0.961
                            60 C    0.101
    66   6 C    3.962 --    73 C    1.364    67 C    1.346    57 N    1.063
    67   6 C    3.984 --    68 C    1.474    66 C    1.346   172 H    0.954
    68   6 C    3.990 --    67 C    1.474    69 C    1.372   173 H    0.968
    69   6 C    3.953 --    72 C    1.388    68 C    1.372    70 S    1.040
    70  16 S    2.229 --    69 C    1.040    71 C    1.006
    71   6 C    3.968 --    70 S    1.006   175 H    0.981   176 H    0.979
                           174 H    0.976
    72   6 C    3.988 --    73 C    1.453    69 C    1.388   177 H    0.965
    73   6 C    3.984 --    72 C    1.453    66 C    1.364   178 H    0.964
    74   6 C    3.934 --    53 C    1.393    56 C    1.202    75 S    1.116
    75  16 S    2.550 --    74 C    1.116    34 C    1.098
    76   6 C    3.904 --    77 C    1.480   117 S    1.119    55 C    1.076
    77   6 C    3.961 --    76 C    1.480    95 C    1.226    78 N    1.029
    78   7 N    3.472 --    79 C    1.084    87 C    1.059    77 C    1.029
    79   6 C    3.964 --    86 C    1.355    80 C    1.339    78 N    1.084
    80   6 C    3.983 --    81 C    1.477    79 C    1.339   179 H    0.960
    81   6 C    3.990 --    80 C    1.477    82 C    1.369   180 H    0.967
                            86 C    0.100
    82   6 C    3.951 --    85 C    1.386    81 C    1.369    83 S    1.039
    83  16 S    2.236 --    82 C    1.039    84 C    1.009
    84   6 C    3.968 --    83 S    1.009   181 H    0.980   183 H    0.978
                           182 H    0.975
    85   6 C    3.988 --    86 C    1.454    82 C    1.386   184 H    0.964
    86   6 C    3.984 --    85 C    1.454    79 C    1.355   185 H    0.964
                            81 C    0.100
    87   6 C    3.962 --    88 C    1.362    94 C    1.350    78 N    1.059
    88   6 C    3.985 --    89 C    1.455    87 C    1.362   186 H    0.966
                            93 C    0.101
    89   6 C    3.988 --    88 C    1.455    90 C    1.384   187 H    0.963
    90   6 C    3.956 --    89 C    1.384    93 C    1.369    91 S    1.047
    91  16 S    2.253 --    90 C    1.047    92 C    1.009
    92   6 C    3.968 --    91 S    1.009   189 H    0.980   188 H    0.978
                           190 H    0.975
    93   6 C    3.990 --    94 C    1.472    90 C    1.369   191 H    0.966
                            88 C    0.101
    94   6 C    3.985 --    93 C    1.472    87 C    1.350   192 H    0.956
    95   6 C    3.941 --   116 C    1.351    77 C    1.226    96 S    1.133
    96  16 S    2.652 --    95 C    1.133    97 C    1.068   121 O    0.119
    97   6 C    3.927 --   118 C    1.385    98 C    1.241    96 S    1.068
    98   6 C    3.943 --   116 C    1.255    97 C    1.241    99 N    1.192
    99   7 N    3.556 --    98 C    1.192   100 C    1.034   108 C    1.022
   100   6 C    3.956 --   107 C    1.365   101 C    1.353    99 N    1.034
   101   6 C    3.979 --   102 C    1.471   100 C    1.353   193 H    0.963
   102   6 C    3.989 --   101 C    1.471   103 C    1.370   194 H    0.966
                           107 C    0.102
   103   6 C    3.957 --   106 C    1.374   102 C    1.370   104 S    1.061
   104  16 S    2.269 --   103 C    1.061   105 C    1.008
   105   6 C    3.965 --   104 S    1.008   195 H    0.979   196 H    0.978
                           197 H    0.973
   106   6 C    3.985 --   107 C    1.462   103 C    1.374   198 H    0.962
   107   6 C    3.986 --   106 C    1.462   100 C    1.365   199 H    0.966
                           102 C    0.102
   108   6 C    3.952 --   115 C    1.370   109 C    1.353    99 N    1.022
   109   6 C    3.974 --   110 C    1.482   108 C    1.353   200 H    0.965
   110   6 C    3.986 --   109 C    1.482   111 C    1.360   201 H    0.965
   111   6 C    3.951 --   114 C    1.381   110 C    1.360   112 S    1.068
   112  16 S    2.274 --   111 C    1.068   113 C    1.008
   113   6 C    3.964 --   112 S    1.008   203 H    0.978   202 H    0.975
                           204 H    0.974
   114   6 C    3.983 --   115 C    1.454   111 C    1.381   205 H    0.953
   115   6 C    3.981 --   114 C    1.454   108 C    1.370   206 H    0.967
   116   6 C    3.938 --    95 C    1.351    98 C    1.255   117 S    1.104
   117  16 S    2.575 --    76 C    1.119   116 C    1.104
   118   6 C    3.949 --   119 C    1.414    97 C    1.385   207 H    0.931
   119   6 C    3.953 --   118 C    1.414   129 C    1.174   120 C    1.090
   120   6 C    3.906 --   121 O    1.673   119 C    1.090   122 C    1.014
   121   8 O    2.065 --   120 C    1.673    96 S    0.119
   122   6 C    3.974 --   123 C    1.432   128 C    1.293   120 C    1.014
   123   6 C    3.975 --   122 C    1.432   124 C    1.378   208 H    0.961
   124   6 C    3.896 --   126 C    1.403   123 C    1.378   125 Cl   0.979
   125  17 Cl   1.112 --   124 C    0.979
   126   6 C    3.972 --   127 C    1.427   124 C    1.403   209 H    0.962
   127   6 C    3.970 --   126 C    1.427   128 C    1.404   210 H    0.958
   128   6 C    3.981 --   127 C    1.404   122 C    1.293   129 C    1.079
   129   6 C    3.968 --   130 C    1.441   119 C    1.174   128 C    1.079
   130   6 C    3.946 --   129 C    1.441   133 C    1.112   131 C    1.106
   131   6 C    3.938 --   132 N    2.742   130 C    1.106
   132   7 N    2.948 --   131 C    2.742
   133   6 C    3.941 --   134 N    2.723   130 C    1.112
   134   7 N    2.952 --   133 C    2.723
   135   1 H    0.994 --     1 C    0.934
   136   1 H    0.992 --     6 C    0.961
   137   1 H    0.991 --     9 C    0.962
   138   1 H    0.994 --    10 C    0.958
   139   1 H    0.997 --    20 C    0.958
   140   1 H    0.992 --    22 C    0.961
   141   1 H    0.996 --    22 C    0.968
   142   1 H    0.997 --    23 C    0.986
   143   1 H    0.996 --    23 C    0.983
   144   1 H    0.998 --    23 C    0.988
   145   1 H    0.994 --    31 C    0.965
   146   1 H    0.996 --    31 C    0.968
   147   1 H    0.996 --    32 C    0.984
   148   1 H    0.998 --    32 C    0.987
   149   1 H    0.998 --    32 C    0.988
   150   1 H    0.996 --    33 C    0.955
   151   1 H    0.998 --    38 C    0.965
   152   1 H    0.997 --    39 C    0.967
   153   1 H    0.994 --    42 C    0.980
   154   1 H    0.993 --    42 C    0.975
   155   1 H    0.995 --    42 C    0.979
   156   1 H    0.997 --    43 C    0.963
   157   1 H    0.998 --    44 C    0.963
   158   1 H    0.998 --    46 C    0.964
   159   1 H    0.998 --    47 C    0.968
   160   1 H    0.994 --    50 C    0.980
   161   1 H    0.995 --    50 C    0.971
   162   1 H    0.994 --    50 C    0.978
   163   1 H    0.997 --    51 C    0.965
   164   1 H    0.997 --    52 C    0.965
   165   1 H    0.998 --    59 C    0.966
   166   1 H    0.997 --    60 C    0.965
   167   1 H    0.996 --    63 C    0.981
   168   1 H    0.995 --    63 C    0.980
   169   1 H    0.994 --    63 C    0.976
   170   1 H    0.997 --    64 C    0.964
   171   1 H    0.998 --    65 C    0.961
   172   1 H    0.999 --    67 C    0.954
   173   1 H    0.998 --    68 C    0.968
   174   1 H    0.994 --    71 C    0.976
   175   1 H    0.996 --    71 C    0.981
   176   1 H    0.995 --    71 C    0.979
   177   1 H    0.997 --    72 C    0.965
   178   1 H    0.998 --    73 C    0.964
   179   1 H    0.999 --    80 C    0.960
   180   1 H    0.998 --    81 C    0.967
   181   1 H    0.996 --    84 C    0.980
   182   1 H    0.993 --    84 C    0.975
   183   1 H    0.995 --    84 C    0.978
   184   1 H    0.997 --    85 C    0.964
   185   1 H    0.998 --    86 C    0.964
   186   1 H    0.999 --    88 C    0.966
   187   1 H    0.997 --    89 C    0.963
   188   1 H    0.995 --    92 C    0.978
   189   1 H    0.994 --    92 C    0.980
   190   1 H    0.993 --    92 C    0.975
   191   1 H    0.998 --    93 C    0.966
   192   1 H    0.998 --    94 C    0.956
   193   1 H    0.995 --   101 C    0.963
   194   1 H    0.996 --   102 C    0.966
   195   1 H    0.995 --   105 C    0.979
   196   1 H    0.993 --   105 C    0.978
   197   1 H    0.992 --   105 C    0.973
   198   1 H    0.996 --   106 C    0.962
   199   1 H    0.998 --   107 C    0.966
   200   1 H    0.996 --   109 C    0.965
   201   1 H    0.995 --   110 C    0.965
   202   1 H    0.994 --   113 C    0.975
   203   1 H    0.993 --   113 C    0.978
   204   1 H    0.992 --   113 C    0.974
   205   1 H    0.994 --   114 C    0.953
   206   1 H    0.998 --   115 C    0.967
   207   1 H    0.995 --   118 C    0.931
   208   1 H    0.992 --   123 C    0.961
   209   1 H    0.991 --   126 C    0.962
   210   1 H    0.994 --   127 C    0.958
 ---------------------------------------------------------------------------

Topologies differ in bond orders
Writing corrected topology to xtbtopo.mol

molecular dipole:
                 x           y           z       tot (Debye)
 q only:       -0.528       0.692      -2.808
   full:       -0.244       0.342      -0.979       2.709
molecular quadrupole (traceless):
                xx          xy          yy          xz          yz          zz
 q only:       25.910    -150.439     -88.805       6.833      -7.362      62.895
  q+dip:       23.809    -167.114     -75.474      23.400      16.301      51.665
   full:       24.519    -173.573     -72.336      25.745      23.542      47.817


           -------------------------------------------------
          | TOTAL ENERGY             -356.091483763125 Eh   |
          | GRADIENT NORM               0.035317500593 Eh/α |
          | HOMO-LUMO GAP               0.424488948641 eV   |
           -------------------------------------------------

------------------------------------------------------------------------
 * finished run on 2022/02/06 at 02:23:29.523     
------------------------------------------------------------------------
 total:
 * wall-time:     0 d,  0 h,  0 min,  1.051 sec
 *  cpu-time:     0 d,  0 h,  0 min,  8.294 sec
 * ratio c/w:     7.892 speedup
 SCF:
 * wall-time:     0 d,  0 h,  0 min,  0.942 sec
 *  cpu-time:     0 d,  0 h,  0 min,  7.516 sec
 * ratio c/w:     7.979 speedup

