      -----------------------------------------------------------      
     |                   =====================                   |     
     |                           x T B                           |     
     |                   =====================                   |     
     |                         S. Grimme                         |     
     |          Mulliken Center for Theoretical Chemistry        |     
     |                    University of Bonn                     |     
      -----------------------------------------------------------      

   * xtb version 6.4.1 (unknown) compiled by 'oda6@login1.crc.pitt.edu' on 2021-06-25

   xtb is free software: you can redistribute it and/or modify it under
   the terms of the GNU Lesser General Public License as published by
   the Free Software Foundation, either version 3 of the License, or
   (at your option) any later version.
   
   xtb is distributed in the hope that it will be useful,
   but WITHOUT ANY WARRANTY; without even the implied warranty of
   MERCHANTABILITY or FITNESS FOR A PARTICULAR PURPOSE.  See the
   GNU Lesser General Public License for more details.
   
   Cite this work as:
   * C. Bannwarth, E. Caldeweyher, S. Ehlert, A. Hansen, P. Pracht,
     J. Seibert, S. Spicher, S. Grimme, WIREs Comput. Mol. Sci., 2020, 11,
     e01493. DOI: 10.1002/wcms.1493
   
   for GFN2-xTB:
   * C. Bannwarth, S. Ehlert and S. Grimme., J. Chem. Theory Comput., 2019,
     15, 1652-1671. DOI: 10.1021/acs.jctc.8b01176
   for GFN1-xTB:
   * S. Grimme, C. Bannwarth, P. Shushkov, J. Chem. Theory Comput., 2017,
     13, 1989-2009. DOI: 10.1021/acs.jctc.7b00118
   for GFN0-xTB:
   * P. Pracht, E. Caldeweyher, S. Ehlert, S. Grimme, ChemRxiv, 2019, preprint.
     DOI: 10.26434/chemrxiv.8326202.v1
   for GFN-FF:
   * S. Spicher and S. Grimme, Angew. Chem. Int. Ed., 2020, 59, 15665-15673.
     DOI: 10.1002/anie.202004239
   
   for DFT-D4:
   * E. Caldeweyher, C. Bannwarth and S. Grimme, J. Chem. Phys., 2017,
     147, 034112. DOI: 10.1063/1.4993215
   * E. Caldeweyher, S. Ehlert, A. Hansen, H. Neugebauer, S. Spicher,
     C. Bannwarth and S. Grimme, J. Chem. Phys., 2019, 150, 154122.
     DOI: 10.1063/1.5090222
   * E. Caldeweyher, J.-M. Mewes, S. Ehlert and S. Grimme, Phys. Chem. Chem. Phys.
     2020, 22, 8499-8512. DOI: 10.1039/D0CP00502A
   
   for sTDA-xTB:
   * S. Grimme and C. Bannwarth, J. Chem. Phys., 2016, 145, 054103.
     DOI: 10.1063/1.4959605
   
   in the mass-spec context:
   * V. Asgeirsson, C. Bauer and S. Grimme, Chem. Sci., 2017, 8, 4879.
     DOI: 10.1039/c7sc00601b
   * J. Koopman and S. Grimme, ACS Omega 2019, 4, 12, 15120-15133.
     DOI: 10.1021/acsomega.9b02011
   
   for metadynamics refer to:
   * S. Grimme, J. Chem. Theory Comput., 2019, 155, 2847-2862
     DOI: 10.1021/acs.jctc.9b00143
   
   for SPH calculations refer to:
   * S. Spicher and S. Grimme, J. Chem. Theory Comput., 2021, 17, 1701-1714
     DOI: 10.1021/acs.jctc.0c01306
   
   with help from (in alphabetical order)
   P. Atkinson, C. Bannwarth, F. Bohle, G. Brandenburg, E. Caldeweyher
   M. Checinski, S. Dohm, S. Ehlert, S. Ehrlich, I. Gerasimov, J. Koopman
   C. Lavigne, S. Lehtola, F. März, M. Müller, F. Musil, H. Neugebauer
   J. Pisarek, C. Plett, P. Pracht, J. Seibert, P. Shushkov, S. Spicher
   M. Stahn, M. Steiner, T. Strunk, J. Stückrath, T. Rose, and J. Unsleber
   
 * started run on 2022/02/03 at 21:07:52.060     

           -------------------------------------------------
          |                Calculation Setup                |
           -------------------------------------------------

          program call               : /ihome/ghutchison/oda6/xtb/xtb-641/bin/xtb ../../GFN2_output/29_91_152_101_29.mol --sp --alpb water
          hostname                   : smp-n57
          coordinate file            : ../../GFN2_output/29_91_152_101_29.mol
          omp threads                :                     8
          number of atoms            :                   175
          number of electrons        :                   560
          charge                     :                     0
          spin                       :                   0.0
          first test random number   :      0.39333063244498

   ID    Z sym.   atoms
    1    6 C      1-3, 5-9, 11-15, 17, 19-28, 30-44, 46-52, 54, 55, 57-61,
                  65-79, 81-84, 86-95, 97, 98, 100-102, 104-108, 110-114, 116
    2    8 O      4, 103
    3    9 F      10, 109
    4    7 N      16, 18, 62, 64, 115, 117
    5   16 S      29, 45, 53, 56, 63, 80, 85, 96, 99
    6    1 H      118-175

           -------------------------------------------------
          |                 G F N 2 - x T B                 |
           -------------------------------------------------

        Reference                      10.1021/acs.jctc.8b01176
      * Hamiltonian:
        H0-scaling (s, p, d)           1.850000    2.230000    2.230000
        zeta-weighting                 0.500000
      * Dispersion:
        s8                             2.700000
        a1                             0.520000
        a2                             5.000000
        s9                             5.000000
      * Repulsion:
        kExp                           1.500000    1.000000
        rExp                           1.000000
      * Coulomb:
        alpha                          2.000000
        third order                    shell-resolved
        anisotropic                    true
        a3                             3.000000
        a5                             4.000000
        cn-shift                       1.200000
        cn-exp                         4.000000
        max-rad                        5.000000

      * Solvation model:               ALPB
        Solvent                        water
        Parameter file                 internal GFN2-xTB/ALPB
        Dielectric constant                8.0200E+01
        Reference state                gsolv [1 M gas/solution]
        Free energy shift                  1.0808E-03 Eh       6.7819E-01 kcal/mol
        Temperature                        2.9815E+02 K
        Density                            1.0000E+00 kg/L
        Solvent mass                       1.8000E+01 g/mol
        Interaction kernel             P16
        Born radius scaling (c1)           1.4744E+00
        Born radii integrator          GBOBC
        Born offset                        0.0000E+00 a0       0.0000E+00 AA
        H-bond correction              true
        Ion screening                  false
        Surface tension                    1.0000E-05 Eh       1.5569E+01 dyn/cm
        Grid points                               230 per atom

          ...................................................
          :                      SETUP                      :
          :.................................................:
          :  # basis functions                 580          :
          :  # atomic orbitals                 571          :
          :  # shells                          301          :
          :  # electrons                       560          :
          :  max. iterations                   250          :
          :  Hamiltonian                  GFN2-xTB          :
          :  restarted?                      false          :
          :  GBSA solvation                   true          :
          :  PC potential                    false          :
          :  electronic temp.          300.0000000     K    :
          :  accuracy                    1.0000000          :
          :  -> integral cutoff          0.2500000E+02      :
          :  -> integral neglect         0.1000000E-07      :
          :  -> SCF convergence          0.1000000E-05 Eh   :
          :  -> wf. convergence          0.1000000E-03 e    :
          :  Broyden damping             0.4000000          :
          ...................................................

 iter      E             dE          RMSdq      gap      omega  full diag
   1   -308.5436906 -0.308544E+03  0.468E+00    0.96       0.0  T
   2   -308.7067277 -0.163037E+00  0.270E+00    0.79       1.0  T
   3   -308.5632473  0.143480E+00  0.134E+00    0.46       1.0  T
   4   -308.7635841 -0.200337E+00  0.418E-01    0.51       1.0  T
   5   -308.7762203 -0.126362E-01  0.168E-01    0.49       1.0  T
   6   -308.7776140 -0.139371E-02  0.666E-02    0.52       1.0  T
   7   -308.7778648 -0.250783E-03  0.301E-02    0.52       1.0  T
   8   -308.7779167 -0.518849E-04  0.154E-02    0.53       1.0  T
   9   -308.7779257 -0.897138E-05  0.819E-03    0.53       1.0  T
  10   -308.7779295 -0.379538E-05  0.368E-03    0.53       2.1  T
  11   -308.7779299 -0.465358E-06  0.211E-03    0.53       3.6  T
  12   -308.7779300 -0.114020E-06  0.113E-03    0.53       6.7  T
  13   -308.7779301 -0.605818E-07  0.530E-04    0.53      14.3  T
  14   -308.7779301 -0.140566E-07  0.263E-04    0.53      28.7  T

   *** convergence criteria satisfied after 14 iterations ***

         #    Occupation            Energy/Eh            Energy/eV
      -------------------------------------------------------------
         1        2.0000           -0.8419803             -22.9115
       ...           ...                  ...                  ...
       274        2.0000           -0.3847669             -10.4700
       275        2.0000           -0.3782091             -10.2916
       276        2.0000           -0.3770731             -10.2607
       277        2.0000           -0.3706366             -10.0855
       278        2.0000           -0.3671884              -9.9917
       279        2.0000           -0.3608667              -9.8197
       280        1.9999           -0.3580101              -9.7420 (HOMO)
       281        0.0001           -0.3385846              -9.2134 (LUMO)
       282        0.0000           -0.3368611              -9.1665
       283                         -0.3270744              -8.9001
       284                         -0.3248710              -8.8402
       285                         -0.3179878              -8.6529
       ...                                ...                  ...
       571                          1.1492110              31.2716
      -------------------------------------------------------------
                  HL-Gap            0.0194255 Eh            0.5286 eV
             Fermi-level           -0.3483462 Eh           -9.4790 eV

 SCC (total)                   0 d,  0 h,  0 min,  0.616 sec
 SCC setup                      ...        0 min,  0.005 sec (  0.846%)
 Dispersion                     ...        0 min,  0.012 sec (  1.976%)
 classical contributions        ...        0 min,  0.000 sec (  0.049%)
 integral evaluation            ...        0 min,  0.038 sec (  6.101%)
 iterations                     ...        0 min,  0.465 sec ( 75.557%)
 molecular gradient             ...        0 min,  0.092 sec ( 15.019%)
 printout                       ...        0 min,  0.003 sec (  0.439%)

         :::::::::::::::::::::::::::::::::::::::::::::::::::::
         ::                     SUMMARY                     ::
         :::::::::::::::::::::::::::::::::::::::::::::::::::::
         :: total energy            -303.777185935461 Eh    ::
         :: total w/o Gsasa/hb      -303.753682080012 Eh    ::
         :: gradient norm              0.030800085652 Eh/a0 ::
         :: HOMO-LUMO gap              0.528595059186 eV    ::
         ::.................................................::
         :: SCC energy              -308.777930107629 Eh    ::
         :: -> isotropic ES            0.173091267761 Eh    ::
         :: -> anisotropic ES          0.013169842617 Eh    ::
         :: -> anisotropic XC          0.184279503104 Eh    ::
         :: -> dispersion             -0.280192674428 Eh    ::
         :: -> Gsolv                  -0.055633080865 Eh    ::
         ::    -> Gelec               -0.032129225415 Eh    ::
         ::    -> Gsasa               -0.016905181526 Eh    ::
         ::    -> Ghb                 -0.007679433622 Eh    ::
         ::    -> Gshift               0.001080759698 Eh    ::
         :: repulsion energy           5.002420532207 Eh    ::
         :: add. restraining           0.000000000000 Eh    ::
         :: total charge               0.000000000000 e     ::
         :::::::::::::::::::::::::::::::::::::::::::::::::::::

           -------------------------------------------------
          |                Property Printout                |
           -------------------------------------------------

    * Orbital Energies and Occupations

         #    Occupation            Energy/Eh            Energy/eV
      -------------------------------------------------------------
         1        2.0000           -0.8419803             -22.9115
       ...           ...                  ...                  ...
       268        2.0000           -0.4058403             -11.0435
       269        2.0000           -0.4006863             -10.9032
       270        2.0000           -0.3958973             -10.7729
       271        2.0000           -0.3927154             -10.6863
       272        2.0000           -0.3897437             -10.6055
       273        2.0000           -0.3888837             -10.5821
       274        2.0000           -0.3847669             -10.4700
       275        2.0000           -0.3782091             -10.2916
       276        2.0000           -0.3770731             -10.2607
       277        2.0000           -0.3706366             -10.0855
       278        2.0000           -0.3671884              -9.9917
       279        2.0000           -0.3608667              -9.8197
       280        1.9999           -0.3580101              -9.7420 (HOMO)
       281        0.0001           -0.3385846              -9.2134 (LUMO)
       282        0.0000           -0.3368611              -9.1665
       283                         -0.3270744              -8.9001
       284                         -0.3248710              -8.8402
       285                         -0.3179878              -8.6529
       286                         -0.2894430              -7.8761
       287                         -0.2819578              -7.6725
       288                         -0.2695656              -7.3353
       289                         -0.2667336              -7.2582
       290                         -0.2662039              -7.2438
       291                         -0.2635096              -7.1705
       ...                                ...                  ...
       571                          1.1492110              31.2716
      -------------------------------------------------------------
                  HL-Gap            0.0194255 Eh            0.5286 eV
             Fermi-level           -0.3483462 Eh           -9.4790 eV

     #   Z          covCN         q      C6AA      α(0)
     1   6 C        2.918    -0.010    28.275     8.720
     2   6 C        3.005    -0.035    28.849     8.811
     3   6 C        2.870     0.234    23.102     7.879
     4   8 O        0.915    -0.395    21.554     6.226
     5   6 C        3.040    -0.022    28.513     8.758
     6   6 C        2.921    -0.028    28.695     8.784
     7   6 C        2.965     0.023    27.496     8.601
     8   6 C        3.758    -0.130    23.051     6.845
     9   6 C        2.794     0.173    24.281     8.072
    10   9 F        0.788    -0.237    11.622     4.027
    11   6 C        2.911    -0.047    29.168     8.856
    12   6 C        3.040     0.006    27.840     8.654
    13   6 C        3.017     0.038    27.117     8.542
    14   6 C        2.947     0.005    27.917     8.666
    15   6 C        1.945     0.133    27.828     8.519
    16   7 N        0.911    -0.279    27.210     7.544
    17   6 C        1.948     0.135    27.788     8.513
    18   7 N        0.911    -0.279    27.205     7.544
    19   6 C        2.976     0.035    27.201     8.555
    20   6 C        3.071    -0.037    28.848     8.807
    21   6 C        3.114     0.001    27.841     8.643
    22   6 C        2.987     0.005    27.908     8.666
    23   6 C        2.973     0.011    27.773     8.645
    24   6 C        2.920    -0.036    28.898     8.815
    25   6 C        2.917    -0.039    28.970     8.826
    26   6 C        2.988     0.012    27.729     8.638
    27   6 C        2.944    -0.053    29.322     8.881
    28   6 C        2.962     0.052    26.821     8.495
    29  16 S        2.066    -0.199   149.525    20.581
    30   6 C        3.793    -0.004    20.660     6.473
    31   6 C        3.779    -0.112    22.674     6.784
    32   6 C        2.983    -0.040    28.986     8.831
    33   6 C        2.918    -0.038    28.933     8.821
    34   6 C        2.986     0.010    27.791     8.648
    35   6 C        2.924    -0.038    28.951     8.824
    36   6 C        3.005     0.025    27.441     8.593
    37   6 C        3.137     0.004    27.704     8.615
    38   6 C        2.993    -0.003    28.079     8.692
    39   6 C        2.972     0.011    27.757     8.642
    40   6 C        2.921    -0.038    28.937     8.821
    41   6 C        2.985     0.010    27.795     8.648
    42   6 C        2.919    -0.039    28.968     8.826
    43   6 C        2.939    -0.040    29.005     8.833
    44   6 C        2.962     0.050    26.871     8.503
    45  16 S        2.061    -0.211   150.063    20.618
    46   6 C        3.793    -0.003    20.647     6.471
    47   6 C        3.779    -0.111    22.635     6.778
    48   6 C        2.983    -0.048    29.177     8.861
    49   6 C        2.989     0.012    27.730     8.638
    50   6 C        2.916    -0.040    28.986     8.829
    51   6 C        2.923    -0.035    28.874     8.812
    52   6 C        3.011     0.019    27.562     8.612
    53  16 S        2.288    -0.024   142.058    20.060
    54   6 C        3.079    -0.048    29.107     8.845
    55   6 C        2.989     0.037    27.154     8.548
    56  16 S        2.249    -0.047   142.996    20.126
    57   6 C        2.981    -0.001    28.037     8.686
    58   6 C        2.921    -0.036    28.891     8.814
    59   6 C        2.922    -0.036    28.905     8.817
    60   6 C        3.027    -0.002    28.047     8.687
    61   6 C        3.366     0.074    23.420     7.581
    62   7 N        1.878    -0.286    28.258     7.880
    63  16 S        2.677     0.390   126.147    18.903
    64   7 N        1.855    -0.291    28.400     7.899
    65   6 C        3.354     0.070    23.719     7.662
    66   6 C        2.991     0.038    27.141     8.546
    67   6 C        3.066    -0.053    29.249     8.868
    68   6 C        3.137     0.005    27.678     8.611
    69   6 C        3.011    -0.005    28.120     8.699
    70   6 C        2.986     0.029    27.336     8.576
    71   6 C        3.070    -0.058    29.355     8.884
    72   6 C        3.138     0.000    27.793     8.628
    73   6 C        2.921    -0.047    29.167     8.856
    74   6 C        2.969     0.012    27.754     8.641
    75   6 C        3.807    -0.064    21.730     6.636
    76   6 C        3.753    -0.107    22.612     6.781
    77   6 C        2.929    -0.042    29.054     8.840
    78   6 C        2.931    -0.045    29.123     8.850
    79   6 C        3.009     0.031    27.300     8.571
    80  16 S        2.276    -0.086   144.648    20.242
    81   6 C        3.001     0.028    27.366     8.581
    82   6 C        3.142    -0.000    27.780     8.624
    83   6 C        3.020     0.003    27.937     8.670
    84   6 C        2.988     0.029    27.357     8.580
    85  16 S        2.433    -0.078   144.296    20.218
    86   6 C        3.008     0.033    27.257     8.564
    87   6 C        2.932    -0.044    29.085     8.845
    88   6 C        2.929    -0.038    28.949     8.824
    89   6 C        2.969     0.014    27.709     8.634
    90   6 C        3.807    -0.064    21.719     6.634
    91   6 C        3.754    -0.107    22.608     6.780
    92   6 C        2.921    -0.046    29.135     8.852
    93   6 C        3.136     0.001    27.786     8.628
    94   6 C        3.063    -0.053    29.238     8.867
    95   6 C        3.010     0.025    27.434     8.592
    96  16 S        2.513    -0.047   143.006    20.127
    97   6 C        3.060    -0.031    28.700     8.785
    98   6 C        2.980     0.039    27.118     8.542
    99  16 S        2.292    -0.056   143.365    20.152
   100   6 C        2.944    -0.006    28.176     8.706
   101   6 C        3.003    -0.034    28.820     8.806
   102   6 C        2.865     0.235    23.096     7.878
   103   8 O        0.856    -0.411    21.898     6.274
   104   6 C        3.042    -0.021    28.501     8.756
   105   6 C        2.921    -0.027    28.686     8.783
   106   6 C        2.965     0.023    27.484     8.599
   107   6 C        3.758    -0.130    23.057     6.846
   108   6 C        2.794     0.173    24.270     8.070
   109   9 F        0.788    -0.236    11.614     4.026
   110   6 C        2.911    -0.047    29.159     8.855
   111   6 C        3.036     0.007    27.828     8.653
   112   6 C        3.020     0.040    27.090     8.538
   113   6 C        2.947     0.007    27.871     8.659
   114   6 C        1.940     0.132    27.852     8.523
   115   7 N        0.911    -0.276    27.133     7.534
   116   6 C        1.942     0.135    27.783     8.512
   117   7 N        0.911    -0.276    27.125     7.532
   118   1 H        0.925     0.074     2.037     2.232
   119   1 H        0.926     0.089     1.887     2.148
   120   1 H        0.925     0.084     1.935     2.175
   121   1 H        0.925     0.076     2.018     2.221
   122   1 H        0.925     0.086     1.922     2.168
   123   1 H        0.926     0.076     2.017     2.221
   124   1 H        0.926     0.071     2.078     2.254
   125   1 H        0.926     0.042     2.416     2.431
   126   1 H        0.926     0.045     2.385     2.415
   127   1 H        0.926     0.045     2.386     2.415
   128   1 H        0.925     0.057     2.239     2.340
   129   1 H        0.925     0.065     2.139     2.287
   130   1 H        0.925     0.049     2.331     2.388
   131   1 H        0.925     0.053     2.279     2.361
   132   1 H        0.925     0.056     2.247     2.344
   133   1 H        0.926     0.048     2.340     2.392
   134   1 H        0.926     0.051     2.312     2.378
   135   1 H        0.926     0.047     2.362     2.403
   136   1 H        0.926     0.044     2.398     2.422
   137   1 H        0.926     0.046     2.366     2.405
   138   1 H        0.926     0.046     2.367     2.406
   139   1 H        0.925     0.066     2.128     2.281
   140   1 H        0.925     0.052     2.295     2.369
   141   1 H        0.925     0.056     2.252     2.347
   142   1 H        0.925     0.044     2.390     2.418
   143   1 H        0.925     0.054     2.274     2.358
   144   1 H        0.926     0.043     2.414     2.430
   145   1 H        0.926     0.042     2.425     2.435
   146   1 H        0.926     0.038     2.472     2.459
   147   1 H        0.926     0.056     2.249     2.345
   148   1 H        0.926     0.075     2.028     2.227
   149   1 H        0.926     0.073     2.056     2.242
   150   1 H        0.926     0.069     2.100     2.266
   151   1 H        0.926     0.053     2.281     2.362
   152   1 H        0.926     0.044     2.396     2.421
   153   1 H        0.924     0.045     2.388     2.416
   154   1 H        0.924     0.043     2.411     2.428
   155   1 H        0.925     0.040     2.445     2.445
   156   1 H        0.925     0.039     2.462     2.454
   157   1 H        0.925     0.045     2.385     2.415
   158   1 H        0.926     0.047     2.356     2.400
   159   1 H        0.926     0.047     2.362     2.403
   160   1 H        0.926     0.049     2.338     2.391
   161   1 H        0.926     0.053     2.287     2.365
   162   1 H        0.924     0.044     2.401     2.423
   163   1 H        0.924     0.049     2.336     2.390
   164   1 H        0.925     0.040     2.447     2.446
   165   1 H        0.925     0.046     2.373     2.409
   166   1 H        0.925     0.038     2.482     2.463
   167   1 H        0.926     0.046     2.371     2.408
   168   1 H        0.926     0.061     2.193     2.316
   169   1 H        0.926     0.086     1.918     2.166
   170   1 H        0.925     0.073     2.053     2.241
   171   1 H        0.926     0.090     1.881     2.145
   172   1 H        0.925     0.077     2.010     2.217
   173   1 H        0.925     0.085     1.924     2.169
   174   1 H        0.925     0.086     1.923     2.169
   175   1 H        0.926     0.077     2.012     2.218

 Mol. C6AA /au·bohr⁶  :     566116.010139
 Mol. C8AA /au·bohr⁸  :   16144076.148285
 Mol. α(0) /au        :       1210.732755


Wiberg/Mayer (AO) data.
largest (>0.10) Wiberg bond orders for each atom

 ---------------------------------------------------------------------------
     #   Z sym  total        # sym  WBO       # sym  WBO       # sym  WBO
 ---------------------------------------------------------------------------
     1   6 C    3.940 --     2 C    1.512    19 C    1.277   118 H    0.938
     2   6 C    3.949 --     1 C    1.512    13 C    1.141     3 C    1.054
     3   6 C    3.911 --     4 O    1.711     2 C    1.054     5 C    1.026
     4   8 O    2.077 --     3 C    1.711
     5   6 C    3.973 --     6 C    1.420    12 C    1.290     3 C    1.026
     6   6 C    3.977 --     5 C    1.420     7 C    1.391   119 H    0.960
     7   6 C    3.962 --     6 C    1.391     9 C    1.345     8 C    1.039
     8   6 C    3.982 --     7 C    1.039   121 H    0.982   120 H    0.959
                           122 H    0.957
     9   6 C    3.865 --    11 C    1.404     7 C    1.345    10 F    0.952
    10   9 F    1.078 --     9 C    0.952
    11   6 C    3.975 --     9 C    1.404    12 C    1.393   123 H    0.957
    12   6 C    3.980 --    11 C    1.393     5 C    1.290    13 C    1.089
    13   6 C    3.965 --    14 C    1.471     2 C    1.141    12 C    1.089
    14   6 C    3.954 --    13 C    1.471    15 C    1.102    17 C    1.099
    15   6 C    3.941 --    16 N    2.739    14 C    1.102
    16   7 N    2.955 --    15 C    2.739
    17   6 C    3.940 --    18 N    2.751    14 C    1.099
    18   7 N    2.957 --    17 C    2.751
    19   6 C    3.940 --    20 C    1.417     1 C    1.277    53 S    1.093
    20   6 C    3.958 --    19 C    1.417    21 C    1.310   124 H    0.956
                            53 S    0.104
    21   6 C    3.965 --    20 C    1.310    22 C    1.240    52 C    1.215
    22   6 C    3.942 --    36 C    1.414    21 C    1.240    23 C    1.052
    23   6 C    3.974 --    35 C    1.479    24 C    1.272    22 C    1.052
    24   6 C    3.986 --    25 C    1.568    23 C    1.272   125 H    0.967
    25   6 C    3.988 --    24 C    1.568    26 C    1.269   126 H    0.966
                            35 C    0.107
    26   6 C    3.984 --    27 C    1.286    25 C    1.269    34 C    1.244
    27   6 C    3.985 --    28 C    1.492    26 C    1.286   127 H    0.960
                            33 C    0.103
    28   6 C    3.957 --    27 C    1.492    32 C    1.268    29 S    1.052
    29  16 S    2.246 --    28 C    1.052    30 C    0.980
    30   6 C    3.971 --    31 C    1.026    29 S    0.980   128 H    0.968
                           129 H    0.968
    31   6 C    3.991 --    30 C    1.026   131 H    0.986   130 H    0.983
                           132 H    0.977
    32   6 C    3.989 --    33 C    1.583    28 C    1.268   133 H    0.967
    33   6 C    3.983 --    32 C    1.583    34 C    1.259   134 H    0.965
                            27 C    0.103
    34   6 C    3.988 --    35 C    1.301    33 C    1.259    26 C    1.244
    35   6 C    3.975 --    23 C    1.479    34 C    1.301   135 H    0.963
                            25 C    0.107
    36   6 C    3.939 --    22 C    1.414    37 C    1.232    56 S    1.087
    37   6 C    3.956 --    38 C    1.278    54 C    1.241    36 C    1.232
    38   6 C    3.961 --    52 C    1.388    37 C    1.278    39 C    1.047
    39   6 C    3.978 --    40 C    1.498    51 C    1.263    38 C    1.047
    40   6 C    3.971 --    39 C    1.498    41 C    1.289   136 H    0.963
                            50 C    0.107
    41   6 C    3.988 --    40 C    1.289    42 C    1.273    49 C    1.243
    42   6 C    3.985 --    43 C    1.562    41 C    1.273   137 H    0.966
                            48 C    0.109
    43   6 C    3.990 --    42 C    1.562    44 C    1.288   138 H    0.963
    44   6 C    3.959 --    48 C    1.488    43 C    1.288    45 S    1.035
    45  16 S    2.213 --    44 C    1.035    46 C    0.977
    46   6 C    3.970 --    47 C    1.027    45 S    0.977   140 H    0.970
                           139 H    0.968
    47   6 C    3.992 --    46 C    1.027   143 H    0.986   142 H    0.984
                           141 H    0.977
    48   6 C    3.988 --    44 C    1.488    49 C    1.297   144 H    0.966
                            42 C    0.109
    49   6 C    3.985 --    48 C    1.297    50 C    1.263    41 C    1.243
    50   6 C    3.988 --    51 C    1.577    49 C    1.263   145 H    0.966
                            40 C    0.107
    51   6 C    3.988 --    50 C    1.577    39 C    1.263   146 H    0.967
    52   6 C    3.949 --    38 C    1.388    21 C    1.215    53 S    1.122
    53  16 S    2.635 --    52 C    1.122    19 C    1.093    20 C    0.104
    54   6 C    3.966 --    55 C    1.542    37 C    1.241   147 H    0.954
    55   6 C    3.920 --    54 C    1.542    57 C    1.112    56 S    1.109
    56  16 S    2.497 --    55 C    1.109    36 C    1.087
    57   6 C    3.950 --    58 C    1.445    65 C    1.186    55 C    1.112
    58   6 C    3.965 --    57 C    1.445    59 C    1.364   148 H    0.962
    59   6 C    3.966 --    60 C    1.439    58 C    1.364   149 H    0.963
    60   6 C    3.962 --    59 C    1.439    61 C    1.188    66 C    1.121
    61   6 C    3.966 --    62 N    1.386    60 C    1.188    65 C    1.178
    62   7 N    3.092 --    63 S    1.422    61 C    1.386    64 N    0.159
    63  16 S    3.186 --    64 N    1.431    62 N    1.422
    64   7 N    3.072 --    63 S    1.431    65 C    1.386    62 N    0.159
    65   6 C    3.969 --    64 N    1.386    57 C    1.186    61 C    1.178
    66   6 C    3.920 --    67 C    1.545    60 C    1.121    96 S    1.092
    67   6 C    3.937 --    66 C    1.545    68 C    1.240   150 H    0.954
    68   6 C    3.957 --    69 C    1.263    67 C    1.240    95 C    1.239
    69   6 C    3.959 --    81 C    1.367    68 C    1.263    70 C    1.094
    70   6 C    3.953 --    71 C    1.593    69 C    1.094    80 S    1.088
    71   6 C    3.958 --    70 C    1.593    72 C    1.203   151 H    0.955
    72   6 C    3.986 --    73 C    1.325    79 C    1.281    71 C    1.203
    73   6 C    3.980 --    74 C    1.470    72 C    1.325   152 H    0.965
                            78 C    0.107
    74   6 C    3.987 --    73 C    1.470    77 C    1.352    75 C    1.013
    75   6 C    3.996 --    74 C    1.013    76 C    1.000   154 H    0.974
                           153 H    0.973
    76   6 C    3.993 --    75 C    1.000   156 H    0.988   155 H    0.988
                           157 H    0.986
    77   6 C    3.978 --    78 C    1.479    74 C    1.352   158 H    0.967
    78   6 C    3.989 --    77 C    1.479    79 C    1.376   159 H    0.968
                            73 C    0.107
    79   6 C    3.947 --    78 C    1.376    72 C    1.281    80 S    1.102
    80  16 S    2.508 --    79 C    1.102    70 C    1.088
    81   6 C    3.939 --    69 C    1.367    82 C    1.230    99 S    1.117
    82   6 C    3.967 --    97 C    1.280    83 C    1.246    81 C    1.230
    83   6 C    3.937 --    95 C    1.372    82 C    1.246    84 C    1.097
    84   6 C    3.949 --    94 C    1.584    83 C    1.097    85 S    1.088
    85  16 S    2.537 --    86 C    1.097    84 C    1.088
    86   6 C    3.940 --    87 C    1.376    93 C    1.279    85 S    1.097
    87   6 C    3.988 --    88 C    1.479    86 C    1.376   160 H    0.967
                            92 C    0.106
    88   6 C    3.973 --    87 C    1.479    89 C    1.349   161 H    0.965
    89   6 C    3.986 --    92 C    1.472    88 C    1.349    90 C    1.013
    90   6 C    3.995 --    89 C    1.013    91 C    1.000   162 H    0.975
                           163 H    0.971
    91   6 C    3.993 --    90 C    1.000   166 H    0.988   164 H    0.988
                           165 H    0.985
    92   6 C    3.977 --    89 C    1.472    93 C    1.322   167 H    0.965
                            87 C    0.106
    93   6 C    3.983 --    92 C    1.322    86 C    1.279    94 C    1.206
    94   6 C    3.967 --    84 C    1.584    93 C    1.206   168 H    0.957
    95   6 C    3.941 --    83 C    1.372    68 C    1.239    96 S    1.116
    96  16 S    2.601 --    95 C    1.116    66 C    1.092
    97   6 C    3.947 --    98 C    1.467    82 C    1.280   169 H    0.948
    98   6 C    3.936 --    97 C    1.467   100 C    1.248    99 S    1.068
    99  16 S    2.506 --    81 C    1.117    98 C    1.068
   100   6 C    3.941 --   101 C    1.534    98 C    1.248   170 H    0.945
   101   6 C    3.948 --   100 C    1.534   112 C    1.136   102 C    1.035
   102   6 C    3.915 --   103 O    1.735   101 C    1.035   104 C    1.025
   103   8 O    2.026 --   102 C    1.735
   104   6 C    3.977 --   105 C    1.419   111 C    1.290   102 C    1.025
   105   6 C    3.977 --   104 C    1.419   106 C    1.392   171 H    0.960
   106   6 C    3.963 --   105 C    1.392   108 C    1.343   107 C    1.039
   107   6 C    3.982 --   106 C    1.039   172 H    0.982   174 H    0.958
                           173 H    0.957
   108   6 C    3.865 --   110 C    1.405   106 C    1.343   109 F    0.953
   109   9 F    1.079 --   108 C    0.953
   110   6 C    3.976 --   108 C    1.405   111 C    1.392   175 H    0.957
   111   6 C    3.981 --   110 C    1.392   104 C    1.290   112 C    1.090
   112   6 C    3.970 --   113 C    1.478   101 C    1.136   111 C    1.090
   113   6 C    3.947 --   112 C    1.478   114 C    1.099   116 C    1.099
   114   6 C    3.942 --   115 N    2.748   113 C    1.099
   115   7 N    2.954 --   114 C    2.748
   116   6 C    3.941 --   117 N    2.754   113 C    1.099
   117   7 N    2.960 --   116 C    2.754
   118   1 H    0.994 --     1 C    0.938
   119   1 H    0.992 --     6 C    0.960
   120   1 H    0.989 --     8 C    0.959
   121   1 H    0.994 --     8 C    0.982
   122   1 H    0.989 --     8 C    0.957
   123   1 H    0.993 --    11 C    0.957
   124   1 H    0.994 --    20 C    0.956
   125   1 H    0.997 --    24 C    0.967
   126   1 H    0.996 --    25 C    0.966
   127   1 H    0.998 --    27 C    0.960
   128   1 H    0.996 --    30 C    0.968
   129   1 H    0.995 --    30 C    0.968
   130   1 H    0.998 --    31 C    0.983
   131   1 H    0.997 --    31 C    0.986
   132   1 H    0.996 --    31 C    0.977
   133   1 H    0.997 --    32 C    0.967
   134   1 H    0.997 --    33 C    0.965
   135   1 H    0.997 --    35 C    0.963
   136   1 H    0.997 --    40 C    0.963
   137   1 H    0.997 --    42 C    0.966
   138   1 H    0.997 --    43 C    0.963
   139   1 H    0.995 --    46 C    0.968
   140   1 H    0.997 --    46 C    0.970
   141   1 H    0.996 --    47 C    0.977
   142   1 H    0.998 --    47 C    0.984
   143   1 H    0.997 --    47 C    0.986
   144   1 H    0.998 --    48 C    0.966
   145   1 H    0.997 --    50 C    0.966
   146   1 H    0.998 --    51 C    0.967
   147   1 H    0.996 --    54 C    0.954
   148   1 H    0.992 --    58 C    0.962
   149   1 H    0.993 --    59 C    0.963
   150   1 H    0.994 --    67 C    0.954
   151   1 H    0.997 --    71 C    0.955
   152   1 H    0.998 --    73 C    0.965
   153   1 H    0.997 --    75 C    0.973
   154   1 H    0.998 --    75 C    0.974
   155   1 H    0.998 --    76 C    0.988
   156   1 H    0.998 --    76 C    0.988
   157   1 H    0.997 --    76 C    0.986
   158   1 H    0.998 --    77 C    0.967
   159   1 H    0.997 --    78 C    0.968
   160   1 H    0.997 --    87 C    0.967
   161   1 H    0.997 --    88 C    0.965
   162   1 H    0.998 --    90 C    0.975
   163   1 H    0.997 --    90 C    0.971
   164   1 H    0.998 --    91 C    0.988
   165   1 H    0.997 --    91 C    0.985
   166   1 H    0.999 --    91 C    0.988
   167   1 H    0.998 --    92 C    0.965
   168   1 H    0.996 --    94 C    0.957
   169   1 H    0.992 --    97 C    0.948
   170   1 H    0.993 --   100 C    0.945
   171   1 H    0.991 --   105 C    0.960
   172   1 H    0.994 --   107 C    0.982
   173   1 H    0.989 --   107 C    0.957
   174   1 H    0.989 --   107 C    0.958
   175   1 H    0.993 --   110 C    0.957
 ---------------------------------------------------------------------------

Topologies differ in bond orders
Writing corrected topology to xtbtopo.mol

molecular dipole:
                 x           y           z       tot (Debye)
 q only:        2.073      -1.200       0.264
   full:        2.737      -1.020       0.470       7.520
molecular quadrupole (traceless):
                xx          xy          yy          xz          yz          zz
 q only:     -144.664      57.655      55.704     205.753     -29.889      88.960
  q+dip:     -141.571      41.258      64.276     216.405     -24.059      77.295
   full:     -145.810      49.632      72.846     211.366     -28.807      72.964


           -------------------------------------------------
          | TOTAL ENERGY             -303.777185935461 Eh   |
          | GRADIENT NORM               0.030800085652 Eh/α |
          | HOMO-LUMO GAP               0.528595059186 eV   |
           -------------------------------------------------

------------------------------------------------------------------------
 * finished run on 2022/02/03 at 21:07:52.777     
------------------------------------------------------------------------
 total:
 * wall-time:     0 d,  0 h,  0 min,  0.717 sec
 *  cpu-time:     0 d,  0 h,  0 min,  5.644 sec
 * ratio c/w:     7.874 speedup
 SCF:
 * wall-time:     0 d,  0 h,  0 min,  0.620 sec
 *  cpu-time:     0 d,  0 h,  0 min,  4.955 sec
 * ratio c/w:     7.996 speedup

