      -----------------------------------------------------------      
     |                   =====================                   |     
     |                           x T B                           |     
     |                   =====================                   |     
     |                         S. Grimme                         |     
     |          Mulliken Center for Theoretical Chemistry        |     
     |                    University of Bonn                     |     
      -----------------------------------------------------------      

   * xtb version 6.4.1 (unknown) compiled by 'oda6@login1.crc.pitt.edu' on 2021-06-25

   xtb is free software: you can redistribute it and/or modify it under
   the terms of the GNU Lesser General Public License as published by
   the Free Software Foundation, either version 3 of the License, or
   (at your option) any later version.
   
   xtb is distributed in the hope that it will be useful,
   but WITHOUT ANY WARRANTY; without even the implied warranty of
   MERCHANTABILITY or FITNESS FOR A PARTICULAR PURPOSE.  See the
   GNU Lesser General Public License for more details.
   
   Cite this work as:
   * C. Bannwarth, E. Caldeweyher, S. Ehlert, A. Hansen, P. Pracht,
     J. Seibert, S. Spicher, S. Grimme, WIREs Comput. Mol. Sci., 2020, 11,
     e01493. DOI: 10.1002/wcms.1493
   
   for GFN2-xTB:
   * C. Bannwarth, S. Ehlert and S. Grimme., J. Chem. Theory Comput., 2019,
     15, 1652-1671. DOI: 10.1021/acs.jctc.8b01176
   for GFN1-xTB:
   * S. Grimme, C. Bannwarth, P. Shushkov, J. Chem. Theory Comput., 2017,
     13, 1989-2009. DOI: 10.1021/acs.jctc.7b00118
   for GFN0-xTB:
   * P. Pracht, E. Caldeweyher, S. Ehlert, S. Grimme, ChemRxiv, 2019, preprint.
     DOI: 10.26434/chemrxiv.8326202.v1
   for GFN-FF:
   * S. Spicher and S. Grimme, Angew. Chem. Int. Ed., 2020, 59, 15665-15673.
     DOI: 10.1002/anie.202004239
   
   for DFT-D4:
   * E. Caldeweyher, C. Bannwarth and S. Grimme, J. Chem. Phys., 2017,
     147, 034112. DOI: 10.1063/1.4993215
   * E. Caldeweyher, S. Ehlert, A. Hansen, H. Neugebauer, S. Spicher,
     C. Bannwarth and S. Grimme, J. Chem. Phys., 2019, 150, 154122.
     DOI: 10.1063/1.5090222
   * E. Caldeweyher, J.-M. Mewes, S. Ehlert and S. Grimme, Phys. Chem. Chem. Phys.
     2020, 22, 8499-8512. DOI: 10.1039/D0CP00502A
   
   for sTDA-xTB:
   * S. Grimme and C. Bannwarth, J. Chem. Phys., 2016, 145, 054103.
     DOI: 10.1063/1.4959605
   
   in the mass-spec context:
   * V. Asgeirsson, C. Bauer and S. Grimme, Chem. Sci., 2017, 8, 4879.
     DOI: 10.1039/c7sc00601b
   * J. Koopman and S. Grimme, ACS Omega 2019, 4, 12, 15120-15133.
     DOI: 10.1021/acsomega.9b02011
   
   for metadynamics refer to:
   * S. Grimme, J. Chem. Theory Comput., 2019, 155, 2847-2862
     DOI: 10.1021/acs.jctc.9b00143
   
   for SPH calculations refer to:
   * S. Spicher and S. Grimme, J. Chem. Theory Comput., 2021, 17, 1701-1714
     DOI: 10.1021/acs.jctc.0c01306
   
   with help from (in alphabetical order)
   P. Atkinson, C. Bannwarth, F. Bohle, G. Brandenburg, E. Caldeweyher
   M. Checinski, S. Dohm, S. Ehlert, S. Ehrlich, I. Gerasimov, J. Koopman
   C. Lavigne, S. Lehtola, F. März, M. Müller, F. Musil, H. Neugebauer
   J. Pisarek, C. Plett, P. Pracht, J. Seibert, P. Shushkov, S. Spicher
   M. Stahn, M. Steiner, T. Strunk, J. Stückrath, T. Rose, and J. Unsleber
   
 * started run on 2022/02/07 at 23:24:31.369     

           -------------------------------------------------
          |                Calculation Setup                |
           -------------------------------------------------

          program call               : /ihome/ghutchison/oda6/xtb/xtb-641/bin/xtb ../../GFN2_output/37_130_130_115_37.mol --sp --alpb water
          hostname                   : smp-n26
          coordinate file            : ../../GFN2_output/37_130_130_115_37.mol
          omp threads                :                     8
          number of atoms            :                   223
          number of electrons        :                   678
          charge                     :                     0
          spin                       :                   0.0
          first test random number   :      0.60043415428926

   ID    Z sym.   atoms
    1    6 C      1-3, 5-7, 9-15, 17, 19, 20, 22-25, 27-33, 35-38, 40, 41,
                  43-46, 48-54, 56-59, 61, 62, 64-67, 69-75, 77-80, 82, 83,
                  85-88, 90-96, 98-101, 103-108, 110-118, 120-122, 124-126,
                  128-134, 136
    2    8 O      4, 8, 123, 127
    3    7 N      16, 18, 21, 42, 63, 84, 135, 137
    4   16 S      26, 34, 39, 47, 55, 60, 68, 76, 81, 89, 97, 102, 109, 119
    5    1 H      138-223

           -------------------------------------------------
          |                 G F N 2 - x T B                 |
           -------------------------------------------------

        Reference                      10.1021/acs.jctc.8b01176
      * Hamiltonian:
        H0-scaling (s, p, d)           1.850000    2.230000    2.230000
        zeta-weighting                 0.500000
      * Dispersion:
        s8                             2.700000
        a1                             0.520000
        a2                             5.000000
        s9                             5.000000
      * Repulsion:
        kExp                           1.500000    1.000000
        rExp                           1.000000
      * Coulomb:
        alpha                          2.000000
        third order                    shell-resolved
        anisotropic                    true
        a3                             3.000000
        a5                             4.000000
        cn-shift                       1.200000
        cn-exp                         4.000000
        max-rad                        5.000000

      * Solvation model:               ALPB
        Solvent                        water
        Parameter file                 internal GFN2-xTB/ALPB
        Dielectric constant                8.0200E+01
        Reference state                gsolv [1 M gas/solution]
        Free energy shift                  1.0808E-03 Eh       6.7819E-01 kcal/mol
        Temperature                        2.9815E+02 K
        Density                            1.0000E+00 kg/L
        Solvent mass                       1.8000E+01 g/mol
        Interaction kernel             P16
        Born radius scaling (c1)           1.4744E+00
        Born radii integrator          GBOBC
        Born offset                        0.0000E+00 a0       0.0000E+00 AA
        H-bond correction              true
        Ion screening                  false
        Surface tension                    1.0000E-05 Eh       1.5569E+01 dyn/cm
        Grid points                               230 per atom

          ...................................................
          :                      SETUP                      :
          :.................................................:
          :  # basis functions                 718          :
          :  # atomic orbitals                 704          :
          :  # shells                          374          :
          :  # electrons                       678          :
          :  max. iterations                   250          :
          :  Hamiltonian                  GFN2-xTB          :
          :  restarted?                      false          :
          :  GBSA solvation                   true          :
          :  PC potential                    false          :
          :  electronic temp.          300.0000000     K    :
          :  accuracy                    1.0000000          :
          :  -> integral cutoff          0.2500000E+02      :
          :  -> integral neglect         0.1000000E-07      :
          :  -> SCF convergence          0.1000000E-05 Eh   :
          :  -> wf. convergence          0.1000000E-03 e    :
          :  Broyden damping             0.4000000          :
          ...................................................

 iter      E             dE          RMSdq      gap      omega  full diag
   1   -372.0559759 -0.372056E+03  0.473E+00    0.34       0.0  T
   2   -372.3078174 -0.251841E+00  0.270E+00    0.70       1.0  T
   3   -372.1269202  0.180897E+00  0.127E+00    0.37       1.0  T
   4   -372.3542019 -0.227282E+00  0.510E-01    0.49       1.0  T
   5   -372.3845731 -0.303711E-01  0.179E-01    0.44       1.0  T
   6   -372.3855704 -0.997372E-03  0.760E-02    0.44       1.0  T
   7   -372.3859599 -0.389450E-03  0.283E-02    0.44       1.0  T
   8   -372.3859826 -0.227267E-04  0.168E-02    0.45       1.0  T
   9   -372.3859974 -0.148180E-04  0.876E-03    0.45       1.0  T
  10   -372.3860008 -0.336210E-05  0.450E-03    0.45       1.5  T
  11   -372.3860023 -0.154159E-05  0.277E-03    0.45       2.4  T
  12   -372.3860027 -0.322701E-06  0.151E-03    0.45       4.4  T
  13   -372.3860028 -0.132994E-06  0.830E-04    0.45       8.1  T
  14   -372.3860028 -0.453575E-07  0.464E-04    0.45      14.4  T

   *** convergence criteria satisfied after 14 iterations ***

         #    Occupation            Energy/Eh            Energy/eV
      -------------------------------------------------------------
         1        2.0000           -0.7497910             -20.4029
       ...           ...                  ...                  ...
       333        2.0000           -0.3650530              -9.9336
       334        2.0000           -0.3646622              -9.9230
       335        2.0000           -0.3604328              -9.8079
       336        2.0000           -0.3556834              -9.6786
       337        2.0000           -0.3545430              -9.6476
       338        2.0000           -0.3481981              -9.4750
       339        1.9997           -0.3453973              -9.3987 (HOMO)
       340        0.0003           -0.3287685              -8.9462 (LUMO)
       341        0.0000           -0.3252550              -8.8506
       342                         -0.3194114              -8.6916
       343                         -0.3178048              -8.6479
       344                         -0.2945654              -8.0155
       ...                                ...                  ...
       704                          1.1549691              31.4283
      -------------------------------------------------------------
                  HL-Gap            0.0166288 Eh            0.4525 eV
             Fermi-level           -0.3370702 Eh           -9.1721 eV

 SCC (total)                   0 d,  0 h,  0 min,  0.901 sec
 SCC setup                      ...        0 min,  0.009 sec (  0.991%)
 Dispersion                     ...        0 min,  0.012 sec (  1.299%)
 classical contributions        ...        0 min,  0.000 sec (  0.046%)
 integral evaluation            ...        0 min,  0.046 sec (  5.064%)
 iterations                     ...        0 min,  0.670 sec ( 74.350%)
 molecular gradient             ...        0 min,  0.160 sec ( 17.811%)
 printout                       ...        0 min,  0.004 sec (  0.431%)

         :::::::::::::::::::::::::::::::::::::::::::::::::::::
         ::                     SUMMARY                     ::
         :::::::::::::::::::::::::::::::::::::::::::::::::::::
         :: total energy            -366.608396846329 Eh    ::
         :: total w/o Gsasa/hb      -366.592102209882 Eh    ::
         :: gradient norm              0.039407777081 Eh/a0 ::
         :: HOMO-LUMO gap              0.452491520123 eV    ::
         ::.................................................::
         :: SCC energy              -372.386002837311 Eh    ::
         :: -> isotropic ES            0.191838038173 Eh    ::
         :: -> anisotropic ES          0.019983696519 Eh    ::
         :: -> anisotropic XC          0.222642659363 Eh    ::
         :: -> dispersion             -0.399586394856 Eh    ::
         :: -> Gsolv                  -0.059237929186 Eh    ::
         ::    -> Gelec               -0.042943292739 Eh    ::
         ::    -> Gsasa               -0.008584640485 Eh    ::
         ::    -> Ghb                 -0.008790755660 Eh    ::
         ::    -> Gshift               0.001080759698 Eh    ::
         :: repulsion energy           5.760784921172 Eh    ::
         :: add. restraining           0.000000000000 Eh    ::
         :: total charge               0.000000000489 e     ::
         :::::::::::::::::::::::::::::::::::::::::::::::::::::

           -------------------------------------------------
          |                Property Printout                |
           -------------------------------------------------

    * Orbital Energies and Occupations

         #    Occupation            Energy/Eh            Energy/eV
      -------------------------------------------------------------
         1        2.0000           -0.7497910             -20.4029
       ...           ...                  ...                  ...
       327        2.0000           -0.3869790             -10.5302
       328        2.0000           -0.3836255             -10.4390
       329        2.0000           -0.3833462             -10.4314
       330        2.0000           -0.3787097             -10.3052
       331        2.0000           -0.3702188             -10.0742
       332        2.0000           -0.3665515              -9.9744
       333        2.0000           -0.3650530              -9.9336
       334        2.0000           -0.3646622              -9.9230
       335        2.0000           -0.3604328              -9.8079
       336        2.0000           -0.3556834              -9.6786
       337        2.0000           -0.3545430              -9.6476
       338        2.0000           -0.3481981              -9.4750
       339        1.9997           -0.3453973              -9.3987 (HOMO)
       340        0.0003           -0.3287685              -8.9462 (LUMO)
       341        0.0000           -0.3252550              -8.8506
       342                         -0.3194114              -8.6916
       343                         -0.3178048              -8.6479
       344                         -0.2945654              -8.0155
       345                         -0.2782478              -7.5715
       346                         -0.2621924              -7.1346
       347                         -0.2534695              -6.8973
       348                         -0.2492346              -6.7820
       349                         -0.2482101              -6.7541
       350                         -0.2476488              -6.7389
       ...                                ...                  ...
       704                          1.1549691              31.4283
      -------------------------------------------------------------
                  HL-Gap            0.0166288 Eh            0.4525 eV
             Fermi-level           -0.3370702 Eh           -9.1721 eV

     #   Z          covCN         q      C6AA      α(0)
     1   6 C        2.918    -0.019    28.488     8.753
     2   6 C        3.011    -0.050    29.212     8.866
     3   6 C        2.876     0.226    23.257     7.906
     4   8 O        0.956    -0.426    22.167     6.315
     5   6 C        3.045    -0.020    28.460     8.750
     6   6 C        2.913    -0.041    29.030     8.835
     7   6 C        2.866     0.157    24.595     8.129
     8   8 O        1.706    -0.264    18.378     5.788
     9   6 C        3.644     0.011    20.739     6.546
    10   6 C        2.918    -0.062    29.536     8.912
    11   6 C        2.914    -0.027    28.679     8.782
    12   6 C        3.036    -0.008    28.177     8.707
    13   6 C        3.021     0.032    27.261     8.565
    14   6 C        2.947    -0.010    28.264     8.720
    15   6 C        1.944     0.126    27.998     8.545
    16   7 N        0.911    -0.299    27.687     7.610
    17   6 C        1.946     0.132    27.863     8.524
    18   7 N        0.911    -0.297    27.648     7.605
    19   6 C        2.986     0.007    27.859     8.658
    20   6 C        3.056     0.058    26.655     8.467
    21   7 N        2.748    -0.047    22.154     6.991
    22   6 C        2.938     0.057    26.721     8.478
    23   6 C        2.922    -0.040    29.002     8.831
    24   6 C        2.943    -0.043    29.056     8.841
    25   6 C        2.965     0.050    26.886     8.505
    26  16 S        2.036    -0.168   148.145    20.486
    27   6 C        3.745    -0.059    21.711     6.647
    28   6 C        2.986    -0.040    28.983     8.831
    29   6 C        2.924    -0.041    29.009     8.833
    30   6 C        2.925     0.056    26.745     8.481
    31   6 C        2.921    -0.037    28.918     8.819
    32   6 C        2.979    -0.039    28.952     8.826
    33   6 C        2.966     0.048    26.931     8.512
    34  16 S        2.032    -0.192   149.207    20.559
    35   6 C        3.744    -0.064    21.794     6.660
    36   6 C        2.947    -0.040    29.005     8.833
    37   6 C        2.923    -0.042    29.044     8.838
    38   6 C        3.167     0.000    27.665     8.595
    39  16 S        2.292    -0.055   143.351    20.151
    40   6 C        3.016     0.007    27.838     8.655
    41   6 C        3.063     0.047    26.885     8.503
    42   7 N        2.747    -0.065    22.494     7.044
    43   6 C        2.935     0.061    26.644     8.465
    44   6 C        2.926    -0.043    29.063     8.841
    45   6 C        2.950    -0.037    28.913     8.819
    46   6 C        2.967     0.049    26.887     8.505
    47  16 S        2.030    -0.204   149.732    20.595
    48   6 C        3.744    -0.054    21.616     6.632
    49   6 C        2.974    -0.039    28.956     8.827
    50   6 C        2.921    -0.044    29.099     8.846
    51   6 C        2.933     0.061    26.634     8.464
    52   6 C        2.923    -0.045    29.129     8.851
    53   6 C        2.974    -0.039    28.963     8.828
    54   6 C        2.966     0.043    27.022     8.527
    55  16 S        2.029    -0.193   149.244    20.561
    56   6 C        3.744    -0.053    21.605     6.631
    57   6 C        2.948    -0.043    29.059     8.841
    58   6 C        2.924    -0.049    29.217     8.864
    59   6 C        3.159    -0.002    27.763     8.614
    60  16 S        2.320    -0.050   143.109    20.134
    61   6 C        3.038     0.004    27.904     8.664
    62   6 C        3.066     0.046    26.912     8.506
    63   7 N        2.756    -0.069    22.578     7.057
    64   6 C        2.932     0.063    26.599     8.458
    65   6 C        2.924    -0.048    29.180     8.858
    66   6 C        2.983    -0.039    28.973     8.829
    67   6 C        2.965     0.040    27.112     8.541
    68  16 S        2.032    -0.200   149.560    20.583
    69   6 C        3.744    -0.057    21.674     6.641
    70   6 C        2.941    -0.045    29.127     8.851
    71   6 C        2.924    -0.053    29.308     8.878
    72   6 C        2.931     0.058    26.704     8.475
    73   6 C        2.922    -0.046    29.150     8.854
    74   6 C        2.943    -0.046    29.143     8.854
    75   6 C        2.966     0.049    26.893     8.506
    76  16 S        2.034    -0.192   149.206    20.559
    77   6 C        3.744    -0.065    21.825     6.664
    78   6 C        2.984    -0.037    28.905     8.819
    79   6 C        2.923    -0.041    29.027     8.835
    80   6 C        3.172     0.002    27.599     8.581
    81  16 S        2.446    -0.039   142.680    20.104
    82   6 C        3.055     0.011    27.708     8.633
    83   6 C        3.070     0.051    26.795     8.488
    84   7 N        2.746    -0.090    22.988     7.121
    85   6 C        2.919     0.065    26.552     8.450
    86   6 C        2.923    -0.054    29.346     8.884
    87   6 C        2.982    -0.043    29.069     8.844
    88   6 C        2.965     0.039    27.114     8.541
    89  16 S        2.030    -0.220   150.454    20.645
    90   6 C        3.744    -0.060    21.730     6.650
    91   6 C        2.942    -0.047    29.166     8.857
    92   6 C        2.925    -0.053    29.321     8.880
    93   6 C        2.931     0.059    26.675     8.470
    94   6 C        2.923    -0.047    29.169     8.857
    95   6 C        2.944    -0.043    29.060     8.841
    96   6 C        2.966     0.046    26.971     8.519
    97  16 S        2.030    -0.205   149.790    20.599
    98   6 C        3.744    -0.061    21.746     6.652
    99   6 C        2.979    -0.044    29.079     8.846
   100   6 C        2.923    -0.049    29.225     8.865
   101   6 C        3.195     0.002    27.456     8.543
   102  16 S        2.266    -0.048   143.051    20.130
   103   6 C        3.059     0.016    27.585     8.613
   104   6 C        3.093     0.004    27.823     8.645
   105   6 C        3.804    -0.056    21.577     6.613
   106   6 C        3.753    -0.109    22.646     6.786
   107   6 C        3.232    -0.017    27.567     8.523
   108   6 C        3.069     0.017    27.566     8.609
   109  16 S        2.407    -0.027   142.185    20.069
   110   6 C        3.073     0.031    27.234     8.557
   111   6 C        3.225    -0.004    27.332     8.494
   112   6 C        3.935     0.023    20.125     6.375
   113   6 C        3.802    -0.053    21.530     6.606
   114   6 C        3.751    -0.112    22.714     6.797
   115   6 C        3.807    -0.051    21.482     6.598
   116   6 C        3.751    -0.112    22.712     6.797
   117   6 C        3.055    -0.037    28.858     8.810
   118   6 C        2.991     0.024    27.449     8.594
   119  16 S        2.270    -0.014   141.639    20.031
   120   6 C        2.953    -0.014    28.352     8.733
   121   6 C        3.002    -0.044    29.067     8.844
   122   6 C        2.868     0.229    23.198     7.895
   123   8 O        0.856    -0.432    22.325     6.335
   124   6 C        3.049    -0.020    28.446     8.747
   125   6 C        2.911    -0.054    29.343     8.883
   126   6 C        2.869     0.159    24.570     8.125
   127   8 O        1.706    -0.263    18.359     5.785
   128   6 C        3.645     0.011    20.724     6.543
   129   6 C        2.922    -0.051    29.271     8.872
   130   6 C        2.913    -0.026    28.646     8.776
   131   6 C        3.031    -0.005    28.120     8.698
   132   6 C        3.024     0.036    27.170     8.550
   133   6 C        2.947    -0.006    28.160     8.703
   134   6 C        1.946     0.130    27.898     8.530
   135   7 N        0.911    -0.296    27.634     7.603
   136   6 C        1.949     0.133    27.837     8.520
   137   7 N        0.911    -0.292    27.536     7.589
   138   1 H        0.925     0.057     2.235     2.338
   139   1 H        0.926     0.072     2.059     2.244
   140   1 H        0.925     0.093     1.849     2.127
   141   1 H        0.924     0.065     2.136     2.285
   142   1 H        0.924     0.065     2.145     2.290
   143   1 H        0.926     0.076     2.021     2.223
   144   1 H        0.926     0.058     2.217     2.328
   145   1 H        0.926     0.049     2.330     2.387
   146   1 H        0.926     0.060     2.203     2.321
   147   1 H        0.925     0.083     1.951     2.184
   148   1 H        0.925     0.076     2.024     2.225
   149   1 H        0.925     0.063     2.166     2.301
   150   1 H        0.926     0.056     2.247     2.344
   151   1 H        0.926     0.041     2.434     2.440
   152   1 H        0.926     0.061     2.193     2.316
   153   1 H        0.926     0.054     2.266     2.354
   154   1 H        0.925     0.076     2.018     2.222
   155   1 H        0.925     0.085     1.925     2.170
   156   1 H        0.925     0.068     2.107     2.270
   157   1 H        0.926     0.057     2.234     2.337
   158   1 H        0.926     0.030     2.587     2.515
   159   1 H        0.926     0.039     2.464     2.455
   160   1 H        0.926     0.049     2.338     2.391
   161   1 H        0.925     0.071     2.070     2.250
   162   1 H        0.925     0.063     2.169     2.303
   163   1 H        0.925     0.064     2.157     2.297
   164   1 H        0.926     0.053     2.289     2.366
   165   1 H        0.926     0.047     2.354     2.400
   166   1 H        0.926     0.048     2.345     2.395
   167   1 H        0.926     0.054     2.273     2.358
   168   1 H        0.925     0.062     2.175     2.306
   169   1 H        0.925     0.061     2.183     2.311
   170   1 H        0.925     0.080     1.976     2.198
   171   1 H        0.926     0.048     2.341     2.393
   172   1 H        0.926     0.031     2.567     2.506
   173   1 H        0.926     0.044     2.393     2.419
   174   1 H        0.926     0.044     2.395     2.420
   175   1 H        0.925     0.069     2.092     2.262
   176   1 H        0.925     0.061     2.184     2.311
   177   1 H        0.925     0.077     2.008     2.216
   178   1 H        0.926     0.044     2.402     2.424
   179   1 H        0.926     0.027     2.628     2.535
   180   1 H        0.926     0.047     2.352     2.398
   181   1 H        0.926     0.056     2.250     2.346
   182   1 H        0.925     0.079     1.988     2.205
   183   1 H        0.925     0.072     2.061     2.245
   184   1 H        0.925     0.072     2.065     2.247
   185   1 H        0.926     0.051     2.305     2.374
   186   1 H        0.926     0.036     2.508     2.477
   187   1 H        0.926     0.024     2.679     2.560
   188   1 H        0.926     0.037     2.493     2.469
   189   1 H        0.925     0.069     2.097     2.264
   190   1 H        0.925     0.076     2.021     2.223
   191   1 H        0.925     0.069     2.096     2.264
   192   1 H        0.926     0.047     2.357     2.401
   193   1 H        0.926     0.048     2.351     2.398
   194   1 H        0.926     0.041     2.434     2.440
   195   1 H        0.926     0.057     2.238     2.340
   196   1 H        0.925     0.071     2.073     2.251
   197   1 H        0.925     0.076     2.021     2.223
   198   1 H        0.925     0.070     2.085     2.258
   199   1 H        0.926     0.046     2.372     2.409
   200   1 H        0.926     0.036     2.498     2.472
   201   1 H        0.924     0.055     2.255     2.348
   202   1 H        0.925     0.044     2.403     2.424
   203   1 H        0.925     0.041     2.433     2.439
   204   1 H        0.925     0.046     2.369     2.407
   205   1 H        0.925     0.052     2.299     2.371
   206   1 H        0.924     0.043     2.413     2.429
   207   1 H        0.924     0.057     2.233     2.337
   208   1 H        0.925     0.046     2.370     2.407
   209   1 H        0.925     0.034     2.525     2.485
   210   1 H        0.925     0.051     2.311     2.377
   211   1 H        0.924     0.051     2.313     2.378
   212   1 H        0.924     0.034     2.530     2.487
   213   1 H        0.925     0.044     2.391     2.418
   214   1 H        0.925     0.044     2.392     2.418
   215   1 H        0.925     0.052     2.300     2.372
   216   1 H        0.926     0.098     1.802     2.099
   217   1 H        0.925     0.061     2.183     2.310
   218   1 H        0.926     0.075     2.033     2.230
   219   1 H        0.925     0.093     1.853     2.129
   220   1 H        0.924     0.064     2.149     2.292
   221   1 H        0.924     0.064     2.148     2.292
   222   1 H        0.926     0.081     1.970     2.195
   223   1 H        0.926     0.060     2.193     2.316

 Mol. C6AA /au·bohr⁶  :     866617.331489
 Mol. C8AA /au·bohr⁸  :   24936643.019631
 Mol. α(0) /au        :       1496.386352


Wiberg/Mayer (AO) data.
largest (>0.10) Wiberg bond orders for each atom

 ---------------------------------------------------------------------------
     #   Z sym  total        # sym  WBO       # sym  WBO       # sym  WBO
 ---------------------------------------------------------------------------
     1   6 C    3.939 --     2 C    1.423    19 C    1.370   138 H    0.934
     2   6 C    3.945 --     1 C    1.423    13 C    1.162     3 C    1.094
     3   6 C    3.902 --     4 O    1.653     2 C    1.094     5 C    1.022
     4   8 O    2.052 --     3 C    1.653    60 S    0.120
     5   6 C    3.975 --     6 C    1.466    12 C    1.267     3 C    1.022
     6   6 C    3.975 --     5 C    1.466     7 C    1.307   139 H    0.962
     7   6 C    3.922 --    10 C    1.359     6 C    1.307     8 O    1.104
     8   8 O    2.249 --     7 C    1.104     9 C    0.964
     9   6 C    3.918 --   140 H    0.975   142 H    0.974   141 H    0.973
                             8 O    0.964
    10   6 C    3.969 --    11 C    1.435     7 C    1.359   143 H    0.962
    11   6 C    3.972 --    10 C    1.435    12 C    1.402   144 H    0.961
    12   6 C    3.976 --    11 C    1.402     5 C    1.267    13 C    1.094
    13   6 C    3.962 --    14 C    1.435     2 C    1.162    12 C    1.094
    14   6 C    3.940 --    13 C    1.435    15 C    1.113    17 C    1.108
    15   6 C    3.939 --    16 N    2.720    14 C    1.113
    16   7 N    2.945 --    15 C    2.720
    17   6 C    3.937 --    18 N    2.737    14 C    1.108
    18   7 N    2.945 --    17 C    2.737
    19   6 C    3.920 --     1 C    1.370    20 C    1.257    60 S    1.068
    20   6 C    3.938 --    38 C    1.279    19 C    1.257    21 N    1.148
    21   7 N    3.518 --    20 C    1.148    22 C    1.038    30 C    1.034
    22   6 C    3.956 --    23 C    1.369    29 C    1.342    21 N    1.038
    23   6 C    3.972 --    24 C    1.454    22 C    1.369   145 H    0.963
    24   6 C    3.986 --    23 C    1.454    25 C    1.380   146 H    0.962
    25   6 C    3.949 --    24 C    1.380    28 C    1.358    26 S    1.066
    26  16 S    2.273 --    25 C    1.066    27 C    1.008
    27   6 C    3.966 --    26 S    1.008   148 H    0.979   149 H    0.978
                           147 H    0.973
    28   6 C    3.987 --    29 C    1.483    25 C    1.358   150 H    0.966
    29   6 C    3.981 --    28 C    1.483    22 C    1.342   151 H    0.966
    30   6 C    3.957 --    37 C    1.367    31 C    1.356    21 N    1.034
    31   6 C    3.979 --    32 C    1.469    30 C    1.356   152 H    0.964
    32   6 C    3.989 --    31 C    1.469    33 C    1.374   153 H    0.967
                            37 C    0.101
    33   6 C    3.953 --    36 C    1.379    32 C    1.374    34 S    1.053
    34  16 S    2.246 --    33 C    1.053    35 C    1.005
    35   6 C    3.964 --    34 S    1.005   156 H    0.980   154 H    0.978
                           155 H    0.974
    36   6 C    3.987 --    37 C    1.459    33 C    1.379   157 H    0.963
    37   6 C    3.984 --    36 C    1.459    30 C    1.367   158 H    0.966
                            32 C    0.101
    38   6 C    3.931 --    59 C    1.333    20 C    1.279    39 S    1.097
    39  16 S    2.582 --    38 C    1.097    40 C    1.091
    40   6 C    3.900 --    41 C    1.370    61 C    1.217    39 S    1.091
    41   6 C    3.937 --    40 C    1.370    59 C    1.238    42 N    1.081
    42   7 N    3.481 --    41 C    1.081    51 C    1.058    43 C    1.040
    43   6 C    3.963 --    44 C    1.365    50 C    1.361    42 N    1.040
    44   6 C    3.983 --    45 C    1.454    43 C    1.365   159 H    0.967
    45   6 C    3.989 --    44 C    1.454    46 C    1.390   160 H    0.966
    46   6 C    3.953 --    45 C    1.390    49 C    1.380    47 S    1.035
    47  16 S    2.204 --    46 C    1.035    48 C    1.002
    48   6 C    3.969 --    47 S    1.002   162 H    0.982   161 H    0.978
                           163 H    0.976
    49   6 C    3.989 --    50 C    1.469    46 C    1.380   164 H    0.967
    50   6 C    3.982 --    49 C    1.469    43 C    1.361   165 H    0.964
    51   6 C    3.961 --    58 C    1.361    52 C    1.341    42 N    1.058
    52   6 C    3.981 --    53 C    1.479    51 C    1.341   166 H    0.966
    53   6 C    3.989 --    52 C    1.479    54 C    1.368   167 H    0.967
    54   6 C    3.950 --    57 C    1.391    53 C    1.368    55 S    1.039
    55  16 S    2.236 --    54 C    1.039    56 C    1.005
    56   6 C    3.968 --    55 S    1.005   169 H    0.982   168 H    0.981
                           170 H    0.974
    57   6 C    3.989 --    58 C    1.453    54 C    1.391   171 H    0.965
    58   6 C    3.983 --    57 C    1.453    51 C    1.361   172 H    0.966
    59   6 C    3.936 --    38 C    1.333    41 C    1.238    60 S    1.124
    60  16 S    2.653 --    59 C    1.124    19 C    1.068     4 O    0.120
    61   6 C    3.912 --    62 C    1.380    40 C    1.217   102 S    1.092
    62   6 C    3.928 --    61 C    1.380    80 C    1.253    63 N    1.046
    63   7 N    3.473 --    64 C    1.082    62 C    1.046    72 C    1.033
    64   6 C    3.963 --    71 C    1.355    65 C    1.330    63 N    1.082
    65   6 C    3.979 --    66 C    1.485    64 C    1.330   173 H    0.962
    66   6 C    3.989 --    65 C    1.485    67 C    1.363   174 H    0.966
    67   6 C    3.947 --    70 C    1.389    66 C    1.363    68 S    1.039
    68  16 S    2.236 --    67 C    1.039    69 C    1.010
    69   6 C    3.970 --    68 S    1.010   176 H    0.981   175 H    0.979
                           177 H    0.975
    70   6 C    3.989 --    71 C    1.452    67 C    1.389   178 H    0.965
    71   6 C    3.981 --    70 C    1.452    64 C    1.355   179 H    0.966
    72   6 C    3.959 --    73 C    1.374    79 C    1.359    63 N    1.033
    73   6 C    3.983 --    74 C    1.450    72 C    1.374   180 H    0.966
                            78 C    0.102
    74   6 C    3.987 --    73 C    1.450    75 C    1.386   181 H    0.963
    75   6 C    3.954 --    74 C    1.386    78 C    1.368    76 S    1.050
    76  16 S    2.255 --    75 C    1.050    77 C    1.008
    77   6 C    3.967 --    76 S    1.008   184 H    0.979   183 H    0.979
                           182 H    0.975
    78   6 C    3.990 --    79 C    1.475    75 C    1.368   185 H    0.967
                            73 C    0.102
    79   6 C    3.984 --    78 C    1.475    72 C    1.359   186 H    0.967
    80   6 C    3.932 --   101 C    1.352    62 C    1.253    81 S    1.112
    81  16 S    2.541 --    80 C    1.112    82 C    1.091
    82   6 C    3.913 --    83 C    1.467   103 C    1.148    81 S    1.091
    83   6 C    3.949 --    82 C    1.467   101 C    1.238    84 N    1.001
    84   7 N    3.412 --    85 C    1.088    93 C    1.031    83 C    1.001
    85   6 C    3.965 --    92 C    1.348    86 C    1.341    84 N    1.088
    86   6 C    3.984 --    87 C    1.470    85 C    1.341   187 H    0.964
    87   6 C    3.990 --    86 C    1.470    88 C    1.374   188 H    0.968
                            92 C    0.102
    88   6 C    3.952 --    91 C    1.383    87 C    1.374    89 S    1.035
    89  16 S    2.229 --    88 C    1.035    90 C    1.009
    90   6 C    3.969 --    89 S    1.009   189 H    0.980   191 H    0.980
                           190 H    0.976
    91   6 C    3.988 --    92 C    1.458    88 C    1.383   192 H    0.964
    92   6 C    3.986 --    91 C    1.458    85 C    1.348   193 H    0.963
                            87 C    0.102
    93   6 C    3.963 --    94 C    1.372   100 C    1.362    84 N    1.031
    94   6 C    3.987 --    95 C    1.451    93 C    1.372   194 H    0.964
                            99 C    0.102
    95   6 C    3.987 --    94 C    1.451    96 C    1.387   195 H    0.961
    96   6 C    3.956 --    95 C    1.387    99 C    1.374    97 S    1.042
    97  16 S    2.239 --    96 C    1.042    98 C    1.007
    98   6 C    3.967 --    97 S    1.007   198 H    0.980   197 H    0.976
                           196 H    0.975
    99   6 C    3.990 --   100 C    1.469    96 C    1.374   199 H    0.968
                            94 C    0.102
   100   6 C    3.985 --    99 C    1.469    93 C    1.362   200 H    0.965
   101   6 C    3.921 --    80 C    1.352    83 C    1.238   102 S    1.110
   102  16 S    2.555 --   101 C    1.110    61 C    1.092
   103   6 C    3.895 --   104 C    1.430    82 C    1.148   109 S    1.115
   104   6 C    3.966 --   103 C    1.430   107 C    1.316   105 C    1.012
   105   6 C    3.993 --   104 C    1.012   106 C    0.996   202 H    0.966
                           201 H    0.959
   106   6 C    3.989 --   105 C    0.996   203 H    0.983   204 H    0.982
                           205 H    0.981
   107   6 C    3.940 --   108 C    1.373   104 C    1.316   112 C    0.982
   108   6 C    3.931 --   107 C    1.373   110 C    1.215   109 S    1.143
   109  16 S    2.597 --   108 C    1.143   103 C    1.115
   110   6 C    3.926 --   111 C    1.313   108 C    1.215   119 S    1.198
   111   6 C    3.958 --   117 C    1.421   110 C    1.313   112 C    0.988
   112   6 C    3.985 --   111 C    0.988   107 C    0.982   113 C    0.957
                           115 C    0.949
   113   6 C    3.992 --   114 C    1.019   206 H    0.974   207 H    0.971
                           112 C    0.957
   114   6 C    3.993 --   113 C    1.019   209 H    0.986   208 H    0.984
                           210 H    0.982
   115   6 C    3.991 --   116 C    1.018   212 H    0.977   211 H    0.965
                           112 C    0.949
   116   6 C    3.991 --   115 C    1.018   215 H    0.983   214 H    0.983
                           213 H    0.982
   117   6 C    3.955 --   111 C    1.421   118 C    1.362   216 H    0.934
   118   6 C    3.921 --   117 C    1.362   120 C    1.308   119 S    1.072
   119  16 S    2.599 --   110 C    1.198   118 C    1.072
   120   6 C    3.942 --   121 C    1.483   118 C    1.308   217 H    0.943
   121   6 C    3.949 --   120 C    1.483   132 C    1.140   122 C    1.060
   122   6 C    3.911 --   123 O    1.706   121 C    1.060   124 C    1.022
   123   8 O    2.006 --   122 C    1.706
   124   6 C    3.976 --   125 C    1.432   131 C    1.289   122 C    1.022
   125   6 C    3.977 --   124 C    1.432   126 C    1.339   218 H    0.959
   126   6 C    3.921 --   125 C    1.339   129 C    1.324   127 O    1.106
   127   8 O    2.250 --   126 C    1.106   128 C    0.965
   128   6 C    3.919 --   219 H    0.975   220 H    0.974   221 H    0.974
                           127 O    0.965
   129   6 C    3.968 --   130 C    1.478   126 C    1.324   222 H    0.964
   130   6 C    3.977 --   129 C    1.478   131 C    1.367   223 H    0.961
   131   6 C    3.976 --   130 C    1.367   124 C    1.289   132 C    1.102
   132   6 C    3.962 --   133 C    1.454   121 C    1.140   131 C    1.102
   133   6 C    3.938 --   132 C    1.454   134 C    1.106   136 C    1.103
   134   6 C    3.939 --   135 N    2.730   133 C    1.106
   135   7 N    2.944 --   134 C    2.730
   136   6 C    3.938 --   137 N    2.743   133 C    1.103
   137   7 N    2.952 --   136 C    2.743
   138   1 H    0.996 --     1 C    0.934
   139   1 H    0.994 --     6 C    0.962
   140   1 H    0.991 --     9 C    0.975
   141   1 H    0.994 --     9 C    0.973
   142   1 H    0.994 --     9 C    0.974
   143   1 H    0.994 --    10 C    0.962
   144   1 H    0.996 --    11 C    0.961
   145   1 H    0.997 --    23 C    0.963
   146   1 H    0.996 --    24 C    0.962
   147   1 H    0.993 --    27 C    0.973
   148   1 H    0.993 --    27 C    0.979
   149   1 H    0.996 --    27 C    0.978
   150   1 H    0.996 --    28 C    0.966
   151   1 H    0.998 --    29 C    0.966
   152   1 H    0.996 --    31 C    0.964
   153   1 H    0.997 --    32 C    0.967
   154   1 H    0.994 --    35 C    0.978
   155   1 H    0.992 --    35 C    0.974
   156   1 H    0.995 --    35 C    0.980
   157   1 H    0.996 --    36 C    0.963
   158   1 H    0.999 --    37 C    0.966
   159   1 H    0.998 --    44 C    0.967
   160   1 H    0.997 --    45 C    0.966
   161   1 H    0.994 --    48 C    0.978
   162   1 H    0.996 --    48 C    0.982
   163   1 H    0.996 --    48 C    0.976
   164   1 H    0.997 --    49 C    0.967
   165   1 H    0.997 --    50 C    0.964
   166   1 H    0.997 --    52 C    0.966
   167   1 H    0.997 --    53 C    0.967
   168   1 H    0.996 --    56 C    0.981
   169   1 H    0.996 --    56 C    0.982
   170   1 H    0.993 --    56 C    0.974
   171   1 H    0.997 --    57 C    0.965
   172   1 H    0.999 --    58 C    0.966
   173   1 H    0.998 --    65 C    0.962
   174   1 H    0.997 --    66 C    0.966
   175   1 H    0.995 --    69 C    0.979
   176   1 H    0.996 --    69 C    0.981
   177   1 H    0.994 --    69 C    0.975
   178   1 H    0.998 --    70 C    0.965
   179   1 H    0.999 --    71 C    0.966
   180   1 H    0.998 --    73 C    0.966
   181   1 H    0.996 --    74 C    0.963
   182   1 H    0.993 --    77 C    0.975
   183   1 H    0.994 --    77 C    0.979
   184   1 H    0.995 --    77 C    0.979
   185   1 H    0.997 --    78 C    0.967
   186   1 H    0.998 --    79 C    0.967
   187   1 H    0.999 --    86 C    0.964
   188   1 H    0.998 --    87 C    0.968
   189   1 H    0.995 --    90 C    0.980
   190   1 H    0.994 --    90 C    0.976
   191   1 H    0.995 --    90 C    0.980
   192   1 H    0.997 --    91 C    0.964
   193   1 H    0.998 --    92 C    0.963
   194   1 H    0.998 --    94 C    0.964
   195   1 H    0.996 --    95 C    0.961
   196   1 H    0.994 --    98 C    0.975
   197   1 H    0.994 --    98 C    0.976
   198   1 H    0.995 --    98 C    0.980
   199   1 H    0.997 --    99 C    0.968
   200   1 H    0.998 --   100 C    0.965
   201   1 H    0.996 --   105 C    0.959
   202   1 H    0.997 --   105 C    0.966
   203   1 H    0.998 --   106 C    0.983
   204   1 H    0.996 --   106 C    0.982
   205   1 H    0.997 --   106 C    0.981
   206   1 H    0.998 --   113 C    0.974
   207   1 H    0.996 --   113 C    0.971
   208   1 H    0.997 --   114 C    0.984
   209   1 H    0.999 --   114 C    0.986
   210   1 H    0.997 --   114 C    0.982
   211   1 H    0.996 --   115 C    0.965
   212   1 H    0.999 --   115 C    0.977
   213   1 H    0.998 --   116 C    0.982
   214   1 H    0.997 --   116 C    0.983
   215   1 H    0.997 --   116 C    0.983
   216   1 H    0.990 --   117 C    0.934
   217   1 H    0.995 --   120 C    0.943
   218   1 H    0.994 --   125 C    0.959
   219   1 H    0.991 --   128 C    0.975
   220   1 H    0.994 --   128 C    0.974
   221   1 H    0.994 --   128 C    0.974
   222   1 H    0.993 --   129 C    0.964
   223   1 H    0.995 --   130 C    0.961
 ---------------------------------------------------------------------------

Topologies differ in bond orders
Writing corrected topology to xtbtopo.mol

molecular dipole:
                 x           y           z       tot (Debye)
 q only:       -1.118      -3.399       4.355
   full:       -1.683      -3.456       5.168      16.371
molecular quadrupole (traceless):
                xx          xy          yy          xz          yz          zz
 q only:     -115.972      65.540      34.643      35.886      10.019      81.329
  q+dip:     -109.475      59.740      21.349      53.557      10.329      88.126
   full:     -114.521      57.260      25.195      57.863      13.559      89.326


           -------------------------------------------------
          | TOTAL ENERGY             -366.608396846329 Eh   |
          | GRADIENT NORM               0.039407777081 Eh/α |
          | HOMO-LUMO GAP               0.452491520123 eV   |
           -------------------------------------------------

------------------------------------------------------------------------
 * finished run on 2022/02/07 at 23:24:32.405     
------------------------------------------------------------------------
 total:
 * wall-time:     0 d,  0 h,  0 min,  1.036 sec
 *  cpu-time:     0 d,  0 h,  0 min,  8.154 sec
 * ratio c/w:     7.871 speedup
 SCF:
 * wall-time:     0 d,  0 h,  0 min,  0.904 sec
 *  cpu-time:     0 d,  0 h,  0 min,  7.208 sec
 * ratio c/w:     7.977 speedup

