      -----------------------------------------------------------      
     |                   =====================                   |     
     |                           x T B                           |     
     |                   =====================                   |     
     |                         S. Grimme                         |     
     |          Mulliken Center for Theoretical Chemistry        |     
     |                    University of Bonn                     |     
      -----------------------------------------------------------      

   * xtb version 6.4.1 (unknown) compiled by 'oda6@login1.crc.pitt.edu' on 2021-06-25

   xtb is free software: you can redistribute it and/or modify it under
   the terms of the GNU Lesser General Public License as published by
   the Free Software Foundation, either version 3 of the License, or
   (at your option) any later version.
   
   xtb is distributed in the hope that it will be useful,
   but WITHOUT ANY WARRANTY; without even the implied warranty of
   MERCHANTABILITY or FITNESS FOR A PARTICULAR PURPOSE.  See the
   GNU Lesser General Public License for more details.
   
   Cite this work as:
   * C. Bannwarth, E. Caldeweyher, S. Ehlert, A. Hansen, P. Pracht,
     J. Seibert, S. Spicher, S. Grimme, WIREs Comput. Mol. Sci., 2020, 11,
     e01493. DOI: 10.1002/wcms.1493
   
   for GFN2-xTB:
   * C. Bannwarth, S. Ehlert and S. Grimme., J. Chem. Theory Comput., 2019,
     15, 1652-1671. DOI: 10.1021/acs.jctc.8b01176
   for GFN1-xTB:
   * S. Grimme, C. Bannwarth, P. Shushkov, J. Chem. Theory Comput., 2017,
     13, 1989-2009. DOI: 10.1021/acs.jctc.7b00118
   for GFN0-xTB:
   * P. Pracht, E. Caldeweyher, S. Ehlert, S. Grimme, ChemRxiv, 2019, preprint.
     DOI: 10.26434/chemrxiv.8326202.v1
   for GFN-FF:
   * S. Spicher and S. Grimme, Angew. Chem. Int. Ed., 2020, 59, 15665-15673.
     DOI: 10.1002/anie.202004239
   
   for DFT-D4:
   * E. Caldeweyher, C. Bannwarth and S. Grimme, J. Chem. Phys., 2017,
     147, 034112. DOI: 10.1063/1.4993215
   * E. Caldeweyher, S. Ehlert, A. Hansen, H. Neugebauer, S. Spicher,
     C. Bannwarth and S. Grimme, J. Chem. Phys., 2019, 150, 154122.
     DOI: 10.1063/1.5090222
   * E. Caldeweyher, J.-M. Mewes, S. Ehlert and S. Grimme, Phys. Chem. Chem. Phys.
     2020, 22, 8499-8512. DOI: 10.1039/D0CP00502A
   
   for sTDA-xTB:
   * S. Grimme and C. Bannwarth, J. Chem. Phys., 2016, 145, 054103.
     DOI: 10.1063/1.4959605
   
   in the mass-spec context:
   * V. Asgeirsson, C. Bauer and S. Grimme, Chem. Sci., 2017, 8, 4879.
     DOI: 10.1039/c7sc00601b
   * J. Koopman and S. Grimme, ACS Omega 2019, 4, 12, 15120-15133.
     DOI: 10.1021/acsomega.9b02011
   
   for metadynamics refer to:
   * S. Grimme, J. Chem. Theory Comput., 2019, 155, 2847-2862
     DOI: 10.1021/acs.jctc.9b00143
   
   for SPH calculations refer to:
   * S. Spicher and S. Grimme, J. Chem. Theory Comput., 2021, 17, 1701-1714
     DOI: 10.1021/acs.jctc.0c01306
   
   with help from (in alphabetical order)
   P. Atkinson, C. Bannwarth, F. Bohle, G. Brandenburg, E. Caldeweyher
   M. Checinski, S. Dohm, S. Ehlert, S. Ehrlich, I. Gerasimov, J. Koopman
   C. Lavigne, S. Lehtola, F. März, M. Müller, F. Musil, H. Neugebauer
   J. Pisarek, C. Plett, P. Pracht, J. Seibert, P. Shushkov, S. Spicher
   M. Stahn, M. Steiner, T. Strunk, J. Stückrath, T. Rose, and J. Unsleber
   
 * started run on 2022/02/15 at 04:16:13.036     

           -------------------------------------------------
          |                Calculation Setup                |
           -------------------------------------------------

          program call               : /ihome/ghutchison/oda6/xtb/xtb-641/bin/xtb ../../GFN2_output/39_130_127_130_20.mol --sp --alpb water
          hostname                   : smp-n25
          coordinate file            : ../../GFN2_output/39_130_127_130_20.mol
          omp threads                :                     8
          number of atoms            :                   231
          number of electrons        :                   704
          charge                     :                     0
          spin                       :                   0.0
          first test random number   :      0.57796142442465

   ID    Z sym.   atoms
    1    6 C      1-3, 5-13, 15, 17-25, 27-30, 32-38, 40-43, 45, 46, 48-51,
                  53-59, 61-64, 66, 67, 69, 71, 72, 74-77, 79-83, 85-88,
                  90-96, 98-101, 103, 104, 106-109, 111-117, 119-122,
                  124-128, 130-132, 134, 137-139, 141, 142
    2    8 O      4, 140
    3    7 N      14, 16, 26, 47, 73, 78, 84, 105, 133, 135, 136
    4   16 S      31, 39, 44, 52, 60, 65, 89, 97, 102, 110, 118, 123, 129
    5    9 F      68, 70
    6    1 H      143-231

           -------------------------------------------------
          |                 G F N 2 - x T B                 |
           -------------------------------------------------

        Reference                      10.1021/acs.jctc.8b01176
      * Hamiltonian:
        H0-scaling (s, p, d)           1.850000    2.230000    2.230000
        zeta-weighting                 0.500000
      * Dispersion:
        s8                             2.700000
        a1                             0.520000
        a2                             5.000000
        s9                             5.000000
      * Repulsion:
        kExp                           1.500000    1.000000
        rExp                           1.000000
      * Coulomb:
        alpha                          2.000000
        third order                    shell-resolved
        anisotropic                    true
        a3                             3.000000
        a5                             4.000000
        cn-shift                       1.200000
        cn-exp                         4.000000
        max-rad                        5.000000

      * Solvation model:               ALPB
        Solvent                        water
        Parameter file                 internal GFN2-xTB/ALPB
        Dielectric constant                8.0200E+01
        Reference state                gsolv [1 M gas/solution]
        Free energy shift                  1.0808E-03 Eh       6.7819E-01 kcal/mol
        Temperature                        2.9815E+02 K
        Density                            1.0000E+00 kg/L
        Solvent mass                       1.8000E+01 g/mol
        Interaction kernel             P16
        Born radius scaling (c1)           1.4744E+00
        Born radii integrator          GBOBC
        Born offset                        0.0000E+00 a0       0.0000E+00 AA
        H-bond correction              true
        Ion screening                  false
        Surface tension                    1.0000E-05 Eh       1.5569E+01 dyn/cm
        Grid points                               230 per atom

          ...................................................
          :                      SETUP                      :
          :.................................................:
          :  # basis functions                 735          :
          :  # atomic orbitals                 722          :
          :  # shells                          386          :
          :  # electrons                       704          :
          :  max. iterations                   250          :
          :  Hamiltonian                  GFN2-xTB          :
          :  restarted?                      false          :
          :  GBSA solvation                   true          :
          :  PC potential                    false          :
          :  electronic temp.          300.0000000     K    :
          :  accuracy                    1.0000000          :
          :  -> integral cutoff          0.2500000E+02      :
          :  -> integral neglect         0.1000000E-07      :
          :  -> SCF convergence          0.1000000E-05 Eh   :
          :  -> wf. convergence          0.1000000E-03 e    :
          :  Broyden damping             0.4000000          :
          ...................................................

 iter      E             dE          RMSdq      gap      omega  full diag
   1   -386.9943832 -0.386994E+03  0.457E+00    0.58       0.0  T
   2   -387.2745460 -0.280163E+00  0.266E+00    0.85       1.0  T
   3   -387.0672989  0.207247E+00  0.136E+00    0.38       1.0  T
   4   -387.3484242 -0.281125E+00  0.495E-01    0.55       1.0  T
   5   -387.3777932 -0.293690E-01  0.201E-01    0.46       1.0  T
   6   -387.3794888 -0.169568E-02  0.924E-02    0.49       1.0  T
   7   -387.3803478 -0.858997E-03  0.392E-02    0.48       1.0  T
   8   -387.3804649 -0.117048E-03  0.222E-02    0.48       1.0  T
   9   -387.3804990 -0.341557E-04  0.114E-02    0.48       1.0  T
  10   -387.3805048 -0.575474E-05  0.551E-03    0.48       1.2  T
  11   -387.3805072 -0.243990E-05  0.277E-03    0.48       2.4  T
  12   -387.3805075 -0.292022E-06  0.175E-03    0.48       3.8  T
  13   -387.3805077 -0.191298E-06  0.809E-04    0.48       8.1  T
  14   -387.3805078 -0.424313E-07  0.410E-04    0.48      16.0  T

   *** convergence criteria satisfied after 14 iterations ***

         #    Occupation            Energy/Eh            Energy/eV
      -------------------------------------------------------------
         1        2.0000           -0.8548033             -23.2604
       ...           ...                  ...                  ...
       346        2.0000           -0.3692003             -10.0465
       347        2.0000           -0.3664626              -9.9720
       348        2.0000           -0.3651733              -9.9369
       349        2.0000           -0.3582370              -9.7481
       350        2.0000           -0.3523277              -9.5873
       351        2.0000           -0.3512786              -9.5588
       352        1.9998           -0.3470439              -9.4435 (HOMO)
       353        0.0002           -0.3295638              -8.9679 (LUMO)
       354                         -0.3218576              -8.7582
       355                         -0.3175190              -8.6401
       356                         -0.3131542              -8.5214
       357                         -0.2762160              -7.5162
       ...                                ...                  ...
       722                          1.1614684              31.6052
      -------------------------------------------------------------
                  HL-Gap            0.0174801 Eh            0.4757 eV
             Fermi-level           -0.3382967 Eh           -9.2055 eV

 SCC (total)                   0 d,  0 h,  0 min,  4.376 sec
 SCC setup                      ...        0 min,  0.010 sec (  0.231%)
 Dispersion                     ...        0 min,  0.017 sec (  0.384%)
 classical contributions        ...        0 min,  0.001 sec (  0.016%)
 integral evaluation            ...        0 min,  0.072 sec (  1.638%)
 iterations                     ...        0 min,  4.012 sec ( 91.684%)
 molecular gradient             ...        0 min,  0.258 sec (  5.890%)
 printout                       ...        0 min,  0.007 sec (  0.156%)

         :::::::::::::::::::::::::::::::::::::::::::::::::::::
         ::                     SUMMARY                     ::
         :::::::::::::::::::::::::::::::::::::::::::::::::::::
         :: total energy            -381.444129236574 Eh    ::
         :: total w/o Gsasa/hb      -381.427383057700 Eh    ::
         :: gradient norm              0.038219518945 Eh/a0 ::
         :: HOMO-LUMO gap              0.475656895307 eV    ::
         ::.................................................::
         :: SCC energy              -387.380507754177 Eh    ::
         :: -> isotropic ES            0.214096180073 Eh    ::
         :: -> anisotropic ES          0.015325461723 Eh    ::
         :: -> anisotropic XC          0.233571670144 Eh    ::
         :: -> dispersion             -0.424160672826 Eh    ::
         :: -> Gsolv                  -0.064412683219 Eh    ::
         ::    -> Gelec               -0.047666504345 Eh    ::
         ::    -> Gsasa               -0.009239601285 Eh    ::
         ::    -> Ghb                 -0.008587337287 Eh    ::
         ::    -> Gshift               0.001080759698 Eh    ::
         :: repulsion energy           5.913396133849 Eh    ::
         :: add. restraining           0.000000000000 Eh    ::
         :: total charge               0.000000000057 e     ::
         :::::::::::::::::::::::::::::::::::::::::::::::::::::

           -------------------------------------------------
          |                Property Printout                |
           -------------------------------------------------

    * Orbital Energies and Occupations

         #    Occupation            Energy/Eh            Energy/eV
      -------------------------------------------------------------
         1        2.0000           -0.8548033             -23.2604
       ...           ...                  ...                  ...
       340        2.0000           -0.3858998             -10.5009
       341        2.0000           -0.3803070             -10.3487
       342        2.0000           -0.3780906             -10.2884
       343        2.0000           -0.3766848             -10.2501
       344        2.0000           -0.3729817             -10.1493
       345        2.0000           -0.3701899             -10.0734
       346        2.0000           -0.3692003             -10.0465
       347        2.0000           -0.3664626              -9.9720
       348        2.0000           -0.3651733              -9.9369
       349        2.0000           -0.3582370              -9.7481
       350        2.0000           -0.3523277              -9.5873
       351        2.0000           -0.3512786              -9.5588
       352        1.9998           -0.3470439              -9.4435 (HOMO)
       353        0.0002           -0.3295638              -8.9679 (LUMO)
       354                         -0.3218576              -8.7582
       355                         -0.3175190              -8.6401
       356                         -0.3131542              -8.5214
       357                         -0.2762160              -7.5162
       358                         -0.2749858              -7.4827
       359                         -0.2740542              -7.4574
       360                         -0.2692211              -7.3259
       361                         -0.2561586              -6.9704
       362                         -0.2527370              -6.8773
       363                         -0.2517506              -6.8505
       ...                                ...                  ...
       722                          1.1614684              31.6052
      -------------------------------------------------------------
                  HL-Gap            0.0174801 Eh            0.4757 eV
             Fermi-level           -0.3382967 Eh           -9.2055 eV

     #   Z          covCN         q      C6AA      α(0)
     1   6 C        2.921    -0.016    28.417     8.742
     2   6 C        3.009    -0.046    29.121     8.852
     3   6 C        2.873     0.228    23.224     7.900
     4   8 O        0.898    -0.423    22.129     6.308
     5   6 C        3.060    -0.024    28.541     8.761
     6   6 C        2.904    -0.024    28.603     8.769
     7   6 C        3.259     0.014    26.567     8.330
     8   6 C        3.256     0.015    26.575     8.336
     9   6 C        2.904    -0.033    28.814     8.802
    10   6 C        3.051     0.004    27.886     8.661
    11   6 C        3.023     0.033    27.234     8.560
    12   6 C        2.947    -0.007    28.195     8.709
    13   6 C        1.953     0.134    27.814     8.517
    14   7 N        0.911    -0.291    27.499     7.584
    15   6 C        1.952     0.126    27.985     8.543
    16   7 N        0.911    -0.299    27.703     7.612
    17   6 C        4.163    -0.025    20.924     6.497
    18   6 C        4.013    -0.016    20.780     6.476
    19   6 C        2.995    -0.044    29.074     8.845
    20   6 C        2.995    -0.044    29.090     8.847
    21   6 C        4.013    -0.016    20.783     6.476
    22   6 C        3.915    -0.062    21.624     6.609
    23   6 C        4.161    -0.025    20.925     6.497
    24   6 C        2.986     0.003    27.948     8.672
    25   6 C        3.044     0.058    26.652     8.467
    26   7 N        2.748    -0.037    21.950     6.958
    27   6 C        2.925     0.055    26.758     8.483
    28   6 C        2.921    -0.044    29.105     8.847
    29   6 C        2.983    -0.042    29.041     8.840
    30   6 C        2.966     0.045    26.994     8.522
    31  16 S        2.034    -0.185   148.893    20.537
    32   6 C        3.745    -0.057    21.676     6.641
    33   6 C        2.945    -0.041    29.030     8.837
    34   6 C        2.923    -0.041    29.009     8.833
    35   6 C        2.934     0.057    26.725     8.478
    36   6 C        2.926    -0.041    29.022     8.835
    37   6 C        2.946    -0.042    29.032     8.837
    38   6 C        2.966     0.051    26.851     8.500
    39  16 S        2.035    -0.176   148.512    20.511
    40   6 C        3.744    -0.063    21.788     6.659
    41   6 C        2.982    -0.039    28.968     8.829
    42   6 C        2.921    -0.038    28.951     8.824
    43   6 C        3.160     0.003    27.645     8.595
    44  16 S        2.255    -0.038   142.646    20.102
    45   6 C        3.003     0.009    27.802     8.649
    46   6 C        3.054     0.057    26.665     8.469
    47   7 N        2.749    -0.046    22.124     6.986
    48   6 C        2.929     0.060    26.653     8.467
    49   6 C        2.930    -0.041    29.015     8.834
    50   6 C        2.951    -0.035    28.873     8.813
    51   6 C        2.967     0.048    26.927     8.512
    52  16 S        2.029    -0.209   149.967    20.611
    53   6 C        3.744    -0.056    21.657     6.639
    54   6 C        2.971    -0.041    29.007     8.834
    55   6 C        2.922    -0.047    29.160     8.855
    56   6 C        2.925     0.056    26.739     8.480
    57   6 C        2.925    -0.048    29.200     8.862
    58   6 C        2.944    -0.049    29.225     8.866
    59   6 C        2.966     0.040    27.103     8.539
    60  16 S        2.037    -0.194   149.294    20.565
    61   6 C        3.744    -0.062    21.759     6.654
    62   6 C        2.985    -0.044    29.086     8.847
    63   6 C        2.923    -0.049    29.219     8.864
    64   6 C        3.157    -0.001    27.730     8.610
    65  16 S        2.262    -0.019   141.854    20.046
    66   6 C        3.008    -0.017    28.412     8.744
    67   6 C        2.782     0.140    24.929     8.178
    68   9 F        0.787    -0.225    11.496     4.005
    69   6 C        2.779     0.144    24.849     8.165
    70   9 F        0.787    -0.225    11.500     4.006
    71   6 C        3.064    -0.018    28.404     8.740
    72   6 C        2.969     0.069    26.463     8.438
    73   7 N        1.851    -0.238    27.063     7.710
    74   6 C        2.940     0.097    25.842     8.337
    75   6 C        3.809    -0.069    21.819     6.649
    76   6 C        3.754    -0.098    22.428     6.753
    77   6 C        2.936     0.095    25.893     8.345
    78   7 N        1.850    -0.239    27.098     7.715
    79   6 C        2.962     0.067    26.488     8.442
    80   6 C        3.808    -0.067    21.784     6.644
    81   6 C        3.752    -0.104    22.538     6.770
    82   6 C        3.010     0.002    27.960     8.674
    83   6 C        3.057     0.055    26.723     8.478
    84   7 N        2.749    -0.058    22.353     7.022
    85   6 C        2.928     0.068    26.471     8.438
    86   6 C        2.922    -0.046    29.152     8.854
    87   6 C        2.957    -0.035    28.865     8.812
    88   6 C        2.968     0.045    26.992     8.522
    89  16 S        2.017    -0.273   152.820    20.806
    90   6 C        3.744    -0.050    21.535     6.620
    91   6 C        2.953    -0.031    28.780     8.799
    92   6 C        2.927    -0.049    29.208     8.863
    93   6 C        2.922     0.054    26.786     8.487
    94   6 C        2.922    -0.048    29.185     8.859
    95   6 C        2.986    -0.042    29.032     8.839
    96   6 C        2.965     0.044    27.004     8.524
    97  16 S        2.035    -0.205   149.772    20.598
    98   6 C        3.745    -0.062    21.771     6.656
    99   6 C        2.943    -0.044    29.093     8.846
   100   6 C        2.924    -0.050    29.232     8.867
   101   6 C        3.179    -0.007    27.764     8.602
   102  16 S        2.276    -0.054   143.292    20.147
   103   6 C        3.005     0.005    27.895     8.664
   104   6 C        3.065     0.040    27.041     8.527
   105   7 N        2.748    -0.070    22.589     7.059
   106   6 C        2.919     0.058    26.705     8.474
   107   6 C        2.923    -0.055    29.373     8.888
   108   6 C        2.942    -0.048    29.179     8.859
   109   6 C        2.965     0.043    27.040     8.529
   110  16 S        2.033    -0.209   149.973    20.612
   111   6 C        3.744    -0.062    21.773     6.656
   112   6 C        2.984    -0.042    29.045     8.840
   113   6 C        2.923    -0.050    29.233     8.866
   114   6 C        2.934     0.059    26.670     8.470
   115   6 C        2.921    -0.044    29.082     8.844
   116   6 C        2.987    -0.042    29.023     8.837
   117   6 C        2.965     0.044    27.006     8.524
   118  16 S        2.034    -0.200   149.545    20.582
   119   6 C        3.744    -0.048    21.503     6.615
   120   6 C        2.940    -0.044    29.083     8.845
   121   6 C        2.926    -0.046    29.137     8.852
   122   6 C        3.203     0.005    27.336     8.517
   123  16 S        2.335    -0.083   144.492    20.231
   124   6 C        3.881    -0.013    20.764     6.479
   125   6 C        2.911    -0.009    28.243     8.714
   126   6 C        2.906    -0.032    28.808     8.801
   127   6 C        2.991     0.052    26.819     8.495
   128   6 C        2.967    -0.014    28.351     8.734
   129  16 S        2.247    -0.037   142.603    20.099
   130   6 C        2.933     0.123    25.299     8.249
   131   6 C        3.002    -0.031    28.757     8.797
   132   6 C        1.938     0.128    27.951     8.538
   133   7 N        0.911    -0.293    27.560     7.593
   134   6 C        1.924     0.131    27.897     8.530
   135   7 N        0.911    -0.304    27.814     7.628
   136   7 N        2.847    -0.048    22.163     6.992
   137   6 C        3.745     0.003    20.604     6.475
   138   6 C        3.752    -0.120    22.868     6.819
   139   6 C        2.897     0.276    22.349     7.751
   140   8 O        0.858    -0.453    22.774     6.398
   141   6 C        3.811    -0.065    21.742     6.637
   142   6 C        3.813    -0.064    21.717     6.633
   143   1 H        0.925     0.058     2.224     2.332
   144   1 H        0.926     0.062     2.172     2.305
   145   1 H        0.926     0.053     2.288     2.365
   146   1 H        0.925     0.054     2.271     2.357
   147   1 H        0.925     0.041     2.440     2.443
   148   1 H        0.926     0.043     2.403     2.424
   149   1 H        0.926     0.045     2.384     2.414
   150   1 H        0.925     0.044     2.397     2.421
   151   1 H        0.925     0.033     2.542     2.493
   152   1 H        0.925     0.044     2.394     2.420
   153   1 H        0.925     0.056     2.244     2.343
   154   1 H        0.926     0.044     2.402     2.424
   155   1 H        0.926     0.055     2.256     2.349
   156   1 H        0.925     0.075     2.031     2.228
   157   1 H        0.925     0.084     1.942     2.179
   158   1 H        0.925     0.054     2.270     2.356
   159   1 H        0.926     0.056     2.251     2.346
   160   1 H        0.926     0.057     2.231     2.336
   161   1 H        0.926     0.047     2.357     2.401
   162   1 H        0.926     0.057     2.229     2.334
   163   1 H        0.925     0.073     2.058     2.243
   164   1 H        0.925     0.082     1.962     2.190
   165   1 H        0.925     0.066     2.128     2.281
   166   1 H        0.926     0.061     2.188     2.313
   167   1 H        0.926     0.055     2.253     2.347
   168   1 H        0.926     0.049     2.332     2.388
   169   1 H        0.926     0.055     2.259     2.350
   170   1 H        0.925     0.069     2.100     2.266
   171   1 H        0.925     0.071     2.077     2.254
   172   1 H        0.925     0.064     2.153     2.295
   173   1 H        0.926     0.052     2.296     2.369
   174   1 H        0.926     0.043     2.410     2.428
   175   1 H        0.926     0.048     2.351     2.398
   176   1 H        0.926     0.055     2.261     2.351
   177   1 H        0.925     0.075     2.030     2.228
   178   1 H        0.925     0.067     2.114     2.274
   179   1 H        0.925     0.084     1.935     2.175
   180   1 H        0.926     0.041     2.438     2.442
   181   1 H        0.926     0.035     2.519     2.482
   182   1 H        0.925     0.066     2.135     2.285
   183   1 H        0.924     0.067     2.114     2.274
   184   1 H        0.925     0.035     2.516     2.481
   185   1 H        0.925     0.066     2.130     2.282
   186   1 H        0.925     0.043     2.416     2.430
   187   1 H        0.924     0.064     2.154     2.295
   188   1 H        0.924     0.067     2.116     2.275
   189   1 H        0.925     0.038     2.477     2.461
   190   1 H        0.925     0.060     2.203     2.321
   191   1 H        0.925     0.044     2.390     2.418
   192   1 H        0.926     0.049     2.336     2.390
   193   1 H        0.926     0.053     2.287     2.365
   194   1 H        0.925     0.061     2.193     2.316
   195   1 H        0.925     0.065     2.142     2.289
   196   1 H        0.925     0.064     2.156     2.296
   197   1 H        0.926     0.045     2.382     2.413
   198   1 H        0.926     0.064     2.155     2.296
   199   1 H        0.926     0.034     2.530     2.487
   200   1 H        0.926     0.040     2.452     2.449
   201   1 H        0.925     0.075     2.036     2.231
   202   1 H        0.925     0.082     1.962     2.191
   203   1 H        0.925     0.072     2.063     2.246
   204   1 H        0.926     0.057     2.229     2.335
   205   1 H        0.926     0.042     2.417     2.431
   206   1 H        0.926     0.040     2.450     2.448
   207   1 H        0.926     0.049     2.330     2.387
   208   1 H        0.925     0.069     2.093     2.263
   209   1 H        0.925     0.077     2.006     2.215
   210   1 H        0.925     0.071     2.074     2.252
   211   1 H        0.926     0.046     2.373     2.409
   212   1 H        0.926     0.045     2.389     2.417
   213   1 H        0.926     0.047     2.354     2.399
   214   1 H        0.926     0.048     2.348     2.396
   215   1 H        0.925     0.075     2.029     2.228
   216   1 H        0.925     0.064     2.156     2.296
   217   1 H        0.925     0.054     2.267     2.355
   218   1 H        0.926     0.039     2.465     2.455
   219   1 H        0.926     0.046     2.367     2.406
   220   1 H        0.924     0.071     2.075     2.252
   221   1 H        0.926     0.072     2.064     2.247
   222   1 H        0.925     0.064     2.156     2.296
   223   1 H        0.924     0.092     1.857     2.131
   224   1 H        0.924     0.063     2.165     2.301
   225   1 H        0.925     0.073     2.048     2.238
   226   1 H        0.925     0.043     2.405     2.425
   227   1 H        0.925     0.061     2.188     2.313
   228   1 H        0.924     0.086     1.916     2.165
   229   1 H        0.924     0.082     1.956     2.187
   230   1 H        0.924     0.063     2.164     2.301
   231   1 H        0.924     0.058     2.224     2.332

 Mol. C6AA /au·bohr⁶  :     898250.775724
 Mol. C8AA /au·bohr⁸  :   25462933.759754
 Mol. α(0) /au        :       1515.362567


Wiberg/Mayer (AO) data.
largest (>0.10) Wiberg bond orders for each atom

 ---------------------------------------------------------------------------
     #   Z sym  total        # sym  WBO       # sym  WBO       # sym  WBO
 ---------------------------------------------------------------------------
     1   6 C    3.947 --     2 C    1.459    24 C    1.339   143 H    0.931
     2   6 C    3.951 --     1 C    1.459    11 C    1.160     3 C    1.070
     3   6 C    3.907 --     4 O    1.677     2 C    1.070     5 C    1.030
     4   8 O    2.045 --     3 C    1.677
     5   6 C    3.967 --     6 C    1.382    10 C    1.305     3 C    1.030
     6   6 C    3.977 --     7 C    1.437     5 C    1.382   144 H    0.960
     7   6 C    3.952 --     6 C    1.437     8 C    1.326    23 C    0.993
     8   6 C    3.964 --     9 C    1.443     7 C    1.326    17 C    0.995
     9   6 C    3.974 --     8 C    1.443    10 C    1.369   145 H    0.958
    10   6 C    3.976 --     9 C    1.369     5 C    1.305    11 C    1.087
    11   6 C    3.969 --    12 C    1.444     2 C    1.160    10 C    1.087
    12   6 C    3.957 --    11 C    1.444    15 C    1.110    13 C    1.106
    13   6 C    3.939 --    14 N    2.737    12 C    1.106
    14   7 N    2.949 --    13 C    2.737
    15   6 C    3.940 --    16 N    2.720    12 C    1.110
    16   7 N    2.948 --    15 C    2.720
    17   6 C    3.983 --     8 C    0.995    23 C    0.974   146 H    0.959
                            18 C    0.950
    18   6 C    3.988 --    19 C    1.004    22 C    0.989   147 H    0.971
                            17 C    0.950
    19   6 C    3.981 --    20 C    1.924    18 C    1.004   148 H    0.970
    20   6 C    3.981 --    19 C    1.924    21 C    1.003   149 H    0.970
    21   6 C    3.987 --    20 C    1.003    22 C    0.989   150 H    0.970
                            23 C    0.950
    22   6 C    3.994 --    18 C    0.989    21 C    0.989   152 H    0.978
                           151 H    0.974
    23   6 C    3.982 --     7 C    0.993    17 C    0.974   153 H    0.959
                            21 C    0.950
    24   6 C    3.924 --     1 C    1.339    25 C    1.270    65 S    1.073
    25   6 C    3.950 --    24 C    1.270    43 C    1.249    26 N    1.174
    26   7 N    3.542 --    25 C    1.174    27 C    1.031    35 C    1.028
    27   6 C    3.959 --    34 C    1.379    28 C    1.346    26 N    1.031
    28   6 C    3.986 --    29 C    1.487    27 C    1.346   154 H    0.966
    29   6 C    3.987 --    28 C    1.487    30 C    1.356   155 H    0.966
    30   6 C    3.958 --    33 C    1.394    29 C    1.356    31 S    1.055
    31  16 S    2.259 --    30 C    1.055    32 C    1.007
    32   6 C    3.968 --    31 S    1.007   158 H    0.981   156 H    0.979
                           157 H    0.975
    33   6 C    3.989 --    34 C    1.443    30 C    1.394   159 H    0.963
    34   6 C    3.980 --    33 C    1.443    27 C    1.379   160 H    0.965
    35   6 C    3.956 --    36 C    1.365    42 C    1.357    26 N    1.028
    36   6 C    3.981 --    37 C    1.452    35 C    1.365   161 H    0.966
    37   6 C    3.985 --    36 C    1.452    38 C    1.384   162 H    0.963
    38   6 C    3.951 --    37 C    1.384    41 C    1.365    39 S    1.059
    39  16 S    2.257 --    38 C    1.059    40 C    1.006
    40   6 C    3.967 --    39 S    1.006   165 H    0.980   163 H    0.979
                           164 H    0.975
    41   6 C    3.987 --    42 C    1.478    38 C    1.365   166 H    0.966
    42   6 C    3.974 --    41 C    1.478    35 C    1.357   167 H    0.965
    43   6 C    3.935 --    64 C    1.354    25 C    1.249    44 S    1.110
    44  16 S    2.573 --    43 C    1.110    45 C    1.102
    45   6 C    3.896 --    46 C    1.417    66 C    1.104    44 S    1.102
    46   6 C    3.952 --    45 C    1.417    64 C    1.208    47 N    1.114
    47   7 N    3.516 --    46 C    1.114    48 C    1.050    56 C    1.046
    48   6 C    3.960 --    49 C    1.357    55 C    1.357    47 N    1.050
    49   6 C    3.984 --    50 C    1.449    48 C    1.357   168 H    0.962
    50   6 C    3.988 --    49 C    1.449    51 C    1.391   169 H    0.965
    51   6 C    3.952 --    50 C    1.391    54 C    1.377    52 S    1.035
    52  16 S    2.202 --    51 C    1.035    53 C    1.000
    53   6 C    3.968 --    52 S    1.000   172 H    0.983   170 H    0.978
                           171 H    0.974
    54   6 C    3.988 --    55 C    1.471    51 C    1.377   173 H    0.967
    55   6 C    3.982 --    54 C    1.471    48 C    1.357   174 H    0.966
    56   6 C    3.964 --    57 C    1.375    63 C    1.352    47 N    1.046
    57   6 C    3.985 --    58 C    1.447    56 C    1.375   175 H    0.961
    58   6 C    3.988 --    57 C    1.447    59 C    1.390   176 H    0.963
    59   6 C    3.957 --    58 C    1.390    62 C    1.364    60 S    1.046
    60  16 S    2.262 --    59 C    1.046    61 C    1.009
    61   6 C    3.966 --    60 S    1.009   178 H    0.979   177 H    0.978
                           179 H    0.973
    62   6 C    3.989 --    63 C    1.479    59 C    1.364   180 H    0.968
    63   6 C    3.987 --    62 C    1.479    56 C    1.352   181 H    0.967
    64   6 C    3.936 --    43 C    1.354    46 C    1.208    65 S    1.131
    65  16 S    2.654 --    64 C    1.131    24 C    1.073
    66   6 C    3.968 --    67 C    1.405    79 C    1.198    45 C    1.104
    67   6 C    3.856 --    66 C    1.405    69 C    1.280    68 F    0.955
    68   9 F    1.085 --    67 C    0.955
    69   6 C    3.868 --    71 C    1.432    67 C    1.280    70 F    0.957
    70   9 F    1.085 --    69 C    0.957
    71   6 C    3.941 --    69 C    1.432    72 C    1.198    82 C    1.040
    72   6 C    3.978 --    73 N    1.307    79 C    1.232    71 C    1.198
    73   7 N    3.070 --    74 C    1.515    72 C    1.307
    74   6 C    3.957 --    73 N    1.515    77 C    1.214    75 C    1.014
    75   6 C    3.989 --    74 C    1.014    76 C    0.989   182 H    0.968
                           183 H    0.961
    76   6 C    3.989 --    75 C    0.989   186 H    0.986   184 H    0.981
                           185 H    0.980
    77   6 C    3.954 --    78 N    1.512    74 C    1.214    80 C    1.014
    78   7 N    3.072 --    77 C    1.512    79 C    1.302
    79   6 C    3.975 --    78 N    1.302    72 C    1.232    66 C    1.198
    80   6 C    3.990 --    77 C    1.014    81 C    0.991   187 H    0.967
                           188 H    0.963
    81   6 C    3.988 --    80 C    0.991   191 H    0.985   190 H    0.983
                           189 H    0.981
    82   6 C    3.910 --    83 C    1.495   123 S    1.077    71 C    1.040
    83   6 C    3.960 --    82 C    1.495   101 C    1.187    84 N    1.080
    84   7 N    3.505 --    83 C    1.080    85 C    1.068    93 C    1.051
    85   6 C    3.964 --    86 C    1.361    92 C    1.353    84 N    1.068
    86   6 C    3.984 --    87 C    1.460    85 C    1.361   192 H    0.966
                            91 C    0.101
    87   6 C    3.987 --    86 C    1.460    88 C    1.398   193 H    0.968
    88   6 C    3.947 --    91 C    1.400    87 C    1.398    89 S    0.990
    89  16 S    2.113 --    90 C    0.992    88 C    0.990
    90   6 C    3.969 --    89 S    0.992   196 H    0.983   195 H    0.982
                           194 H    0.979
    91   6 C    3.989 --    92 C    1.460    88 C    1.400   197 H    0.965
                            86 C    0.101
    92   6 C    3.983 --    91 C    1.460    85 C    1.353   198 H    0.956
    93   6 C    3.964 --   100 C    1.371    94 C    1.353    84 N    1.051
    94   6 C    3.986 --    95 C    1.479    93 C    1.353   199 H    0.966
    95   6 C    3.990 --    94 C    1.479    96 C    1.365   200 H    0.968
                           100 C    0.101
    96   6 C    3.957 --    99 C    1.387    95 C    1.365    97 S    1.048
    97  16 S    2.252 --    96 C    1.048    98 C    1.008
    98   6 C    3.964 --    97 S    1.008   201 H    0.979   203 H    0.975
                           202 H    0.974
    99   6 C    3.988 --   100 C    1.449    96 C    1.387   204 H    0.962
   100   6 C    3.986 --    99 C    1.449    93 C    1.371   205 H    0.965
                            95 C    0.101
   101   6 C    3.940 --   122 C    1.403    83 C    1.187   102 S    1.113
   102  16 S    2.574 --   103 C    1.121   101 C    1.113
   103   6 C    3.915 --   104 C    1.507   102 S    1.121   124 C    0.990
   104   6 C    3.959 --   103 C    1.507   122 C    1.191   105 N    1.061
   105   7 N    3.472 --   106 C    1.071   104 C    1.061   114 C    1.040
   106   6 C    3.965 --   107 C    1.362   113 C    1.343   105 N    1.071
   107   6 C    3.985 --   108 C    1.445   106 C    1.362   206 H    0.965
   108   6 C    3.988 --   107 C    1.445   109 C    1.391   207 H    0.964
   109   6 C    3.950 --   108 C    1.391   112 C    1.363   110 S    1.043
   110  16 S    2.243 --   109 C    1.043   111 C    1.009
   111   6 C    3.969 --   110 S    1.009   208 H    0.980   210 H    0.979
                           209 H    0.975
   112   6 C    3.990 --   113 C    1.482   109 C    1.363   211 H    0.967
   113   6 C    3.986 --   112 C    1.482   106 C    1.343   212 H    0.966
   114   6 C    3.966 --   121 C    1.371   115 C    1.356   105 N    1.040
   115   6 C    3.986 --   116 C    1.477   114 C    1.356   213 H    0.966
   116   6 C    3.989 --   115 C    1.477   117 C    1.365   214 H    0.967
                           121 C    0.101
   117   6 C    3.953 --   120 C    1.390   116 C    1.365   118 S    1.045
   118  16 S    2.250 --   117 C    1.045   119 C    1.009
   119   6 C    3.972 --   118 S    1.009   215 H    0.979   216 H    0.977
                           217 H    0.975
   120   6 C    3.989 --   121 C    1.447   117 C    1.390   218 H    0.965
   121   6 C    3.986 --   120 C    1.447   114 C    1.371   219 H    0.963
                           116 C    0.101
   122   6 C    3.932 --   101 C    1.403   104 C    1.191   123 S    1.110
   123  16 S    2.553 --   122 C    1.110    82 C    1.077
   124   6 C    3.988 --   125 C    1.018   103 C    0.990   142 C    0.967
                           220 H    0.936
   125   6 C    3.932 --   126 C    1.767   124 C    1.018   221 H    0.965
   126   6 C    3.986 --   125 C    1.767   127 C    1.156   222 H    0.951
   127   6 C    3.957 --   128 C    1.558   126 C    1.156   141 C    1.022
   128   6 C    3.938 --   127 C    1.558   139 C    1.080   129 S    1.045
   129  16 S    2.528 --   130 C    1.119   128 C    1.045
   130   6 C    3.959 --   131 C    1.405   136 N    1.209   129 S    1.119
   131   6 C    3.940 --   130 C    1.405   134 C    1.121   132 C    1.106
   132   6 C    3.944 --   133 N    2.751   131 C    1.106
   133   7 N    2.972 --   132 C    2.751
   134   6 C    3.946 --   135 N    2.728   131 C    1.121
   135   7 N    2.969 --   134 C    2.728
   136   7 N    3.600 --   130 C    1.209   139 C    1.113   137 C    0.960
                           140 O    0.126
   137   6 C    3.946 --   138 C    1.008   224 H    0.961   136 N    0.960
                           223 H    0.960
   138   6 C    3.988 --   137 C    1.008   227 H    0.985   226 H    0.985
                           225 H    0.979
   139   6 C    3.947 --   140 O    1.629   136 N    1.113   128 C    1.080
   140   8 O    1.969 --   139 C    1.629   136 N    0.126
   141   6 C    3.989 --   127 C    1.022   142 C    1.006   228 H    0.952
                           229 H    0.932
   142   6 C    3.987 --   141 C    1.006   231 H    0.974   230 H    0.973
                           124 C    0.967
   143   1 H    0.995 --     1 C    0.931
   144   1 H    0.996 --     6 C    0.960
   145   1 H    0.997 --     9 C    0.958
   146   1 H    0.995 --    17 C    0.959
   147   1 H    0.998 --    18 C    0.971
   148   1 H    0.998 --    19 C    0.970
   149   1 H    0.998 --    20 C    0.970
   150   1 H    0.998 --    21 C    0.970
   151   1 H    0.999 --    22 C    0.974
   152   1 H    0.998 --    22 C    0.978
   153   1 H    0.995 --    23 C    0.959
   154   1 H    0.998 --    28 C    0.966
   155   1 H    0.996 --    29 C    0.966
   156   1 H    0.994 --    32 C    0.979
   157   1 H    0.993 --    32 C    0.975
   158   1 H    0.997 --    32 C    0.981
   159   1 H    0.996 --    33 C    0.963
   160   1 H    0.997 --    34 C    0.965
   161   1 H    0.998 --    36 C    0.966
   162   1 H    0.996 --    37 C    0.963
   163   1 H    0.994 --    40 C    0.979
   164   1 H    0.993 --    40 C    0.975
   165   1 H    0.995 --    40 C    0.980
   166   1 H    0.996 --    41 C    0.966
   167   1 H    0.996 --    42 C    0.965
   168   1 H    0.998 --    49 C    0.962
   169   1 H    0.996 --    50 C    0.965
   170   1 H    0.995 --    53 C    0.978
   171   1 H    0.995 --    53 C    0.974
   172   1 H    0.996 --    53 C    0.983
   173   1 H    0.997 --    54 C    0.967
   174   1 H    0.998 --    55 C    0.966
   175   1 H    0.998 --    57 C    0.961
   176   1 H    0.997 --    58 C    0.963
   177   1 H    0.994 --    61 C    0.978
   178   1 H    0.995 --    61 C    0.979
   179   1 H    0.993 --    61 C    0.973
   180   1 H    0.998 --    62 C    0.968
   181   1 H    0.998 --    63 C    0.967
   182   1 H    0.995 --    75 C    0.968
   183   1 H    0.995 --    75 C    0.961
   184   1 H    0.999 --    76 C    0.981
   185   1 H    0.994 --    76 C    0.980
   186   1 H    0.998 --    76 C    0.986
   187   1 H    0.996 --    80 C    0.967
   188   1 H    0.994 --    80 C    0.963
   189   1 H    0.998 --    81 C    0.981
   190   1 H    0.995 --    81 C    0.983
   191   1 H    0.998 --    81 C    0.985
   192   1 H    0.997 --    86 C    0.966
   193   1 H    0.997 --    87 C    0.968
   194   1 H    0.996 --    90 C    0.979
   195   1 H    0.996 --    90 C    0.982
   196   1 H    0.996 --    90 C    0.983
   197   1 H    0.997 --    91 C    0.965
   198   1 H    0.996 --    92 C    0.956
   199   1 H    0.998 --    94 C    0.966
   200   1 H    0.998 --    95 C    0.968
   201   1 H    0.994 --    98 C    0.979
   202   1 H    0.993 --    98 C    0.974
   203   1 H    0.994 --    98 C    0.975
   204   1 H    0.996 --    99 C    0.962
   205   1 H    0.998 --   100 C    0.965
   206   1 H    0.998 --   107 C    0.965
   207   1 H    0.997 --   108 C    0.964
   208   1 H    0.995 --   111 C    0.980
   209   1 H    0.994 --   111 C    0.975
   210   1 H    0.994 --   111 C    0.979
   211   1 H    0.997 --   112 C    0.967
   212   1 H    0.998 --   113 C    0.966
   213   1 H    0.997 --   115 C    0.966
   214   1 H    0.997 --   116 C    0.967
   215   1 H    0.994 --   119 C    0.979
   216   1 H    0.996 --   119 C    0.977
   217   1 H    0.996 --   119 C    0.975
   218   1 H    0.998 --   120 C    0.965
   219   1 H    0.998 --   121 C    0.963
   220   1 H    0.992 --   124 C    0.936
   221   1 H    0.994 --   125 C    0.965
   222   1 H    0.995 --   126 C    0.951
   223   1 H    0.991 --   137 C    0.960
   224   1 H    0.995 --   137 C    0.961
   225   1 H    0.993 --   138 C    0.979
   226   1 H    0.998 --   138 C    0.985
   227   1 H    0.996 --   138 C    0.985
   228   1 H    0.991 --   141 C    0.952
   229   1 H    0.990 --   141 C    0.932
   230   1 H    0.995 --   142 C    0.973
   231   1 H    0.996 --   142 C    0.974
 ---------------------------------------------------------------------------

Topologies differ in bond orders
Writing corrected topology to xtbtopo.mol

molecular dipole:
                 x           y           z       tot (Debye)
 q only:        0.343      -2.103      -2.290
   full:        1.066      -1.510      -1.715       6.408
molecular quadrupole (traceless):
                xx          xy          yy          xz          yz          zz
 q only:      102.406     -88.707    -129.679      28.886      98.306      27.273
  q+dip:       97.560     -95.318    -129.422      26.830     109.759      31.862
   full:      101.415     -89.880    -132.887      35.946     111.740      31.473


           -------------------------------------------------
          | TOTAL ENERGY             -381.444129236574 Eh   |
          | GRADIENT NORM               0.038219518945 Eh/α |
          | HOMO-LUMO GAP               0.475656895307 eV   |
           -------------------------------------------------

------------------------------------------------------------------------
 * finished run on 2022/02/15 at 04:16:17.550     
------------------------------------------------------------------------
 total:
 * wall-time:     0 d,  0 h,  0 min,  4.514 sec
 *  cpu-time:     0 d,  0 h,  0 min, 22.516 sec
 * ratio c/w:     4.988 speedup
 SCF:
 * wall-time:     0 d,  0 h,  0 min,  4.380 sec
 *  cpu-time:     0 d,  0 h,  0 min, 21.875 sec
 * ratio c/w:     4.994 speedup

