      -----------------------------------------------------------      
     |                   =====================                   |     
     |                           x T B                           |     
     |                   =====================                   |     
     |                         S. Grimme                         |     
     |          Mulliken Center for Theoretical Chemistry        |     
     |                    University of Bonn                     |     
      -----------------------------------------------------------      

   * xtb version 6.4.1 (unknown) compiled by 'oda6@login1.crc.pitt.edu' on 2021-06-25

   xtb is free software: you can redistribute it and/or modify it under
   the terms of the GNU Lesser General Public License as published by
   the Free Software Foundation, either version 3 of the License, or
   (at your option) any later version.
   
   xtb is distributed in the hope that it will be useful,
   but WITHOUT ANY WARRANTY; without even the implied warranty of
   MERCHANTABILITY or FITNESS FOR A PARTICULAR PURPOSE.  See the
   GNU Lesser General Public License for more details.
   
   Cite this work as:
   * C. Bannwarth, E. Caldeweyher, S. Ehlert, A. Hansen, P. Pracht,
     J. Seibert, S. Spicher, S. Grimme, WIREs Comput. Mol. Sci., 2020, 11,
     e01493. DOI: 10.1002/wcms.1493
   
   for GFN2-xTB:
   * C. Bannwarth, S. Ehlert and S. Grimme., J. Chem. Theory Comput., 2019,
     15, 1652-1671. DOI: 10.1021/acs.jctc.8b01176
   for GFN1-xTB:
   * S. Grimme, C. Bannwarth, P. Shushkov, J. Chem. Theory Comput., 2017,
     13, 1989-2009. DOI: 10.1021/acs.jctc.7b00118
   for GFN0-xTB:
   * P. Pracht, E. Caldeweyher, S. Ehlert, S. Grimme, ChemRxiv, 2019, preprint.
     DOI: 10.26434/chemrxiv.8326202.v1
   for GFN-FF:
   * S. Spicher and S. Grimme, Angew. Chem. Int. Ed., 2020, 59, 15665-15673.
     DOI: 10.1002/anie.202004239
   
   for DFT-D4:
   * E. Caldeweyher, C. Bannwarth and S. Grimme, J. Chem. Phys., 2017,
     147, 034112. DOI: 10.1063/1.4993215
   * E. Caldeweyher, S. Ehlert, A. Hansen, H. Neugebauer, S. Spicher,
     C. Bannwarth and S. Grimme, J. Chem. Phys., 2019, 150, 154122.
     DOI: 10.1063/1.5090222
   * E. Caldeweyher, J.-M. Mewes, S. Ehlert and S. Grimme, Phys. Chem. Chem. Phys.
     2020, 22, 8499-8512. DOI: 10.1039/D0CP00502A
   
   for sTDA-xTB:
   * S. Grimme and C. Bannwarth, J. Chem. Phys., 2016, 145, 054103.
     DOI: 10.1063/1.4959605
   
   in the mass-spec context:
   * V. Asgeirsson, C. Bauer and S. Grimme, Chem. Sci., 2017, 8, 4879.
     DOI: 10.1039/c7sc00601b
   * J. Koopman and S. Grimme, ACS Omega 2019, 4, 12, 15120-15133.
     DOI: 10.1021/acsomega.9b02011
   
   for metadynamics refer to:
   * S. Grimme, J. Chem. Theory Comput., 2019, 155, 2847-2862
     DOI: 10.1021/acs.jctc.9b00143
   
   for SPH calculations refer to:
   * S. Spicher and S. Grimme, J. Chem. Theory Comput., 2021, 17, 1701-1714
     DOI: 10.1021/acs.jctc.0c01306
   
   with help from (in alphabetical order)
   P. Atkinson, C. Bannwarth, F. Bohle, G. Brandenburg, E. Caldeweyher
   M. Checinski, S. Dohm, S. Ehlert, S. Ehrlich, I. Gerasimov, J. Koopman
   C. Lavigne, S. Lehtola, F. März, M. Müller, F. Musil, H. Neugebauer
   J. Pisarek, C. Plett, P. Pracht, J. Seibert, P. Shushkov, S. Spicher
   M. Stahn, M. Steiner, T. Strunk, J. Stückrath, T. Rose, and J. Unsleber
   
 * started run on 2022/02/06 at 02:10:42.417     

           -------------------------------------------------
          |                Calculation Setup                |
           -------------------------------------------------

          program call               : /ihome/ghutchison/oda6/xtb/xtb-641/bin/xtb ../../GFN2_output/39_130_130_0_27.mol --sp --alpb water
          hostname                   : smp-n57
          coordinate file            : ../../GFN2_output/39_130_130_0_27.mol
          omp threads                :                     8
          number of atoms            :                   228
          number of electrons        :                   690
          charge                     :                     0
          spin                       :                   0.0
          first test random number   :      0.96425712572497

   ID    Z sym.   atoms
    1    6 C      1-3, 5-13, 15, 17-25, 27-30, 32-38, 40-43, 45, 46, 48-51,
                  53-59, 61-64, 66, 67, 69-72, 74-80, 82-85, 87, 88, 90-93,
                  95-101, 103-106, 108-127, 129, 130, 132-138, 140
    2    8 O      4, 128
    3    7 N      14, 16, 26, 47, 68, 89, 139, 141
    4   16 S      31, 39, 44, 52, 60, 65, 73, 81, 86, 94, 102, 107
    5    9 F      131
    6    1 H      142-228

           -------------------------------------------------
          |                 G F N 2 - x T B                 |
           -------------------------------------------------

        Reference                      10.1021/acs.jctc.8b01176
      * Hamiltonian:
        H0-scaling (s, p, d)           1.850000    2.230000    2.230000
        zeta-weighting                 0.500000
      * Dispersion:
        s8                             2.700000
        a1                             0.520000
        a2                             5.000000
        s9                             5.000000
      * Repulsion:
        kExp                           1.500000    1.000000
        rExp                           1.000000
      * Coulomb:
        alpha                          2.000000
        third order                    shell-resolved
        anisotropic                    true
        a3                             3.000000
        a5                             4.000000
        cn-shift                       1.200000
        cn-exp                         4.000000
        max-rad                        5.000000

      * Solvation model:               ALPB
        Solvent                        water
        Parameter file                 internal GFN2-xTB/ALPB
        Dielectric constant                8.0200E+01
        Reference state                gsolv [1 M gas/solution]
        Free energy shift                  1.0808E-03 Eh       6.7819E-01 kcal/mol
        Temperature                        2.9815E+02 K
        Density                            1.0000E+00 kg/L
        Solvent mass                       1.8000E+01 g/mol
        Interaction kernel             P16
        Born radius scaling (c1)           1.4744E+00
        Born radii integrator          GBOBC
        Born offset                        0.0000E+00 a0       0.0000E+00 AA
        H-bond correction              true
        Ion screening                  false
        Surface tension                    1.0000E-05 Eh       1.5569E+01 dyn/cm
        Grid points                               230 per atom

          ...................................................
          :                      SETUP                      :
          :.................................................:
          :  # basis functions                 723          :
          :  # atomic orbitals                 711          :
          :  # shells                          381          :
          :  # electrons                       690          :
          :  max. iterations                   250          :
          :  Hamiltonian                  GFN2-xTB          :
          :  restarted?                      false          :
          :  GBSA solvation                   true          :
          :  PC potential                    false          :
          :  electronic temp.          300.0000000     K    :
          :  accuracy                    1.0000000          :
          :  -> integral cutoff          0.2500000E+02      :
          :  -> integral neglect         0.1000000E-07      :
          :  -> SCF convergence          0.1000000E-05 Eh   :
          :  -> wf. convergence          0.1000000E-03 e    :
          :  Broyden damping             0.4000000          :
          ...................................................

 iter      E             dE          RMSdq      gap      omega  full diag
   1   -377.9260895 -0.377926E+03  0.461E+00    0.48       0.0  T
   2   -378.1514283 -0.225339E+00  0.265E+00    0.69       1.0  T
   3   -377.9640431  0.187385E+00  0.127E+00    0.24       1.0  T
   4   -378.2015684 -0.237525E+00  0.474E-01    0.38       1.0  T
   5   -378.2275093 -0.259408E-01  0.181E-01    0.32       1.0  T
   6   -378.2287952 -0.128589E-02  0.810E-02    0.34       1.0  T
   7   -378.2294188 -0.623627E-03  0.314E-02    0.35       1.0  T
   8   -378.2294585 -0.397425E-04  0.195E-02    0.35       1.0  T
   9   -378.2294856 -0.270923E-04  0.104E-02    0.35       1.0  T
  10   -378.2294896 -0.399371E-05  0.540E-03    0.35       1.2  T
  11   -378.2294923 -0.265093E-05  0.292E-03    0.35       2.3  T
  12   -378.2294925 -0.262387E-06  0.160E-03    0.35       4.1  T
  13   -378.2294927 -0.202344E-06  0.708E-04    0.35       9.4  T
  14   -378.2294928 -0.268066E-07  0.419E-04    0.35      15.8  T

   *** convergence criteria satisfied after 14 iterations ***

         #    Occupation            Energy/Eh            Energy/eV
      -------------------------------------------------------------
         1        2.0000           -0.8458174             -23.0159
       ...           ...                  ...                  ...
       339        2.0000           -0.3675243             -10.0008
       340        2.0000           -0.3669419              -9.9850
       341        2.0000           -0.3630185              -9.8782
       342        2.0000           -0.3587348              -9.7617
       343        2.0000           -0.3544665              -9.6455
       344        2.0000           -0.3514908              -9.5646
       345        1.9978           -0.3475544              -9.4574 (HOMO)
       346        0.0021           -0.3345699              -9.1041 (LUMO)
       347        0.0000           -0.3307721              -9.0008
       348                         -0.3188848              -8.6773
       349                         -0.3166318              -8.6160
       350                         -0.2915759              -7.9342
       ...                                ...                  ...
       711                          1.1504777              31.3061
      -------------------------------------------------------------
                  HL-Gap            0.0129845 Eh            0.3533 eV
             Fermi-level           -0.3410630 Eh           -9.2808 eV

 SCC (total)                   0 d,  0 h,  0 min,  0.986 sec
 SCC setup                      ...        0 min,  0.010 sec (  1.039%)
 Dispersion                     ...        0 min,  0.014 sec (  1.398%)
 classical contributions        ...        0 min,  0.000 sec (  0.049%)
 integral evaluation            ...        0 min,  0.050 sec (  5.025%)
 iterations                     ...        0 min,  0.712 sec ( 72.243%)
 molecular gradient             ...        0 min,  0.194 sec ( 19.639%)
 printout                       ...        0 min,  0.006 sec (  0.595%)

         :::::::::::::::::::::::::::::::::::::::::::::::::::::
         ::                     SUMMARY                     ::
         :::::::::::::::::::::::::::::::::::::::::::::::::::::
         :: total energy            -372.151988375506 Eh    ::
         :: total w/o Gsasa/hb      -372.136046587321 Eh    ::
         :: gradient norm              0.035918460770 Eh/a0 ::
         :: HOMO-LUMO gap              0.353324913171 eV    ::
         ::.................................................::
         :: SCC energy              -378.229492751446 Eh    ::
         :: -> isotropic ES            0.175047596321 Eh    ::
         :: -> anisotropic ES          0.009973697029 Eh    ::
         :: -> anisotropic XC          0.236564881250 Eh    ::
         :: -> dispersion             -0.432265137381 Eh    ::
         :: -> Gsolv                  -0.055405868308 Eh    ::
         ::    -> Gelec               -0.039464080123 Eh    ::
         ::    -> Gsasa               -0.009448216539 Eh    ::
         ::    -> Ghb                 -0.007574331345 Eh    ::
         ::    -> Gshift               0.001080759698 Eh    ::
         :: repulsion energy           6.047014169738 Eh    ::
         :: add. restraining           0.000000000000 Eh    ::
         :: total charge              -0.000000000001 e     ::
         :::::::::::::::::::::::::::::::::::::::::::::::::::::

           -------------------------------------------------
          |                Property Printout                |
           -------------------------------------------------

    * Orbital Energies and Occupations

         #    Occupation            Energy/Eh            Energy/eV
      -------------------------------------------------------------
         1        2.0000           -0.8458174             -23.0159
       ...           ...                  ...                  ...
       333        2.0000           -0.3863823             -10.5140
       334        2.0000           -0.3855142             -10.4904
       335        2.0000           -0.3824646             -10.4074
       336        2.0000           -0.3814249             -10.3791
       337        2.0000           -0.3785532             -10.3010
       338        2.0000           -0.3701265             -10.0717
       339        2.0000           -0.3675243             -10.0008
       340        2.0000           -0.3669419              -9.9850
       341        2.0000           -0.3630185              -9.8782
       342        2.0000           -0.3587348              -9.7617
       343        2.0000           -0.3544665              -9.6455
       344        2.0000           -0.3514908              -9.5646
       345        1.9978           -0.3475544              -9.4574 (HOMO)
       346        0.0021           -0.3345699              -9.1041 (LUMO)
       347        0.0000           -0.3307721              -9.0008
       348                         -0.3188848              -8.6773
       349                         -0.3166318              -8.6160
       350                         -0.2915759              -7.9342
       351                         -0.2740654              -7.4577
       352                         -0.2612039              -7.1077
       353                         -0.2554746              -6.9518
       354                         -0.2551046              -6.9418
       355                         -0.2518206              -6.8524
       356                         -0.2514394              -6.8420
       ...                                ...                  ...
       711                          1.1504777              31.3061
      -------------------------------------------------------------
                  HL-Gap            0.0129845 Eh            0.3533 eV
             Fermi-level           -0.3410630 Eh           -9.2808 eV

     #   Z          covCN         q      C6AA      α(0)
     1   6 C        2.931    -0.020    28.495     8.754
     2   6 C        3.017    -0.045    29.103     8.849
     3   6 C        2.880     0.230    23.194     7.895
     4   8 O        0.856    -0.436    22.420     6.348
     5   6 C        3.064    -0.023    28.508     8.755
     6   6 C        2.904    -0.022    28.542     8.760
     7   6 C        3.259     0.015    26.541     8.326
     8   6 C        3.257     0.015    26.564     8.333
     9   6 C        2.904    -0.034    28.857     8.808
    10   6 C        3.055     0.003    27.894     8.662
    11   6 C        3.027     0.040    27.085     8.537
    12   6 C        2.951    -0.005    28.148     8.702
    13   6 C        1.950     0.131    27.863     8.524
    14   7 N        0.911    -0.303    27.796     7.625
    15   6 C        1.925     0.129    27.924     8.534
    16   7 N        0.911    -0.288    27.422     7.574
    17   6 C        4.162    -0.025    20.924     6.497
    18   6 C        4.013    -0.016    20.783     6.476
    19   6 C        2.995    -0.044    29.079     8.846
    20   6 C        2.995    -0.044    29.080     8.846
    21   6 C        4.013    -0.016    20.781     6.476
    22   6 C        3.915    -0.062    21.618     6.608
    23   6 C        4.161    -0.024    20.921     6.496
    24   6 C        2.984     0.002    27.969     8.675
    25   6 C        3.052     0.062    26.562     8.452
    26   7 N        2.748    -0.045    22.104     6.983
    27   6 C        2.928     0.056    26.753     8.482
    28   6 C        2.921    -0.044    29.091     8.845
    29   6 C        2.950    -0.037    28.925     8.821
    30   6 C        2.967     0.053    26.807     8.493
    31  16 S        2.033    -0.188   149.026    20.546
    32   6 C        3.744    -0.061    21.744     6.652
    33   6 C        2.977    -0.037    28.905     8.819
    34   6 C        2.924    -0.044    29.105     8.847
    35   6 C        2.927     0.057    26.724     8.478
    36   6 C        2.922    -0.042    29.053     8.839
    37   6 C        2.986    -0.040    28.996     8.833
    38   6 C        2.965     0.049    26.895     8.507
    39  16 S        2.036    -0.173   148.398    20.503
    40   6 C        3.744    -0.068    21.876     6.672
    41   6 C        2.943    -0.044    29.091     8.846
    42   6 C        2.924    -0.045    29.108     8.848
    43   6 C        3.162    -0.004    27.781     8.615
    44  16 S        2.264    -0.026   142.140    20.066
    45   6 C        3.039     0.007    27.828     8.652
    46   6 C        3.065     0.050    26.815     8.491
    47   7 N        2.742    -0.119    23.595     7.214
    48   6 C        2.933     0.064    26.573     8.454
    49   6 C        2.924    -0.051    29.256     8.870
    50   6 C        2.974    -0.036    28.886     8.816
    51   6 C        2.966     0.040    27.097     8.538
    52  16 S        2.026    -0.227   150.737    20.664
    53   6 C        3.744    -0.058    21.682     6.643
    54   6 C        2.948    -0.041    29.024     8.836
    55   6 C        2.925    -0.054    29.345     8.884
    56   6 C        2.925     0.068    26.475     8.438
    57   6 C        2.924    -0.034    28.846     8.808
    58   6 C        2.943    -0.043    29.066     8.842
    59   6 C        2.966     0.048    26.926     8.511
    60  16 S        2.034    -0.181   148.716    20.525
    61   6 C        3.744    -0.062    21.771     6.656
    62   6 C        2.983    -0.030    28.741     8.794
    63   6 C        2.923    -0.035    28.862     8.810
    64   6 C        3.200     0.012    27.178     8.496
    65  16 S        2.276    -0.091   144.859    20.257
    66   6 C        3.027    -0.010    28.244     8.717
    67   6 C        3.055     0.051    26.804     8.491
    68   7 N        2.748    -0.066    22.520     7.048
    69   6 C        2.923     0.061    26.640     8.464
    70   6 C        2.925    -0.049    29.223     8.865
    71   6 C        2.948    -0.043    29.056     8.841
    72   6 C        2.966     0.041    27.067     8.534
    73  16 S        2.023    -0.194   149.288    20.564
    74   6 C        3.744    -0.045    21.444     6.606
    75   6 C        2.969    -0.040    28.989     8.831
    76   6 C        2.922    -0.045    29.111     8.848
    77   6 C        2.927     0.059    26.681     8.471
    78   6 C        2.923    -0.049    29.208     8.863
    79   6 C        2.942    -0.045    29.127     8.852
    80   6 C        2.965     0.046    26.971     8.519
    81  16 S        2.035    -0.197   149.416    20.573
    82   6 C        3.744    -0.065    21.820     6.663
    83   6 C        2.985    -0.041    29.021     8.837
    84   6 C        2.923    -0.046    29.145     8.853
    85   6 C        3.179    -0.000    27.614     8.580
    86  16 S        2.274    -0.050   143.122    20.135
    87   6 C        2.998     0.004    27.928     8.669
    88   6 C        3.068     0.046    26.894     8.504
    89   7 N        2.748    -0.076    22.709     7.078
    90   6 C        2.920     0.062    26.608     8.459
    91   6 C        2.923    -0.055    29.364     8.886
    92   6 C        2.941    -0.046    29.151     8.855
    93   6 C        2.965     0.041    27.085     8.536
    94  16 S        2.032    -0.210   149.988    20.613
    95   6 C        3.744    -0.063    21.775     6.657
    96   6 C        2.983    -0.042    29.044     8.840
    97   6 C        2.923    -0.052    29.281     8.874
    98   6 C        2.931     0.058    26.693     8.473
    99   6 C        2.922    -0.038    28.948     8.823
   100   6 C        2.983    -0.035    28.859     8.812
   101   6 C        2.966     0.049    26.897     8.507
   102  16 S        2.036    -0.192   149.199    20.558
   103   6 C        3.744    -0.055    21.627     6.634
   104   6 C        2.945    -0.044    29.101     8.848
   105   6 C        2.921    -0.043    29.069     8.841
   106   6 C        3.178    -0.000    27.615     8.580
   107  16 S        2.258    -0.066   143.775    20.181
   108   6 C        3.003     0.012    27.729     8.638
   109   6 C        2.929    -0.041    29.014     8.834
   110   6 C        3.065     0.007    27.799     8.646
   111   6 C        3.933     0.013    20.296     6.402
   112   6 C        3.802    -0.054    21.540     6.608
   113   6 C        3.750    -0.108    22.618     6.783
   114   6 C        3.807    -0.052    21.492     6.599
   115   6 C        3.751    -0.110    22.661     6.789
   116   6 C        3.060     0.004    27.873     8.658
   117   6 C        3.045     0.009    27.767     8.643
   118   6 C        3.040     0.000    27.982     8.676
   119   6 C        2.913    -0.034    28.846     8.807
   120   6 C        2.924    -0.041    29.029     8.836
   121   6 C        2.912    -0.033    28.812     8.802
   122   6 C        2.924    -0.017    28.427     8.744
   123   6 C        2.980     0.018    27.600     8.618
   124   6 C        2.925    -0.034    28.837     8.806
   125   6 C        2.908     0.003    27.959     8.670
   126   6 C        3.009    -0.029    28.714     8.790
   127   6 C        2.860     0.246    22.889     7.842
   128   8 O        0.856    -0.405    21.785     6.258
   129   6 C        3.041    -0.034    28.794     8.801
   130   6 C        2.777     0.184    24.045     8.031
   131   9 F        0.787    -0.230    11.552     4.015
   132   6 C        2.916    -0.037    28.915     8.818
   133   6 C        2.923    -0.018    28.464     8.749
   134   6 C        2.912    -0.030    28.743     8.791
   135   6 C        3.029     0.015    27.644     8.624
   136   6 C        3.019     0.042    27.046     8.531
   137   6 C        2.947     0.010    27.787     8.646
   138   6 C        1.935     0.133    27.840     8.521
   139   7 N        0.911    -0.272    27.026     7.519
   140   6 C        1.935     0.135    27.792     8.514
   141   7 N        0.911    -0.270    26.982     7.513
   142   1 H        0.925     0.067     2.113     2.273
   143   1 H        0.926     0.064     2.147     2.292
   144   1 H        0.926     0.054     2.266     2.354
   145   1 H        0.925     0.056     2.242     2.341
   146   1 H        0.925     0.042     2.418     2.432
   147   1 H        0.926     0.045     2.385     2.415
   148   1 H        0.926     0.045     2.384     2.415
   149   1 H        0.925     0.043     2.405     2.425
   150   1 H        0.925     0.044     2.397     2.421
   151   1 H        0.925     0.032     2.560     2.502
   152   1 H        0.925     0.057     2.233     2.337
   153   1 H        0.926     0.053     2.277     2.360
   154   1 H        0.926     0.058     2.223     2.332
   155   1 H        0.925     0.067     2.124     2.279
   156   1 H        0.925     0.077     2.005     2.214
   157   1 H        0.925     0.074     2.047     2.237
   158   1 H        0.926     0.052     2.299     2.371
   159   1 H        0.926     0.047     2.352     2.398
   160   1 H        0.926     0.052     2.301     2.372
   161   1 H        0.926     0.059     2.209     2.324
   162   1 H        0.925     0.073     2.050     2.239
   163   1 H        0.925     0.074     2.040     2.234
   164   1 H        0.925     0.085     1.932     2.174
   165   1 H        0.926     0.058     2.226     2.333
   166   1 H        0.926     0.039     2.468     2.456
   167   1 H        0.926     0.034     2.524     2.485
   168   1 H        0.926     0.037     2.483     2.464
   169   1 H        0.925     0.071     2.076     2.253
   170   1 H        0.925     0.075     2.033     2.230
   171   1 H        0.925     0.063     2.168     2.303
   172   1 H        0.926     0.044     2.394     2.420
   173   1 H        0.926     0.023     2.681     2.561
   174   1 H        0.925     0.036     2.505     2.475
   175   1 H        0.926     0.050     2.316     2.380
   176   1 H        0.925     0.082     1.956     2.187
   177   1 H        0.925     0.088     1.903     2.157
   178   1 H        0.925     0.061     2.189     2.314
   179   1 H        0.926     0.037     2.484     2.464
   180   1 H        0.926     0.045     2.380     2.412
   181   1 H        0.926     0.025     2.654     2.548
   182   1 H        0.926     0.037     2.483     2.464
   183   1 H        0.925     0.064     2.153     2.295
   184   1 H        0.925     0.062     2.179     2.309
   185   1 H        0.925     0.049     2.330     2.387
   186   1 H        0.926     0.055     2.256     2.349
   187   1 H        0.926     0.056     2.247     2.344
   188   1 H        0.926     0.044     2.394     2.420
   189   1 H        0.926     0.055     2.258     2.350
   190   1 H        0.925     0.072     2.064     2.247
   191   1 H        0.925     0.081     1.968     2.194
   192   1 H        0.925     0.073     2.055     2.242
   193   1 H        0.926     0.049     2.335     2.390
   194   1 H        0.926     0.037     2.489     2.467
   195   1 H        0.926     0.035     2.511     2.478
   196   1 H        0.926     0.050     2.325     2.385
   197   1 H        0.925     0.070     2.081     2.256
   198   1 H        0.925     0.071     2.077     2.254
   199   1 H        0.925     0.080     1.981     2.201
   200   1 H        0.926     0.044     2.402     2.424
   201   1 H        0.926     0.038     2.480     2.463
   202   1 H        0.926     0.035     2.520     2.483
   203   1 H        0.926     0.040     2.445     2.445
   204   1 H        0.925     0.076     2.019     2.222
   205   1 H        0.925     0.059     2.210     2.325
   206   1 H        0.925     0.073     2.048     2.238
   207   1 H        0.926     0.055     2.258     2.350
   208   1 H        0.926     0.052     2.293     2.368
   209   1 H        0.926     0.054     2.268     2.355
   210   1 H        0.924     0.045     2.383     2.414
   211   1 H        0.924     0.028     2.616     2.529
   212   1 H        0.925     0.047     2.355     2.400
   213   1 H        0.925     0.040     2.446     2.446
   214   1 H        0.925     0.038     2.475     2.460
   215   1 H        0.924     0.051     2.307     2.375
   216   1 H        0.924     0.034     2.525     2.485
   217   1 H        0.925     0.043     2.412     2.429
   218   1 H        0.925     0.038     2.471     2.458
   219   1 H        0.925     0.046     2.366     2.405
   220   1 H        0.926     0.044     2.392     2.418
   221   1 H        0.926     0.043     2.405     2.425
   222   1 H        0.926     0.048     2.348     2.396
   223   1 H        0.926     0.045     2.384     2.415
   224   1 H        0.926     0.053     2.277     2.360
   225   1 H        0.925     0.075     2.029     2.228
   226   1 H        0.926     0.078     2.001     2.212
   227   1 H        0.926     0.096     1.819     2.109
   228   1 H        0.926     0.079     1.986     2.204

 Mol. C6AA /au·bohr⁶  :     885295.630216
 Mol. C8AA /au·bohr⁸  :   25073365.223283
 Mol. α(0) /au        :       1511.207997


Wiberg/Mayer (AO) data.
largest (>0.10) Wiberg bond orders for each atom

 ---------------------------------------------------------------------------
     #   Z sym  total        # sym  WBO       # sym  WBO       # sym  WBO
 ---------------------------------------------------------------------------
     1   6 C    3.944 --     2 C    1.487    24 C    1.305   142 H    0.940
     2   6 C    3.944 --     1 C    1.487    11 C    1.159     3 C    1.024
     3   6 C    3.913 --     4 O    1.717     2 C    1.024     5 C    1.024
     4   8 O    2.003 --     3 C    1.717
     5   6 C    3.968 --     6 C    1.383    10 C    1.301     3 C    1.024
     6   6 C    3.977 --     7 C    1.435     5 C    1.383   143 H    0.963
     7   6 C    3.953 --     6 C    1.435     8 C    1.327    23 C    0.994
     8   6 C    3.963 --     9 C    1.441     7 C    1.327    17 C    0.995
     9   6 C    3.975 --     8 C    1.441    10 C    1.372   144 H    0.961
    10   6 C    3.973 --     9 C    1.372     5 C    1.301    11 C    1.079
    11   6 C    3.959 --    12 C    1.432     2 C    1.159    10 C    1.079
    12   6 C    3.954 --    11 C    1.432    15 C    1.118    13 C    1.103
    13   6 C    3.939 --    14 N    2.732    12 C    1.103
    14   7 N    2.956 --    13 C    2.732
    15   6 C    3.940 --    16 N    2.737    12 C    1.118
    16   7 N    2.949 --    15 C    2.737
    17   6 C    3.982 --     8 C    0.995    23 C    0.974   145 H    0.959
                            18 C    0.950
    18   6 C    3.988 --    19 C    1.003    22 C    0.989   146 H    0.970
                            17 C    0.950
    19   6 C    3.981 --    20 C    1.924    18 C    1.003   147 H    0.970
    20   6 C    3.981 --    19 C    1.924    21 C    1.003   148 H    0.970
    21   6 C    3.988 --    20 C    1.003    22 C    0.989   149 H    0.970
                            23 C    0.950
    22   6 C    3.994 --    18 C    0.989    21 C    0.989   150 H    0.978
                           151 H    0.974
    23   6 C    3.982 --     7 C    0.994    17 C    0.974   152 H    0.959
                            21 C    0.950
    24   6 C    3.912 --     1 C    1.305    25 C    1.297    65 S    1.061
    25   6 C    3.945 --    24 C    1.297    43 C    1.237    26 N    1.161
    26   7 N    3.518 --    25 C    1.161    35 C    1.050    27 C    1.012
    27   6 C    3.958 --    28 C    1.377    34 C    1.364    26 N    1.012
    28   6 C    3.982 --    29 C    1.454    27 C    1.377   153 H    0.966
    29   6 C    3.988 --    28 C    1.454    30 C    1.387   154 H    0.964
    30   6 C    3.962 --    29 C    1.387    33 C    1.374    31 S    1.049
    31  16 S    2.230 --    30 C    1.049    32 C    1.002
    32   6 C    3.966 --    31 S    1.002   155 H    0.981   157 H    0.978
                           156 H    0.977
    33   6 C    3.989 --    34 C    1.472    30 C    1.374   158 H    0.967
    34   6 C    3.985 --    33 C    1.472    27 C    1.364   159 H    0.959
    35   6 C    3.955 --    42 C    1.362    36 C    1.346    26 N    1.050
    36   6 C    3.973 --    37 C    1.484    35 C    1.346   160 H    0.965
    37   6 C    3.987 --    36 C    1.484    38 C    1.359   161 H    0.966
    38   6 C    3.948 --    41 C    1.382    37 C    1.359    39 S    1.063
    39  16 S    2.267 --    38 C    1.063    40 C    1.009
    40   6 C    3.965 --    39 S    1.009   162 H    0.979   163 H    0.979
                           164 H    0.974
    41   6 C    3.985 --    42 C    1.454    38 C    1.382   165 H    0.963
    42   6 C    3.979 --    41 C    1.454    35 C    1.362   166 H    0.966
    43   6 C    3.932 --    64 C    1.362    25 C    1.237    44 S    1.104
    44  16 S    2.553 --    45 C    1.107    43 C    1.104
    45   6 C    3.911 --    46 C    1.464    66 C    1.121    44 S    1.107
    46   6 C    3.951 --    45 C    1.464    64 C    1.231    47 N    1.020
    47   7 N    3.349 --    48 C    1.079    46 C    1.020    56 C    0.976
    48   6 C    3.966 --    55 C    1.352    49 C    1.350    47 N    1.079
    49   6 C    3.986 --    50 C    1.467    48 C    1.350   167 H    0.962
    50   6 C    3.990 --    49 C    1.467    51 C    1.380   168 H    0.968
                            55 C    0.100
    51   6 C    3.957 --    54 C    1.387    50 C    1.380    52 S    1.028
    52  16 S    2.201 --    51 C    1.028    53 C    1.002
    53   6 C    3.966 --    52 S    1.002   171 H    0.982   169 H    0.978
                           170 H    0.973
    54   6 C    3.989 --    55 C    1.458    51 C    1.387   172 H    0.966
    55   6 C    3.986 --    54 C    1.458    48 C    1.352   173 H    0.965
                            50 C    0.100
    56   6 C    3.966 --    57 C    1.396    63 C    1.390    47 N    0.976
    57   6 C    3.989 --    58 C    1.442    56 C    1.396   174 H    0.964
                            62 C    0.107
    58   6 C    3.987 --    57 C    1.442    59 C    1.388   175 H    0.963
                            63 C    0.100
    59   6 C    3.964 --    58 C    1.388    62 C    1.379    60 S    1.049
    60  16 S    2.295 --    59 C    1.049    61 C    1.008
    61   6 C    3.964 --    60 S    1.008   176 H    0.977   178 H    0.976
                           177 H    0.973
    62   6 C    3.990 --    63 C    1.456    59 C    1.379   179 H    0.967
                            57 C    0.107
    63   6 C    3.988 --    62 C    1.456    56 C    1.390   180 H    0.957
                            58 C    0.100
    64   6 C    3.932 --    43 C    1.362    46 C    1.231    65 S    1.112
    65  16 S    2.552 --    64 C    1.112    24 C    1.061
    66   6 C    3.894 --    67 C    1.431    45 C    1.121   107 S    1.081
    67   6 C    3.953 --    66 C    1.431    85 C    1.220    68 N    1.078
    68   7 N    3.488 --    67 C    1.078    69 C    1.055    77 C    1.053
    69   6 C    3.964 --    70 C    1.369    76 C    1.352    68 N    1.055
    70   6 C    3.987 --    71 C    1.452    69 C    1.369   181 H    0.963
                            75 C    0.100
    71   6 C    3.989 --    70 C    1.452    72 C    1.392   182 H    0.962
    72   6 C    3.955 --    71 C    1.392    75 C    1.373    73 S    1.032
    73  16 S    2.229 --    72 C    1.032    74 C    1.005
    74   6 C    3.973 --    73 S    1.005   183 H    0.981   184 H    0.978
                           185 H    0.977
    75   6 C    3.988 --    76 C    1.472    72 C    1.373   186 H    0.966
                            70 C    0.100
    76   6 C    3.984 --    75 C    1.472    69 C    1.352   187 H    0.965
    77   6 C    3.959 --    78 C    1.367    84 C    1.348    68 N    1.053
    78   6 C    3.982 --    79 C    1.453    77 C    1.367   188 H    0.965
                            83 C    0.101
    79   6 C    3.987 --    78 C    1.453    80 C    1.385   189 H    0.963
    80   6 C    3.951 --    79 C    1.385    83 C    1.366    81 S    1.050
    81  16 S    2.253 --    80 C    1.050    82 C    1.009
    82   6 C    3.967 --    81 S    1.009   190 H    0.979   192 H    0.979
                           191 H    0.975
    83   6 C    3.989 --    84 C    1.478    80 C    1.366   193 H    0.967
                            78 C    0.101
    84   6 C    3.984 --    83 C    1.478    77 C    1.348   194 H    0.966
    85   6 C    3.932 --   106 C    1.381    67 C    1.220    86 S    1.105
    86  16 S    2.533 --    85 C    1.105    87 C    1.095
    87   6 C    3.905 --    88 C    1.422   108 C    1.138    86 S    1.095
    88   6 C    3.948 --    87 C    1.422   106 C    1.219    89 N    1.065
    89   7 N    3.458 --    90 C    1.080    88 C    1.065    98 C    1.015
    90   6 C    3.962 --    91 C    1.357    97 C    1.332    89 N    1.080
    91   6 C    3.982 --    92 C    1.451    90 C    1.357   195 H    0.965
    92   6 C    3.988 --    91 C    1.451    93 C    1.390   196 H    0.964
    93   6 C    3.949 --    92 C    1.390    96 C    1.363    94 S    1.040
    94  16 S    2.238 --    93 C    1.040    95 C    1.009
    95   6 C    3.968 --    94 S    1.009   197 H    0.979   198 H    0.979
                           199 H    0.975
    96   6 C    3.989 --    97 C    1.483    93 C    1.363   200 H    0.968
    97   6 C    3.983 --    96 C    1.483    90 C    1.332   201 H    0.965
    98   6 C    3.965 --   105 C    1.379    99 C    1.369    89 N    1.015
    99   6 C    3.987 --   100 C    1.466    98 C    1.369   202 H    0.966
   100   6 C    3.990 --    99 C    1.466   101 C    1.372   203 H    0.968
                           105 C    0.103
   101   6 C    3.957 --   104 C    1.384   100 C    1.372   102 S    1.053
   102  16 S    2.258 --   101 C    1.053   103 C    1.006
   103   6 C    3.968 --   102 S    1.006   205 H    0.981   204 H    0.979
                           206 H    0.975
   104   6 C    3.987 --   105 C    1.451   101 C    1.384   207 H    0.963
   105   6 C    3.985 --   104 C    1.451    98 C    1.379   208 H    0.966
                           100 C    0.103
   106   6 C    3.929 --    85 C    1.381    88 C    1.219   107 S    1.104
   107  16 S    2.540 --   106 C    1.104    66 C    1.081
   108   6 C    3.962 --   120 C    1.334   109 C    1.304    87 C    1.138
   109   6 C    3.972 --   110 C    1.498   108 C    1.304   209 H    0.949
   110   6 C    3.973 --   109 C    1.498   118 C    1.282   111 C    0.980
   111   6 C    3.986 --   116 C    0.982   110 C    0.980   112 C    0.975
                           114 C    0.947
   112   6 C    3.994 --   113 C    1.018   111 C    0.975   211 H    0.974
                           210 H    0.969
   113   6 C    3.995 --   112 C    1.018   213 H    0.985   212 H    0.984
                           214 H    0.980
   114   6 C    3.992 --   115 C    1.019   216 H    0.977   215 H    0.972
                           111 C    0.947
   115   6 C    3.994 --   114 C    1.019   218 H    0.985   217 H    0.985
                           219 H    0.984
   116   6 C    3.972 --   124 C    1.483   117 C    1.291   111 C    0.982
   117   6 C    3.968 --   121 C    1.364   116 C    1.291   118 C    1.112
   118   6 C    3.959 --   119 C    1.365   110 C    1.282   117 C    1.112
   119   6 C    3.980 --   120 C    1.476   118 C    1.365   220 H    0.965
   120   6 C    3.973 --   119 C    1.476   108 C    1.334   221 H    0.959
   121   6 C    3.978 --   122 C    1.470   117 C    1.364   222 H    0.965
   122   6 C    3.974 --   121 C    1.470   123 C    1.349   223 H    0.968
   123   6 C    3.966 --   122 C    1.349   124 C    1.315   125 C    1.127
   124   6 C    3.972 --   116 C    1.483   123 C    1.315   224 H    0.958
   125   6 C    3.933 --   126 C    1.615   123 C    1.127   225 H    0.946
   126   6 C    3.970 --   125 C    1.615   136 C    1.126   127 C    1.009
   127   6 C    3.921 --   128 O    1.759   129 C    1.020   126 C    1.009
   128   8 O    2.051 --   127 C    1.759
   129   6 C    3.976 --   130 C    1.373   135 C    1.289   127 C    1.020
   130   6 C    3.873 --   132 C    1.376   129 C    1.373   131 F    0.958
   131   9 F    1.099 --   130 C    0.958
   132   6 C    3.966 --   133 C    1.440   130 C    1.376   226 H    0.964
   133   6 C    3.974 --   132 C    1.440   134 C    1.422   227 H    0.963
   134   6 C    3.973 --   133 C    1.422   135 C    1.403   228 H    0.959
   135   6 C    3.984 --   134 C    1.403   129 C    1.289   136 C    1.085
   136   6 C    3.966 --   137 C    1.487   126 C    1.126   135 C    1.085
   137   6 C    3.957 --   136 C    1.487   140 C    1.101   138 C    1.097
   138   6 C    3.943 --   139 N    2.758   137 C    1.097
   139   7 N    2.964 --   138 C    2.758
   140   6 C    3.942 --   141 N    2.757   137 C    1.101
   141   7 N    2.962 --   140 C    2.757
   142   1 H    0.994 --     1 C    0.940
   143   1 H    0.995 --     6 C    0.963
   144   1 H    0.996 --     9 C    0.961
   145   1 H    0.995 --    17 C    0.959
   146   1 H    0.998 --    18 C    0.970
   147   1 H    0.998 --    19 C    0.970
   148   1 H    0.998 --    20 C    0.970
   149   1 H    0.998 --    21 C    0.970
   150   1 H    0.998 --    22 C    0.978
   151   1 H    0.999 --    22 C    0.974
   152   1 H    0.995 --    23 C    0.959
   153   1 H    0.997 --    28 C    0.966
   154   1 H    0.996 --    29 C    0.964
   155   1 H    0.995 --    32 C    0.981
   156   1 H    0.993 --    32 C    0.977
   157   1 H    0.994 --    32 C    0.978
   158   1 H    0.997 --    33 C    0.967
   159   1 H    0.997 --    34 C    0.959
   160   1 H    0.997 --    36 C    0.965
   161   1 H    0.996 --    37 C    0.966
   162   1 H    0.994 --    40 C    0.979
   163   1 H    0.994 --    40 C    0.979
   164   1 H    0.992 --    40 C    0.974
   165   1 H    0.996 --    41 C    0.963
   166   1 H    0.998 --    42 C    0.966
   167   1 H    0.999 --    49 C    0.962
   168   1 H    0.998 --    50 C    0.968
   169   1 H    0.994 --    53 C    0.978
   170   1 H    0.994 --    53 C    0.973
   171   1 H    0.996 --    53 C    0.982
   172   1 H    0.997 --    54 C    0.966
   173   1 H    0.999 --    55 C    0.965
   174   1 H    0.999 --    57 C    0.964
   175   1 H    0.997 --    58 C    0.963
   176   1 H    0.993 --    61 C    0.977
   177   1 H    0.992 --    61 C    0.973
   178   1 H    0.996 --    61 C    0.976
   179   1 H    0.998 --    62 C    0.967
   180   1 H    0.997 --    63 C    0.957
   181   1 H    0.999 --    70 C    0.963
   182   1 H    0.998 --    71 C    0.962
   183   1 H    0.995 --    74 C    0.981
   184   1 H    0.996 --    74 C    0.978
   185   1 H    0.997 --    74 C    0.977
   186   1 H    0.996 --    75 C    0.966
   187   1 H    0.996 --    76 C    0.965
   188   1 H    0.998 --    78 C    0.965
   189   1 H    0.996 --    79 C    0.963
   190   1 H    0.995 --    82 C    0.979
   191   1 H    0.993 --    82 C    0.975
   192   1 H    0.994 --    82 C    0.979
   193   1 H    0.997 --    83 C    0.967
   194   1 H    0.998 --    84 C    0.966
   195   1 H    0.999 --    91 C    0.965
   196   1 H    0.997 --    92 C    0.964
   197   1 H    0.995 --    95 C    0.979
   198   1 H    0.994 --    95 C    0.979
   199   1 H    0.993 --    95 C    0.975
   200   1 H    0.998 --    96 C    0.968
   201   1 H    0.998 --    97 C    0.965
   202   1 H    0.998 --    99 C    0.966
   203   1 H    0.998 --   100 C    0.968
   204   1 H    0.994 --   103 C    0.979
   205   1 H    0.996 --   103 C    0.981
   206   1 H    0.994 --   103 C    0.975
   207   1 H    0.996 --   104 C    0.963
   208   1 H    0.997 --   105 C    0.966
   209   1 H    0.996 --   109 C    0.949
   210   1 H    0.997 --   112 C    0.969
   211   1 H    0.999 --   112 C    0.974
   212   1 H    0.998 --   113 C    0.984
   213   1 H    0.998 --   113 C    0.985
   214   1 H    0.999 --   113 C    0.980
   215   1 H    0.996 --   114 C    0.972
   216   1 H    0.999 --   114 C    0.977
   217   1 H    0.997 --   115 C    0.985
   218   1 H    0.998 --   115 C    0.985
   219   1 H    0.998 --   115 C    0.984
   220   1 H    0.997 --   119 C    0.965
   221   1 H    0.997 --   120 C    0.959
   222   1 H    0.997 --   121 C    0.965
   223   1 H    0.997 --   122 C    0.968
   224   1 H    0.997 --   124 C    0.958
   225   1 H    0.992 --   125 C    0.946
   226   1 H    0.993 --   132 C    0.964
   227   1 H    0.990 --   133 C    0.963
   228   1 H    0.993 --   134 C    0.959
 ---------------------------------------------------------------------------

Topologies differ in bond orders
Writing corrected topology to xtbtopo.mol

molecular dipole:
                 x           y           z       tot (Debye)
 q only:        3.067       1.566       4.894
   full:        1.653       1.888       5.155      14.573
molecular quadrupole (traceless):
                xx          xy          yy          xz          yz          zz
 q only:        3.478      -7.174      40.093       2.975     -57.499     -43.571
  q+dip:       16.831     -10.684      39.147      -6.440     -59.334     -55.978
   full:       22.499     -14.578      36.561       0.964     -55.193     -59.059


           -------------------------------------------------
          | TOTAL ENERGY             -372.151988375506 Eh   |
          | GRADIENT NORM               0.035918460770 Eh/α |
          | HOMO-LUMO GAP               0.353324913171 eV   |
           -------------------------------------------------

------------------------------------------------------------------------
 * finished run on 2022/02/06 at 02:10:43.525     
------------------------------------------------------------------------
 total:
 * wall-time:     0 d,  0 h,  0 min,  1.108 sec
 *  cpu-time:     0 d,  0 h,  0 min,  8.746 sec
 * ratio c/w:     7.893 speedup
 SCF:
 * wall-time:     0 d,  0 h,  0 min,  0.990 sec
 *  cpu-time:     0 d,  0 h,  0 min,  7.897 sec
 * ratio c/w:     7.980 speedup

