      -----------------------------------------------------------      
     |                   =====================                   |     
     |                           x T B                           |     
     |                   =====================                   |     
     |                         S. Grimme                         |     
     |          Mulliken Center for Theoretical Chemistry        |     
     |                    University of Bonn                     |     
      -----------------------------------------------------------      

   * xtb version 6.4.1 (unknown) compiled by 'oda6@login1.crc.pitt.edu' on 2021-06-25

   xtb is free software: you can redistribute it and/or modify it under
   the terms of the GNU Lesser General Public License as published by
   the Free Software Foundation, either version 3 of the License, or
   (at your option) any later version.
   
   xtb is distributed in the hope that it will be useful,
   but WITHOUT ANY WARRANTY; without even the implied warranty of
   MERCHANTABILITY or FITNESS FOR A PARTICULAR PURPOSE.  See the
   GNU Lesser General Public License for more details.
   
   Cite this work as:
   * C. Bannwarth, E. Caldeweyher, S. Ehlert, A. Hansen, P. Pracht,
     J. Seibert, S. Spicher, S. Grimme, WIREs Comput. Mol. Sci., 2020, 11,
     e01493. DOI: 10.1002/wcms.1493
   
   for GFN2-xTB:
   * C. Bannwarth, S. Ehlert and S. Grimme., J. Chem. Theory Comput., 2019,
     15, 1652-1671. DOI: 10.1021/acs.jctc.8b01176
   for GFN1-xTB:
   * S. Grimme, C. Bannwarth, P. Shushkov, J. Chem. Theory Comput., 2017,
     13, 1989-2009. DOI: 10.1021/acs.jctc.7b00118
   for GFN0-xTB:
   * P. Pracht, E. Caldeweyher, S. Ehlert, S. Grimme, ChemRxiv, 2019, preprint.
     DOI: 10.26434/chemrxiv.8326202.v1
   for GFN-FF:
   * S. Spicher and S. Grimme, Angew. Chem. Int. Ed., 2020, 59, 15665-15673.
     DOI: 10.1002/anie.202004239
   
   for DFT-D4:
   * E. Caldeweyher, C. Bannwarth and S. Grimme, J. Chem. Phys., 2017,
     147, 034112. DOI: 10.1063/1.4993215
   * E. Caldeweyher, S. Ehlert, A. Hansen, H. Neugebauer, S. Spicher,
     C. Bannwarth and S. Grimme, J. Chem. Phys., 2019, 150, 154122.
     DOI: 10.1063/1.5090222
   * E. Caldeweyher, J.-M. Mewes, S. Ehlert and S. Grimme, Phys. Chem. Chem. Phys.
     2020, 22, 8499-8512. DOI: 10.1039/D0CP00502A
   
   for sTDA-xTB:
   * S. Grimme and C. Bannwarth, J. Chem. Phys., 2016, 145, 054103.
     DOI: 10.1063/1.4959605
   
   in the mass-spec context:
   * V. Asgeirsson, C. Bauer and S. Grimme, Chem. Sci., 2017, 8, 4879.
     DOI: 10.1039/c7sc00601b
   * J. Koopman and S. Grimme, ACS Omega 2019, 4, 12, 15120-15133.
     DOI: 10.1021/acsomega.9b02011
   
   for metadynamics refer to:
   * S. Grimme, J. Chem. Theory Comput., 2019, 155, 2847-2862
     DOI: 10.1021/acs.jctc.9b00143
   
   for SPH calculations refer to:
   * S. Spicher and S. Grimme, J. Chem. Theory Comput., 2021, 17, 1701-1714
     DOI: 10.1021/acs.jctc.0c01306
   
   with help from (in alphabetical order)
   P. Atkinson, C. Bannwarth, F. Bohle, G. Brandenburg, E. Caldeweyher
   M. Checinski, S. Dohm, S. Ehlert, S. Ehrlich, I. Gerasimov, J. Koopman
   C. Lavigne, S. Lehtola, F. März, M. Müller, F. Musil, H. Neugebauer
   J. Pisarek, C. Plett, P. Pracht, J. Seibert, P. Shushkov, S. Spicher
   M. Stahn, M. Steiner, T. Strunk, J. Stückrath, T. Rose, and J. Unsleber
   
 * started run on 2022/02/07 at 23:06:55.487     

           -------------------------------------------------
          |                Calculation Setup                |
           -------------------------------------------------

          program call               : /ihome/ghutchison/oda6/xtb/xtb-641/bin/xtb ../../GFN2_output/39_130_130_16_65.mol --sp --alpb water
          hostname                   : smp-n26
          coordinate file            : ../../GFN2_output/39_130_130_16_65.mol
          omp threads                :                     8
          number of atoms            :                   202
          number of electrons        :                   648
          charge                     :                     0
          spin                       :                   0.0
          first test random number   :      0.90164408722880

   ID    Z sym.   atoms
    1    6 C      1-3, 5-13, 15, 17-25, 27-30, 32-38, 40-43, 45, 46, 48-51,
                  53-59, 61-64, 66, 67, 69-72, 74-80, 82-85, 87, 88, 90-93,
                  95-101, 103-106, 108-111, 113-115, 117, 118, 120, 122, 124,
                  126-129, 131
    2    8 O      4, 112, 116
    3    7 N      14, 16, 26, 47, 68, 89, 130, 132
    4   16 S      31, 39, 44, 52, 60, 65, 73, 81, 86, 94, 102, 107
    5   17 Cl     119, 121, 123, 125
    6    1 H      133-202

           -------------------------------------------------
          |                 G F N 2 - x T B                 |
           -------------------------------------------------

        Reference                      10.1021/acs.jctc.8b01176
      * Hamiltonian:
        H0-scaling (s, p, d)           1.850000    2.230000    2.230000
        zeta-weighting                 0.500000
      * Dispersion:
        s8                             2.700000
        a1                             0.520000
        a2                             5.000000
        s9                             5.000000
      * Repulsion:
        kExp                           1.500000    1.000000
        rExp                           1.000000
      * Coulomb:
        alpha                          2.000000
        third order                    shell-resolved
        anisotropic                    true
        a3                             3.000000
        a5                             4.000000
        cn-shift                       1.200000
        cn-exp                         4.000000
        max-rad                        5.000000

      * Solvation model:               ALPB
        Solvent                        water
        Parameter file                 internal GFN2-xTB/ALPB
        Dielectric constant                8.0200E+01
        Reference state                gsolv [1 M gas/solution]
        Free energy shift                  1.0808E-03 Eh       6.7819E-01 kcal/mol
        Temperature                        2.9815E+02 K
        Density                            1.0000E+00 kg/L
        Solvent mass                       1.8000E+01 g/mol
        Interaction kernel             P16
        Born radius scaling (c1)           1.4744E+00
        Born radii integrator          GBOBC
        Born offset                        0.0000E+00 a0       0.0000E+00 AA
        H-bond correction              true
        Ion screening                  false
        Surface tension                    1.0000E-05 Eh       1.5569E+01 dyn/cm
        Grid points                               230 per atom

          ...................................................
          :                      SETUP                      :
          :.................................................:
          :  # basis functions                 694          :
          :  # atomic orbitals                 678          :
          :  # shells                          350          :
          :  # electrons                       648          :
          :  max. iterations                   250          :
          :  Hamiltonian                  GFN2-xTB          :
          :  restarted?                      false          :
          :  GBSA solvation                   true          :
          :  PC potential                    false          :
          :  electronic temp.          300.0000000     K    :
          :  accuracy                    1.0000000          :
          :  -> integral cutoff          0.2500000E+02      :
          :  -> integral neglect         0.1000000E-07      :
          :  -> SCF convergence          0.1000000E-05 Eh   :
          :  -> wf. convergence          0.1000000E-03 e    :
          :  Broyden damping             0.4000000          :
          ...................................................

 iter      E             dE          RMSdq      gap      omega  full diag
   1   -358.2939996 -0.358294E+03  0.476E+00    0.23       0.0  T
   2   -358.5386180 -0.244618E+00  0.275E+00    0.59       1.0  T
   3   -358.3208325  0.217786E+00  0.131E+00    0.14       1.0  T
   4   -358.5718435 -0.251011E+00  0.588E-01    0.62       1.0  T
   5   -358.6214800 -0.496365E-01  0.207E-01    0.40       1.0  T
   6   -358.6230805 -0.160051E-02  0.934E-02    0.35       1.0  T
   7   -358.6234893 -0.408829E-03  0.448E-02    0.36       1.0  T
   8   -358.6235415 -0.522211E-04  0.278E-02    0.37       1.0  T
   9   -358.6235735 -0.319601E-04  0.195E-02    0.37       1.0  T
  10   -358.6235958 -0.223233E-04  0.108E-02    0.38       1.0  T
  11   -358.6236025 -0.667937E-05  0.720E-03    0.38       1.0  T
  12   -358.6236052 -0.269153E-05  0.445E-03    0.38       1.6  T
  13   -358.6236068 -0.165848E-05  0.237E-03    0.38       3.0  T
  14   -358.6236072 -0.374363E-06  0.166E-03    0.38       4.2  T
  15   -358.6236074 -0.163005E-06  0.116E-03    0.38       6.1  T
  16   -358.6236075 -0.114237E-06  0.741E-04    0.38       9.5  T
  17   -358.6236075 -0.422637E-07  0.500E-04    0.38      14.1  T

   *** convergence criteria satisfied after 17 iterations ***

         #    Occupation            Energy/Eh            Energy/eV
      -------------------------------------------------------------
         1        2.0000           -1.0867389             -29.5717
       ...           ...                  ...                  ...
       318        2.0000           -0.3705209             -10.0824
       319        2.0000           -0.3653538              -9.9418
       320        2.0000           -0.3647313              -9.9248
       321        2.0000           -0.3645404              -9.9196
       322        2.0000           -0.3557189              -9.6796
       323        1.9999           -0.3508598              -9.5474
       324        1.9988           -0.3483304              -9.4786 (HOMO)
       325        0.0013           -0.3342622              -9.0957 (LUMO)
       326        0.0000           -0.3282767              -8.9329
       327                         -0.3250928              -8.8462
       328                         -0.3143057              -8.5527
       329                         -0.2908409              -7.9142
       ...                                ...                  ...
       678                          1.1509635              31.3193
      -------------------------------------------------------------
                  HL-Gap            0.0140682 Eh            0.3828 eV
             Fermi-level           -0.3412649 Eh           -9.2863 eV

 SCC (total)                   0 d,  0 h,  0 min,  0.980 sec
 SCC setup                      ...        0 min,  0.008 sec (  0.859%)
 Dispersion                     ...        0 min,  0.009 sec (  0.968%)
 classical contributions        ...        0 min,  0.000 sec (  0.044%)
 integral evaluation            ...        0 min,  0.043 sec (  4.427%)
 iterations                     ...        0 min,  0.766 sec ( 78.121%)
 molecular gradient             ...        0 min,  0.149 sec ( 15.181%)
 printout                       ...        0 min,  0.004 sec (  0.390%)

         :::::::::::::::::::::::::::::::::::::::::::::::::::::
         ::                     SUMMARY                     ::
         :::::::::::::::::::::::::::::::::::::::::::::::::::::
         :: total energy            -353.220206253764 Eh    ::
         :: total w/o Gsasa/hb      -353.203805697497 Eh    ::
         :: gradient norm              0.037498437204 Eh/a0 ::
         :: HOMO-LUMO gap              0.382814885105 eV    ::
         ::.................................................::
         :: SCC energy              -358.623607537427 Eh    ::
         :: -> isotropic ES            0.178179855684 Eh    ::
         :: -> anisotropic ES          0.009817124746 Eh    ::
         :: -> anisotropic XC          0.210722590687 Eh    ::
         :: -> dispersion             -0.404887608245 Eh    ::
         :: -> Gsolv                  -0.055596730882 Eh    ::
         ::    -> Gelec               -0.039196174616 Eh    ::
         ::    -> Gsasa               -0.010401478186 Eh    ::
         ::    -> Ghb                 -0.007079837779 Eh    ::
         ::    -> Gshift               0.001080759698 Eh    ::
         :: repulsion energy           5.383193556467 Eh    ::
         :: add. restraining           0.000000000000 Eh    ::
         :: total charge              -0.000000000000 e     ::
         :::::::::::::::::::::::::::::::::::::::::::::::::::::

           -------------------------------------------------
          |                Property Printout                |
           -------------------------------------------------

    * Orbital Energies and Occupations

         #    Occupation            Energy/Eh            Energy/eV
      -------------------------------------------------------------
         1        2.0000           -1.0867389             -29.5717
       ...           ...                  ...                  ...
       312        2.0000           -0.3886257             -10.5750
       313        2.0000           -0.3848338             -10.4719
       314        2.0000           -0.3841118             -10.4522
       315        2.0000           -0.3786316             -10.3031
       316        2.0000           -0.3727775             -10.1438
       317        2.0000           -0.3710151             -10.0958
       318        2.0000           -0.3705209             -10.0824
       319        2.0000           -0.3653538              -9.9418
       320        2.0000           -0.3647313              -9.9248
       321        2.0000           -0.3645404              -9.9196
       322        2.0000           -0.3557189              -9.6796
       323        1.9999           -0.3508598              -9.5474
       324        1.9988           -0.3483304              -9.4786 (HOMO)
       325        0.0013           -0.3342622              -9.0957 (LUMO)
       326        0.0000           -0.3282767              -8.9329
       327                         -0.3250928              -8.8462
       328                         -0.3143057              -8.5527
       329                         -0.2908409              -7.9142
       330                         -0.2774557              -7.5500
       331                         -0.2673839              -7.2759
       332                         -0.2547710              -6.9327
       333                         -0.2531907              -6.8897
       334                         -0.2516588              -6.8480
       335                         -0.2494674              -6.7884
       ...                                ...                  ...
       678                          1.1509635              31.3193
      -------------------------------------------------------------
                  HL-Gap            0.0140682 Eh            0.3828 eV
             Fermi-level           -0.3412649 Eh           -9.2863 eV

     #   Z          covCN         q      C6AA      α(0)
     1   6 C        2.952    -0.016    28.415     8.743
     2   6 C        3.014    -0.053    29.291     8.878
     3   6 C        2.877     0.221    23.359     7.923
     4   8 O        0.856    -0.458    22.882     6.413
     5   6 C        3.063    -0.027    28.610     8.771
     6   6 C        2.904    -0.027    28.666     8.779
     7   6 C        3.260     0.013    26.569     8.328
     8   6 C        3.257     0.013    26.592     8.337
     9   6 C        2.905    -0.031    28.779     8.796
    10   6 C        3.052    -0.001    28.008     8.679
    11   6 C        3.026     0.033    27.237     8.561
    12   6 C        2.948    -0.012    28.307     8.726
    13   6 C        1.942     0.132    27.866     8.525
    14   7 N        0.911    -0.301    27.755     7.620
    15   6 C        1.942     0.128    27.952     8.538
    16   7 N        0.911    -0.303    27.802     7.626
    17   6 C        4.162    -0.024    20.912     6.495
    18   6 C        4.013    -0.016    20.779     6.476
    19   6 C        2.995    -0.044    29.071     8.844
    20   6 C        2.995    -0.044    29.093     8.848
    21   6 C        4.013    -0.016    20.783     6.476
    22   6 C        3.915    -0.061    21.616     6.608
    23   6 C        4.161    -0.024    20.912     6.495
    24   6 C        2.992     0.007    27.853     8.657
    25   6 C        3.033     0.070    26.393     8.427
    26   7 N        2.748    -0.029    21.800     6.935
    27   6 C        2.921     0.059    26.675     8.470
    28   6 C        2.924    -0.040    28.999     8.831
    29   6 C        2.988    -0.042    29.026     8.838
    30   6 C        2.965     0.046    26.967     8.518
    31  16 S        2.039    -0.159   147.758    20.459
    32   6 C        3.745    -0.061    21.739     6.651
    33   6 C        2.942    -0.043    29.080     8.844
    34   6 C        2.921    -0.043    29.079     8.843
    35   6 C        2.960     0.057    26.715     8.478
    36   6 C        2.922    -0.038    28.955     8.824
    37   6 C        2.948    -0.041    29.014     8.835
    38   6 C        2.967     0.055    26.768     8.486
    39  16 S        2.031    -0.175   148.483    20.509
    40   6 C        3.744    -0.058    21.698     6.645
    41   6 C        2.977    -0.038    28.938     8.824
    42   6 C        2.923    -0.032    28.809     8.802
    43   6 C        3.188     0.000    27.544     8.562
    44  16 S        2.399    -0.054   143.284    20.147
    45   6 C        3.053    -0.003    28.045     8.685
    46   6 C        3.043     0.049    26.863     8.501
    47   7 N        2.747    -0.063    22.464     7.039
    48   6 C        2.929     0.055    26.759     8.483
    49   6 C        2.923    -0.047    29.171     8.857
    50   6 C        2.942    -0.045    29.117     8.850
    51   6 C        2.965     0.046    26.960     8.517
    52  16 S        2.034    -0.193   149.263    20.563
    53   6 C        3.744    -0.061    21.739     6.651
    54   6 C        2.985    -0.039    28.959     8.827
    55   6 C        2.923    -0.041    29.019     8.834
    56   6 C        2.925     0.057    26.718     8.477
    57   6 C        2.934    -0.045    29.126     8.851
    58   6 C        2.944    -0.043    29.062     8.842
    59   6 C        2.966     0.047    26.947     8.515
    60  16 S        2.034    -0.197   149.412    20.573
    61   6 C        3.744    -0.062    21.766     6.655
    62   6 C        2.983    -0.042    29.040     8.840
    63   6 C        2.923    -0.045    29.116     8.849
    64   6 C        3.175     0.011    27.380     8.546
    65  16 S        2.290    -0.075   144.181    20.210
    66   6 C        3.073    -0.005    28.063     8.686
    67   6 C        3.051     0.048    26.872     8.502
    68   7 N        2.748    -0.062    22.437     7.035
    69   6 C        2.927     0.057    26.730     8.479
    70   6 C        2.923    -0.048    29.191     8.860
    71   6 C        2.942    -0.046    29.148     8.855
    72   6 C        2.965     0.047    26.951     8.515
    73  16 S        2.035    -0.197   149.427    20.574
    74   6 C        3.744    -0.065    21.812     6.662
    75   6 C        2.985    -0.039    28.972     8.829
    76   6 C        2.924    -0.043    29.077     8.843
    77   6 C        2.923     0.057    26.718     8.477
    78   6 C        2.923    -0.048    29.202     8.862
    79   6 C        2.942    -0.043    29.075     8.843
    80   6 C        2.965     0.045    26.993     8.522
    81  16 S        2.034    -0.201   149.610    20.587
    82   6 C        3.745    -0.051    21.560     6.624
    83   6 C        2.985    -0.039    28.969     8.829
    84   6 C        2.922    -0.043    29.072     8.842
    85   6 C        3.180     0.008    27.427     8.550
    86  16 S        2.272    -0.033   142.402    20.084
    87   6 C        2.993    -0.010    28.266     8.721
    88   6 C        3.050     0.057    26.672     8.470
    89   7 N        2.748    -0.036    21.929     6.955
    90   6 C        2.921     0.067    26.501     8.442
    91   6 C        2.923    -0.045    29.113     8.848
    92   6 C        2.942    -0.043    29.069     8.843
    93   6 C        2.965     0.047    26.935     8.513
    94  16 S        2.032    -0.179   148.627    20.519
    95   6 C        3.744    -0.059    21.710     6.647
    96   6 C        2.982    -0.035    28.873     8.814
    97   6 C        2.922    -0.041    29.008     8.832
    98   6 C        2.932     0.057    26.728     8.479
    99   6 C        2.924    -0.042    29.038     8.837
   100   6 C        2.943    -0.043    29.056     8.841
   101   6 C        2.965     0.050    26.871     8.503
   102  16 S        2.036    -0.183   148.831    20.533
   103   6 C        3.744    -0.065    21.826     6.664
   104   6 C        2.986    -0.041    29.003     8.834
   105   6 C        2.921    -0.042    29.051     8.839
   106   6 C        3.182     0.007    27.434     8.549
   107  16 S        2.351    -0.044   142.885    20.119
   108   6 C        3.122     0.139    24.801     8.156
   109   6 C        3.002    -0.062    29.529     8.914
   110   6 C        3.004    -0.045    29.090     8.847
   111   6 C        3.071     0.122    25.250     8.239
   112   8 O        1.728    -0.201    17.343     5.623
   113   6 C        2.895    -0.020    28.509     8.754
   114   6 C        3.010    -0.035    28.848     8.811
   115   6 C        2.867     0.239    23.016     7.864
   116   8 O        0.856    -0.408    21.852     6.267
   117   6 C        3.079    -0.028    28.601     8.768
   118   6 C        2.912     0.098    25.822     8.333
   119  17 Cl       0.992    -0.092   102.034    15.454
   120   6 C        2.960     0.081    26.197     8.395
   121  17 Cl       1.031    -0.090   101.983    15.450
   122   6 C        2.964     0.084    26.119     8.383
   123  17 Cl       1.055    -0.090   101.973    15.449
   124   6 C        2.915     0.092    25.962     8.355
   125  17 Cl       1.016    -0.101   102.299    15.474
   126   6 C        3.055     0.008    27.798     8.647
   127   6 C        3.022     0.046    26.942     8.514
   128   6 C        2.947     0.007    27.867     8.658
   129   6 C        1.958     0.134    27.792     8.513
   130   7 N        0.911    -0.287    27.400     7.571
   131   6 C        1.951     0.133    27.827     8.519
   132   7 N        0.911    -0.276    27.138     7.534
   133   1 H        0.925     0.050     2.323     2.383
   134   1 H        0.926     0.060     2.197     2.318
   135   1 H        0.926     0.048     2.348     2.396
   136   1 H        0.925     0.053     2.286     2.364
   137   1 H        0.925     0.040     2.454     2.450
   138   1 H        0.926     0.043     2.408     2.427
   139   1 H        0.926     0.044     2.393     2.419
   140   1 H        0.925     0.043     2.410     2.428
   141   1 H        0.925     0.043     2.403     2.424
   142   1 H        0.925     0.032     2.552     2.498
   143   1 H        0.925     0.054     2.272     2.357
   144   1 H        0.926     0.055     2.260     2.351
   145   1 H        0.926     0.060     2.198     2.319
   146   1 H        0.925     0.075     2.032     2.229
   147   1 H        0.925     0.053     2.288     2.366
   148   1 H        0.925     0.089     1.885     2.147
   149   1 H        0.926     0.043     2.409     2.427
   150   1 H        0.926     0.039     2.457     2.451
   151   1 H        0.926     0.055     2.253     2.347
   152   1 H        0.926     0.069     2.101     2.267
   153   1 H        0.925     0.072     2.060     2.244
   154   1 H        0.925     0.072     2.069     2.249
   155   1 H        0.925     0.072     2.058     2.244
   156   1 H        0.926     0.061     2.182     2.310
   157   1 H        0.926     0.058     2.226     2.333
   158   1 H        0.926     0.042     2.421     2.433
   159   1 H        0.926     0.054     2.273     2.358
   160   1 H        0.925     0.068     2.106     2.269
   161   1 H        0.925     0.072     2.069     2.249
   162   1 H        0.925     0.081     1.964     2.192
   163   1 H        0.926     0.050     2.322     2.383
   164   1 H        0.926     0.041     2.431     2.438
   165   1 H        0.926     0.042     2.420     2.433
   166   1 H        0.926     0.049     2.337     2.391
   167   1 H        0.925     0.079     1.985     2.203
   168   1 H        0.925     0.067     2.117     2.275
   169   1 H        0.925     0.071     2.079     2.255
   170   1 H        0.926     0.052     2.298     2.371
   171   1 H        0.926     0.047     2.361     2.403
   172   1 H        0.926     0.045     2.381     2.413
   173   1 H        0.926     0.053     2.279     2.361
   174   1 H        0.925     0.072     2.066     2.248
   175   1 H        0.925     0.072     2.067     2.248
   176   1 H        0.925     0.079     1.984     2.203
   177   1 H        0.926     0.049     2.329     2.386
   178   1 H        0.926     0.039     2.461     2.453
   179   1 H        0.926     0.042     2.428     2.437
   180   1 H        0.926     0.042     2.423     2.434
   181   1 H        0.925     0.066     2.132     2.283
   182   1 H        0.925     0.063     2.162     2.299
   183   1 H        0.925     0.069     2.092     2.262
   184   1 H        0.926     0.051     2.304     2.374
   185   1 H        0.926     0.047     2.354     2.399
   186   1 H        0.926     0.051     2.308     2.376
   187   1 H        0.926     0.058     2.227     2.334
   188   1 H        0.925     0.060     2.196     2.317
   189   1 H        0.925     0.068     2.106     2.269
   190   1 H        0.925     0.088     1.903     2.157
   191   1 H        0.926     0.042     2.421     2.433
   192   1 H        0.926     0.058     2.222     2.331
   193   1 H        0.926     0.043     2.411     2.428
   194   1 H        0.926     0.054     2.269     2.355
   195   1 H        0.925     0.080     1.980     2.200
   196   1 H        0.925     0.072     2.062     2.246
   197   1 H        0.925     0.075     2.031     2.229
   198   1 H        0.926     0.055     2.253     2.347
   199   1 H        0.926     0.053     2.279     2.361
   200   1 H        0.926     0.075     2.033     2.230
   201   1 H        0.927     0.091     1.868     2.137
   202   1 H        0.925     0.080     1.977     2.199

 Mol. C6AA /au·bohr⁶  :     789215.628118
 Mol. C8AA /au·bohr⁸  :   23228999.329571
 Mol. α(0) /au        :       1427.735056


Wiberg/Mayer (AO) data.
largest (>0.10) Wiberg bond orders for each atom

 ---------------------------------------------------------------------------
     #   Z sym  total        # sym  WBO       # sym  WBO       # sym  WBO
 ---------------------------------------------------------------------------
     1   6 C    3.946 --     2 C    1.412    24 C    1.364   133 H    0.949
     2   6 C    3.956 --     1 C    1.412    11 C    1.181     3 C    1.067
     3   6 C    3.925 --     4 O    1.662     2 C    1.067     5 C    1.024
     4   8 O    1.973 --     3 C    1.662
     5   6 C    3.973 --     6 C    1.386    10 C    1.309     3 C    1.024
     6   6 C    3.979 --     7 C    1.434     5 C    1.386   134 H    0.963
     7   6 C    3.954 --     6 C    1.434     8 C    1.328    23 C    0.993
     8   6 C    3.964 --     9 C    1.443     7 C    1.328    17 C    0.994
     9   6 C    3.977 --     8 C    1.443    10 C    1.370   135 H    0.960
    10   6 C    3.981 --     9 C    1.370     5 C    1.309    11 C    1.083
    11   6 C    3.967 --    12 C    1.428     2 C    1.181    10 C    1.083
    12   6 C    3.941 --    11 C    1.428    13 C    1.115    15 C    1.110
    13   6 C    3.938 --    14 N    2.728    12 C    1.115
    14   7 N    2.944 --    13 C    2.728
    15   6 C    3.940 --    16 N    2.733    12 C    1.110
    16   7 N    2.949 --    15 C    2.733
    17   6 C    3.984 --     8 C    0.994    23 C    0.975   136 H    0.960
                            18 C    0.951
    18   6 C    3.989 --    19 C    1.004    22 C    0.989   137 H    0.971
                            17 C    0.951
    19   6 C    3.981 --    20 C    1.924    18 C    1.004   138 H    0.970
    20   6 C    3.981 --    19 C    1.924    21 C    1.003   139 H    0.970
    21   6 C    3.987 --    20 C    1.003    22 C    0.989   140 H    0.970
                            23 C    0.950
    22   6 C    3.994 --    21 C    0.989    18 C    0.989   141 H    0.978
                           142 H    0.974
    23   6 C    3.982 --     7 C    0.993    17 C    0.975   143 H    0.960
                            21 C    0.950
    24   6 C    3.924 --     1 C    1.364    25 C    1.276    65 S    1.047
    25   6 C    3.940 --    24 C    1.276    43 C    1.232    26 N    1.191
    26   7 N    3.557 --    25 C    1.191    27 C    1.070    35 C    0.982
    27   6 C    3.961 --    34 C    1.354    28 C    1.331    26 N    1.070
    28   6 C    3.981 --    29 C    1.488    27 C    1.331   144 H    0.963
    29   6 C    3.988 --    28 C    1.488    30 C    1.354   145 H    0.965
    30   6 C    3.959 --    33 C    1.378    29 C    1.354    31 S    1.070
    31  16 S    2.283 --    30 C    1.070    32 C    1.009
    32   6 C    3.967 --    31 S    1.009   147 H    0.979   146 H    0.978
                           148 H    0.973
    33   6 C    3.989 --    34 C    1.455    30 C    1.378   149 H    0.964
    34   6 C    3.985 --    33 C    1.455    27 C    1.354   150 H    0.966
    35   6 C    3.954 --    36 C    1.384    42 C    1.366    26 N    0.982
    36   6 C    3.981 --    37 C    1.447    35 C    1.384   151 H    0.966
                            41 C    0.101
    37   6 C    3.986 --    36 C    1.447    38 C    1.387   152 H    0.962
    38   6 C    3.963 --    37 C    1.387    41 C    1.372    39 S    1.058
    39  16 S    2.256 --    38 C    1.058    40 C    1.004
    40   6 C    3.966 --    39 S    1.004   153 H    0.979   154 H    0.979
                           155 H    0.973
    41   6 C    3.986 --    42 C    1.468    38 C    1.372   156 H    0.965
                            36 C    0.101
    42   6 C    3.984 --    41 C    1.468    35 C    1.366   157 H    0.961
    43   6 C    3.936 --    64 C    1.364    25 C    1.232    44 S    1.110
    44  16 S    2.595 --    43 C    1.110    45 C    1.090
    45   6 C    3.888 --    46 C    1.398    66 C    1.123    44 S    1.090
    46   6 C    3.953 --    45 C    1.398    64 C    1.212    47 N    1.126
    47   7 N    3.502 --    46 C    1.126    56 C    1.040    48 C    1.030
    48   6 C    3.959 --    49 C    1.376    55 C    1.362    47 N    1.030
    49   6 C    3.986 --    50 C    1.445    48 C    1.376   158 H    0.966
                            54 C    0.102
    50   6 C    3.987 --    49 C    1.445    51 C    1.388   159 H    0.963
    51   6 C    3.959 --    50 C    1.388    54 C    1.362    52 S    1.052
    52  16 S    2.260 --    51 C    1.052    53 C    1.008
    53   6 C    3.967 --    52 S    1.008   161 H    0.979   160 H    0.977
                           162 H    0.974
    54   6 C    3.989 --    55 C    1.473    51 C    1.362   163 H    0.967
                            49 C    0.102
    55   6 C    3.987 --    54 C    1.473    48 C    1.362   164 H    0.966
    56   6 C    3.961 --    57 C    1.372    63 C    1.352    47 N    1.040
    57   6 C    3.982 --    58 C    1.436    56 C    1.372   165 H    0.956
    58   6 C    3.988 --    57 C    1.436    59 C    1.396   166 H    0.964
    59   6 C    3.953 --    58 C    1.396    62 C    1.360    60 S    1.049
    60  16 S    2.250 --    59 C    1.049    61 C    1.008
    61   6 C    3.968 --    60 S    1.008   168 H    0.980   169 H    0.980
                           167 H    0.975
    62   6 C    3.988 --    63 C    1.482    59 C    1.360   170 H    0.967
    63   6 C    3.983 --    62 C    1.482    56 C    1.352   171 H    0.966
    64   6 C    3.928 --    43 C    1.364    46 C    1.212    65 S    1.114
    65  16 S    2.512 --    64 C    1.114    24 C    1.047
    66   6 C    3.892 --    67 C    1.423    45 C    1.123   107 S    1.077
    67   6 C    3.949 --    66 C    1.423    85 C    1.208    68 N    1.100
    68   7 N    3.502 --    67 C    1.100    77 C    1.050    69 C    1.048
    69   6 C    3.960 --    70 C    1.368    76 C    1.347    68 N    1.048
    70   6 C    3.982 --    71 C    1.454    69 C    1.368   172 H    0.965
                            75 C    0.101
    71   6 C    3.987 --    70 C    1.454    72 C    1.383   173 H    0.963
    72   6 C    3.951 --    71 C    1.383    75 C    1.368    73 S    1.051
    73  16 S    2.254 --    72 C    1.051    74 C    1.009
    74   6 C    3.968 --    73 S    1.009   175 H    0.979   174 H    0.979
                           176 H    0.975
    75   6 C    3.989 --    76 C    1.472    72 C    1.368   177 H    0.967
                            70 C    0.101
    76   6 C    3.984 --    75 C    1.472    69 C    1.347   178 H    0.961
    77   6 C    3.963 --    78 C    1.370    84 C    1.355    68 N    1.050
    78   6 C    3.985 --    79 C    1.446    77 C    1.370   179 H    0.966
                            83 C    0.100
    79   6 C    3.989 --    78 C    1.446    80 C    1.390   180 H    0.963
    80   6 C    3.956 --    79 C    1.390    83 C    1.358    81 S    1.048
    81  16 S    2.253 --    80 C    1.048    82 C    1.008
    82   6 C    3.968 --    81 S    1.008   183 H    0.979   181 H    0.977
                           182 H    0.970
    83   6 C    3.988 --    84 C    1.473    80 C    1.358   184 H    0.966
                            78 C    0.100
    84   6 C    3.986 --    83 C    1.473    77 C    1.355   185 H    0.965
    85   6 C    3.924 --   106 C    1.381    67 C    1.208    86 S    1.113
    86  16 S    2.535 --    85 C    1.113    87 C    1.088
    87   6 C    3.907 --    88 C    1.362   108 C    1.202    86 S    1.088
    88   6 C    3.941 --    87 C    1.362   106 C    1.225    89 N    1.114
    89   7 N    3.518 --    88 C    1.114    90 C    1.071    98 C    1.041
    90   6 C    3.960 --    91 C    1.354    97 C    1.341    89 N    1.071
    91   6 C    3.980 --    92 C    1.460    90 C    1.354   186 H    0.965
    92   6 C    3.984 --    91 C    1.460    93 C    1.380   187 H    0.963
    93   6 C    3.953 --    92 C    1.380    96 C    1.356    94 S    1.049
    94  16 S    2.294 --    93 C    1.049    95 C    1.008
    95   6 C    3.967 --    94 S    1.008   188 H    0.979   189 H    0.977
                           190 H    0.976
    96   6 C    3.988 --    97 C    1.485    93 C    1.356   191 H    0.967
    97   6 C    3.983 --    96 C    1.485    90 C    1.341   192 H    0.964
    98   6 C    3.957 --    99 C    1.366   105 C    1.350    89 N    1.041
    99   6 C    3.979 --   100 C    1.454    98 C    1.366   193 H    0.964
   100   6 C    3.986 --    99 C    1.454   101 C    1.382   194 H    0.962
   101   6 C    3.948 --   100 C    1.382   104 C    1.360   102 S    1.060
   102  16 S    2.265 --   101 C    1.060   103 C    1.008
   103   6 C    3.966 --   102 S    1.008   196 H    0.979   197 H    0.978
                           195 H    0.975
   104   6 C    3.987 --   105 C    1.482   101 C    1.360   198 H    0.966
   105   6 C    3.976 --   104 C    1.482    98 C    1.350   199 H    0.964
   106   6 C    3.933 --    85 C    1.381    88 C    1.225   107 S    1.110
   107  16 S    2.538 --   106 C    1.110    66 C    1.077
   108   6 C    3.891 --   109 C    1.353    87 C    1.202   112 O    1.126
   109   6 C    3.956 --   110 C    1.458   108 C    1.353   200 H    0.968
   110   6 C    3.956 --   109 C    1.458   111 C    1.352   201 H    0.960
   111   6 C    3.885 --   110 C    1.352   113 C    1.281   112 O    1.053
   112   8 O    2.409 --   108 C    1.126   111 C    1.053
   113   6 C    3.952 --   114 C    1.475   111 C    1.281   202 H    0.941
   114   6 C    3.952 --   113 C    1.475   127 C    1.142   115 C    1.064
   115   6 C    3.921 --   116 O    1.716   114 C    1.064   117 C    1.011
   116   8 O    2.016 --   115 C    1.716
   117   6 C    3.971 --   118 C    1.385   126 C    1.274   115 C    1.011
   118   6 C    3.924 --   117 C    1.385   120 C    1.312   119 Cl   1.028
   119  17 Cl   1.191 --   118 C    1.028
   120   6 C    3.920 --   122 C    1.370   118 C    1.312   121 Cl   1.023
   121  17 Cl   1.180 --   120 C    1.023
   122   6 C    3.926 --   120 C    1.370   124 C    1.318   123 Cl   1.026
   123  17 Cl   1.182 --   122 C    1.026
   124   6 C    3.912 --   126 C    1.366   122 C    1.318   125 Cl   1.018
   125  17 Cl   1.193 --   124 C    1.018
   126   6 C    3.978 --   124 C    1.366   117 C    1.274   127 C    1.084
   127   6 C    3.952 --   128 C    1.452   114 C    1.142   126 C    1.084
   128   6 C    3.935 --   127 C    1.452   129 C    1.103   131 C    1.102
   129   6 C    3.939 --   130 N    2.743   128 C    1.103
   130   7 N    2.948 --   129 C    2.743
   131   6 C    3.941 --   132 N    2.740   128 C    1.102
   132   7 N    2.950 --   131 C    2.740
   133   1 H    0.994 --     1 C    0.949
   134   1 H    0.996 --     6 C    0.963
   135   1 H    0.997 --     9 C    0.960
   136   1 H    0.996 --    17 C    0.960
   137   1 H    0.998 --    18 C    0.971
   138   1 H    0.998 --    19 C    0.970
   139   1 H    0.998 --    20 C    0.970
   140   1 H    0.998 --    21 C    0.970
   141   1 H    0.998 --    22 C    0.978
   142   1 H    0.999 --    22 C    0.974
   143   1 H    0.995 --    23 C    0.960
   144   1 H    0.997 --    28 C    0.963
   145   1 H    0.996 --    29 C    0.965
   146   1 H    0.993 --    32 C    0.978
   147   1 H    0.996 --    32 C    0.979
   148   1 H    0.992 --    32 C    0.973
   149   1 H    0.998 --    33 C    0.964
   150   1 H    0.998 --    34 C    0.966
   151   1 H    0.997 --    36 C    0.966
   152   1 H    0.995 --    37 C    0.962
   153   1 H    0.994 --    40 C    0.979
   154   1 H    0.995 --    40 C    0.979
   155   1 H    0.994 --    40 C    0.973
   156   1 H    0.995 --    41 C    0.965
   157   1 H    0.996 --    42 C    0.961
   158   1 H    0.998 --    49 C    0.966
   159   1 H    0.997 --    50 C    0.963
   160   1 H    0.995 --    53 C    0.977
   161   1 H    0.995 --    53 C    0.979
   162   1 H    0.993 --    53 C    0.974
   163   1 H    0.997 --    54 C    0.967
   164   1 H    0.998 --    55 C    0.966
   165   1 H    0.998 --    57 C    0.956
   166   1 H    0.997 --    58 C    0.964
   167   1 H    0.993 --    61 C    0.975
   168   1 H    0.995 --    61 C    0.980
   169   1 H    0.994 --    61 C    0.980
   170   1 H    0.997 --    62 C    0.967
   171   1 H    0.997 --    63 C    0.966
   172   1 H    0.998 --    70 C    0.965
   173   1 H    0.997 --    71 C    0.963
   174   1 H    0.995 --    74 C    0.979
   175   1 H    0.994 --    74 C    0.979
   176   1 H    0.993 --    74 C    0.975
   177   1 H    0.997 --    75 C    0.967
   178   1 H    0.998 --    76 C    0.961
   179   1 H    0.998 --    78 C    0.966
   180   1 H    0.998 --    79 C    0.963
   181   1 H    0.995 --    82 C    0.977
   182   1 H    0.995 --    82 C    0.970
   183   1 H    0.995 --    82 C    0.979
   184   1 H    0.997 --    83 C    0.966
   185   1 H    0.997 --    84 C    0.965
   186   1 H    0.997 --    91 C    0.965
   187   1 H    0.996 --    92 C    0.963
   188   1 H    0.996 --    95 C    0.979
   189   1 H    0.995 --    95 C    0.977
   190   1 H    0.991 --    95 C    0.976
   191   1 H    0.998 --    96 C    0.967
   192   1 H    0.996 --    97 C    0.964
   193   1 H    0.998 --    99 C    0.964
   194   1 H    0.996 --   100 C    0.962
   195   1 H    0.993 --   103 C    0.975
   196   1 H    0.994 --   103 C    0.979
   197   1 H    0.993 --   103 C    0.978
   198   1 H    0.996 --   104 C    0.966
   199   1 H    0.997 --   105 C    0.964
   200   1 H    0.994 --   109 C    0.968
   201   1 H    0.991 --   110 C    0.960
   202   1 H    0.993 --   113 C    0.941
 ---------------------------------------------------------------------------

Topologies differ in bond orders
Writing corrected topology to xtbtopo.mol

molecular dipole:
                 x           y           z       tot (Debye)
 q only:       -1.728      -1.924       0.255
   full:       -1.641      -2.727       0.608       8.236
molecular quadrupole (traceless):
                xx          xy          yy          xz          yz          zz
 q only:     -233.281     -21.502     133.676     106.450     -18.020      99.605
  q+dip:     -213.988     -31.480     133.585      95.666      -1.752      80.403
   full:     -215.581     -27.289     132.403      96.255      -1.436      83.178


           -------------------------------------------------
          | TOTAL ENERGY             -353.220206253764 Eh   |
          | GRADIENT NORM               0.037498437204 Eh/α |
          | HOMO-LUMO GAP               0.382814885105 eV   |
           -------------------------------------------------

------------------------------------------------------------------------
 * finished run on 2022/02/07 at 23:06:56.597     
------------------------------------------------------------------------
 total:
 * wall-time:     0 d,  0 h,  0 min,  1.110 sec
 *  cpu-time:     0 d,  0 h,  0 min,  8.750 sec
 * ratio c/w:     7.885 speedup
 SCF:
 * wall-time:     0 d,  0 h,  0 min,  0.984 sec
 *  cpu-time:     0 d,  0 h,  0 min,  7.863 sec
 * ratio c/w:     7.993 speedup

