      -----------------------------------------------------------      
     |                   =====================                   |     
     |                           x T B                           |     
     |                   =====================                   |     
     |                         S. Grimme                         |     
     |          Mulliken Center for Theoretical Chemistry        |     
     |                    University of Bonn                     |     
      -----------------------------------------------------------      

   * xtb version 6.4.1 (unknown) compiled by 'oda6@login1.crc.pitt.edu' on 2021-06-25

   xtb is free software: you can redistribute it and/or modify it under
   the terms of the GNU Lesser General Public License as published by
   the Free Software Foundation, either version 3 of the License, or
   (at your option) any later version.
   
   xtb is distributed in the hope that it will be useful,
   but WITHOUT ANY WARRANTY; without even the implied warranty of
   MERCHANTABILITY or FITNESS FOR A PARTICULAR PURPOSE.  See the
   GNU Lesser General Public License for more details.
   
   Cite this work as:
   * C. Bannwarth, E. Caldeweyher, S. Ehlert, A. Hansen, P. Pracht,
     J. Seibert, S. Spicher, S. Grimme, WIREs Comput. Mol. Sci., 2020, 11,
     e01493. DOI: 10.1002/wcms.1493
   
   for GFN2-xTB:
   * C. Bannwarth, S. Ehlert and S. Grimme., J. Chem. Theory Comput., 2019,
     15, 1652-1671. DOI: 10.1021/acs.jctc.8b01176
   for GFN1-xTB:
   * S. Grimme, C. Bannwarth, P. Shushkov, J. Chem. Theory Comput., 2017,
     13, 1989-2009. DOI: 10.1021/acs.jctc.7b00118
   for GFN0-xTB:
   * P. Pracht, E. Caldeweyher, S. Ehlert, S. Grimme, ChemRxiv, 2019, preprint.
     DOI: 10.26434/chemrxiv.8326202.v1
   for GFN-FF:
   * S. Spicher and S. Grimme, Angew. Chem. Int. Ed., 2020, 59, 15665-15673.
     DOI: 10.1002/anie.202004239
   
   for DFT-D4:
   * E. Caldeweyher, C. Bannwarth and S. Grimme, J. Chem. Phys., 2017,
     147, 034112. DOI: 10.1063/1.4993215
   * E. Caldeweyher, S. Ehlert, A. Hansen, H. Neugebauer, S. Spicher,
     C. Bannwarth and S. Grimme, J. Chem. Phys., 2019, 150, 154122.
     DOI: 10.1063/1.5090222
   * E. Caldeweyher, J.-M. Mewes, S. Ehlert and S. Grimme, Phys. Chem. Chem. Phys.
     2020, 22, 8499-8512. DOI: 10.1039/D0CP00502A
   
   for sTDA-xTB:
   * S. Grimme and C. Bannwarth, J. Chem. Phys., 2016, 145, 054103.
     DOI: 10.1063/1.4959605
   
   in the mass-spec context:
   * V. Asgeirsson, C. Bauer and S. Grimme, Chem. Sci., 2017, 8, 4879.
     DOI: 10.1039/c7sc00601b
   * J. Koopman and S. Grimme, ACS Omega 2019, 4, 12, 15120-15133.
     DOI: 10.1021/acsomega.9b02011
   
   for metadynamics refer to:
   * S. Grimme, J. Chem. Theory Comput., 2019, 155, 2847-2862
     DOI: 10.1021/acs.jctc.9b00143
   
   for SPH calculations refer to:
   * S. Spicher and S. Grimme, J. Chem. Theory Comput., 2021, 17, 1701-1714
     DOI: 10.1021/acs.jctc.0c01306
   
   with help from (in alphabetical order)
   P. Atkinson, C. Bannwarth, F. Bohle, G. Brandenburg, E. Caldeweyher
   M. Checinski, S. Dohm, S. Ehlert, S. Ehrlich, I. Gerasimov, J. Koopman
   C. Lavigne, S. Lehtola, F. März, M. Müller, F. Musil, H. Neugebauer
   J. Pisarek, C. Plett, P. Pracht, J. Seibert, P. Shushkov, S. Spicher
   M. Stahn, M. Steiner, T. Strunk, J. Stückrath, T. Rose, and J. Unsleber
   
 * started run on 2022/02/08 at 09:41:17.609     

           -------------------------------------------------
          |                Calculation Setup                |
           -------------------------------------------------

          program call               : /ihome/ghutchison/oda6/xtb/xtb-641/bin/xtb ../../GFN2_output/39_127_130_127_28.mol --sp --alpb water
          hostname                   : smp-n26
          coordinate file            : ../../GFN2_output/39_127_130_127_28.mol
          omp threads                :                     8
          number of atoms            :                   177
          number of electrons        :                   560
          charge                     :                     0
          spin                       :                   0.0
          first test random number   :      0.24802013909524

   ID    Z sym.   atoms
    1    6 C      1-3, 5-13, 15, 17-25, 27, 29, 30, 32-35, 37-41, 43-46,
                  48-54, 56-59, 61, 62, 64-67, 69-75, 77-80, 82, 83, 85, 87,
                  88, 90-93, 95-100, 102-104, 106-111, 113
    2    8 O      4, 101
    3    7 N      14, 16, 31, 36, 42, 63, 89, 94, 112, 114
    4    9 F      26, 28, 84, 86, 105
    5   16 S      47, 55, 60, 68, 76, 81
    6    1 H      115-177

           -------------------------------------------------
          |                 G F N 2 - x T B                 |
           -------------------------------------------------

        Reference                      10.1021/acs.jctc.8b01176
      * Hamiltonian:
        H0-scaling (s, p, d)           1.850000    2.230000    2.230000
        zeta-weighting                 0.500000
      * Dispersion:
        s8                             2.700000
        a1                             0.520000
        a2                             5.000000
        s9                             5.000000
      * Repulsion:
        kExp                           1.500000    1.000000
        rExp                           1.000000
      * Coulomb:
        alpha                          2.000000
        third order                    shell-resolved
        anisotropic                    true
        a3                             3.000000
        a5                             4.000000
        cn-shift                       1.200000
        cn-exp                         4.000000
        max-rad                        5.000000

      * Solvation model:               ALPB
        Solvent                        water
        Parameter file                 internal GFN2-xTB/ALPB
        Dielectric constant                8.0200E+01
        Reference state                gsolv [1 M gas/solution]
        Free energy shift                  1.0808E-03 Eh       6.7819E-01 kcal/mol
        Temperature                        2.9815E+02 K
        Density                            1.0000E+00 kg/L
        Solvent mass                       1.8000E+01 g/mol
        Interaction kernel             P16
        Born radius scaling (c1)           1.4744E+00
        Born radii integrator          GBOBC
        Born offset                        0.0000E+00 a0       0.0000E+00 AA
        H-bond correction              true
        Ion screening                  false
        Surface tension                    1.0000E-05 Eh       1.5569E+01 dyn/cm
        Grid points                               230 per atom

          ...................................................
          :                      SETUP                      :
          :.................................................:
          :  # basis functions                 555          :
          :  # atomic orbitals                 549          :
          :  # shells                          297          :
          :  # electrons                       560          :
          :  max. iterations                   250          :
          :  Hamiltonian                  GFN2-xTB          :
          :  restarted?                      false          :
          :  GBSA solvation                   true          :
          :  PC potential                    false          :
          :  electronic temp.          300.0000000     K    :
          :  accuracy                    1.0000000          :
          :  -> integral cutoff          0.2500000E+02      :
          :  -> integral neglect         0.1000000E-07      :
          :  -> SCF convergence          0.1000000E-05 Eh   :
          :  -> wf. convergence          0.1000000E-03 e    :
          :  Broyden damping             0.4000000          :
          ...................................................

 iter      E             dE          RMSdq      gap      omega  full diag
   1   -311.8526459 -0.311853E+03  0.463E+00    0.40       0.0  T
   2   -312.0687105 -0.216065E+00  0.274E+00    0.68       1.0  T
   3   -311.8639434  0.204767E+00  0.139E+00    0.12       1.0  T
   4   -312.1171239 -0.253181E+00  0.575E-01    0.55       1.0  T
   5   -312.1603457 -0.432218E-01  0.197E-01    0.38       1.0  T
   6   -312.1627702 -0.242451E-02  0.847E-02    0.33       1.0  T
   7   -312.1629483 -0.178179E-03  0.445E-02    0.33       1.0  T
   8   -312.1630315 -0.831776E-04  0.227E-02    0.33       1.0  T
   9   -312.1630694 -0.379087E-04  0.121E-02    0.32       1.0  T
  10   -312.1630761 -0.666599E-05  0.609E-03    0.33       1.2  T
  11   -312.1630778 -0.175247E-05  0.326E-03    0.33       2.3  T
  12   -312.1630784 -0.580950E-06  0.186E-03    0.33       4.0  T
  13   -312.1630786 -0.168973E-06  0.914E-04    0.33       8.2  T
  14   -312.1630787 -0.593894E-07  0.388E-04    0.33      19.4  T

   *** convergence criteria satisfied after 14 iterations ***

         #    Occupation            Energy/Eh            Energy/eV
      -------------------------------------------------------------
         1        2.0000           -0.8588203             -23.3697
       ...           ...                  ...                  ...
       274        2.0000           -0.3790177             -10.3136
       275        2.0000           -0.3778056             -10.2806
       276        2.0000           -0.3728179             -10.1449
       277        2.0000           -0.3695785             -10.0567
       278        2.0000           -0.3682564             -10.0208
       279        1.9997           -0.3564018              -9.6982
       280        1.9968           -0.3542387              -9.6393 (HOMO)
       281        0.0036           -0.3421148              -9.3094 (LUMO)
       282        0.0000           -0.3348581              -9.1120
       283                         -0.3302804              -8.9874
       284                         -0.3231975              -8.7947
       285                         -0.3078634              -8.3774
       ...                                ...                  ...
       549                          1.1521361              31.3512
      -------------------------------------------------------------
                  HL-Gap            0.0121238 Eh            0.3299 eV
             Fermi-level           -0.3481304 Eh           -9.4731 eV

 SCC (total)                   0 d,  0 h,  0 min,  0.615 sec
 SCC setup                      ...        0 min,  0.005 sec (  0.836%)
 Dispersion                     ...        0 min,  0.011 sec (  1.795%)
 classical contributions        ...        0 min,  0.000 sec (  0.054%)
 integral evaluation            ...        0 min,  0.036 sec (  5.886%)
 iterations                     ...        0 min,  0.456 sec ( 74.043%)
 molecular gradient             ...        0 min,  0.104 sec ( 16.924%)
 printout                       ...        0 min,  0.003 sec (  0.448%)

         :::::::::::::::::::::::::::::::::::::::::::::::::::::
         ::                     SUMMARY                     ::
         :::::::::::::::::::::::::::::::::::::::::::::::::::::
         :: total energy            -307.431841995193 Eh    ::
         :: total w/o Gsasa/hb      -307.414076108347 Eh    ::
         :: gradient norm              0.040408428338 Eh/a0 ::
         :: HOMO-LUMO gap              0.329906477993 eV    ::
         ::.................................................::
         :: SCC energy              -312.163078654661 Eh    ::
         :: -> isotropic ES            0.237850996673 Eh    ::
         :: -> anisotropic ES          0.002820713073 Eh    ::
         :: -> anisotropic XC          0.180826539637 Eh    ::
         :: -> dispersion             -0.312526881760 Eh    ::
         :: -> Gsolv                  -0.066221441926 Eh    ::
         ::    -> Gelec               -0.048455555080 Eh    ::
         ::    -> Gsasa               -0.009517186289 Eh    ::
         ::    -> Ghb                 -0.009329460255 Eh    ::
         ::    -> Gshift               0.001080759698 Eh    ::
         :: repulsion energy           4.718163880504 Eh    ::
         :: add. restraining           0.000000000000 Eh    ::
         :: total charge              -0.000000000000 e     ::
         :::::::::::::::::::::::::::::::::::::::::::::::::::::

           -------------------------------------------------
          |                Property Printout                |
           -------------------------------------------------

    * Orbital Energies and Occupations

         #    Occupation            Energy/Eh            Energy/eV
      -------------------------------------------------------------
         1        2.0000           -0.8588203             -23.3697
       ...           ...                  ...                  ...
       268        2.0000           -0.4112376             -11.1903
       269        2.0000           -0.4083205             -11.1110
       270        2.0000           -0.4058905             -11.0448
       271        2.0000           -0.3917245             -10.6594
       272        2.0000           -0.3910711             -10.6416
       273        2.0000           -0.3872563             -10.5378
       274        2.0000           -0.3790177             -10.3136
       275        2.0000           -0.3778056             -10.2806
       276        2.0000           -0.3728179             -10.1449
       277        2.0000           -0.3695785             -10.0567
       278        2.0000           -0.3682564             -10.0208
       279        1.9997           -0.3564018              -9.6982
       280        1.9968           -0.3542387              -9.6393 (HOMO)
       281        0.0036           -0.3421148              -9.3094 (LUMO)
       282        0.0000           -0.3348581              -9.1120
       283                         -0.3302804              -8.9874
       284                         -0.3231975              -8.7947
       285                         -0.3078634              -8.3774
       286                         -0.3036019              -8.2614
       287                         -0.2815991              -7.6627
       288                         -0.2726194              -7.4184
       289                         -0.2662677              -7.2455
       290                         -0.2657576              -7.2316
       291                         -0.2557124              -6.9583
       ...                                ...                  ...
       549                          1.1521361              31.3512
      -------------------------------------------------------------
                  HL-Gap            0.0121238 Eh            0.3299 eV
             Fermi-level           -0.3481304 Eh           -9.4731 eV

     #   Z          covCN         q      C6AA      α(0)
     1   6 C        2.902     0.004    27.939     8.667
     2   6 C        3.008    -0.020    28.501     8.757
     3   6 C        2.866     0.241    22.986     7.859
     4   8 O        0.856    -0.431    22.317     6.334
     5   6 C        3.058    -0.020    28.454     8.748
     6   6 C        2.904    -0.022    28.555     8.762
     7   6 C        3.260     0.017    26.484     8.316
     8   6 C        3.256     0.018    26.518     8.327
     9   6 C        2.904    -0.031    28.771     8.795
    10   6 C        3.044     0.008    27.793     8.647
    11   6 C        3.019     0.040    27.071     8.535
    12   6 C        2.947     0.006    27.897     8.663
    13   6 C        1.939     0.132    27.860     8.524
    14   7 N        0.911    -0.284    27.327     7.560
    15   6 C        1.939     0.136    27.762     8.509
    16   7 N        0.911    -0.277    27.151     7.536
    17   6 C        4.163    -0.028    20.994     6.507
    18   6 C        4.011    -0.016    20.789     6.477
    19   6 C        2.987    -0.042    29.047     8.841
    20   6 C        2.987    -0.043    29.063     8.843
    21   6 C        4.011    -0.017    20.792     6.478
    22   6 C        3.926    -0.066    21.705     6.621
    23   6 C        4.161    -0.028    20.989     6.507
    24   6 C        2.973    -0.014    28.353     8.734
    25   6 C        2.780     0.148    24.767     8.151
    26   9 F        0.787    -0.230    11.550     4.015
    27   6 C        2.778     0.134    25.066     8.200
    28   9 F        0.787    -0.228    11.528     4.011
    29   6 C        3.023    -0.014    28.325     8.730
    30   6 C        2.974     0.064    26.551     8.452
    31   7 N        2.168    -0.193    25.702     7.523
    32   6 C        2.938     0.093    25.936     8.352
    33   6 C        3.809    -0.072    21.874     6.658
    34   6 C        3.754    -0.111    22.687     6.792
    35   6 C        2.940     0.099    25.802     8.331
    36   7 N        1.849    -0.231    26.904     7.688
    37   6 C        2.965     0.083    26.140     8.386
    38   6 C        3.808    -0.069    21.813     6.648
    39   6 C        3.753    -0.108    22.616     6.781
    40   6 C        2.999     0.007    27.854     8.657
    41   6 C        3.050     0.057    26.678     8.471
    42   7 N        2.748    -0.037    21.951     6.958
    43   6 C        2.934     0.057    26.726     8.478
    44   6 C        2.922    -0.043    29.069     8.842
    45   6 C        2.944    -0.045    29.116     8.850
    46   6 C        2.966     0.050    26.882     8.504
    47  16 S        2.038    -0.179   148.624    20.519
    48   6 C        3.744    -0.069    21.887     6.674
    49   6 C        2.987    -0.041    28.998     8.833
    50   6 C        2.922    -0.039    28.970     8.827
    51   6 C        2.923     0.058    26.698     8.473
    52   6 C        2.923    -0.042    29.037     8.837
    53   6 C        2.986    -0.043    29.047     8.841
    54   6 C        2.965     0.045    26.988     8.521
    55  16 S        2.035    -0.181   148.740    20.527
    56   6 C        3.744    -0.068    21.875     6.672
    57   6 C        2.942    -0.048    29.187     8.861
    58   6 C        2.923    -0.052    29.285     8.874
    59   6 C        3.161     0.004    27.608     8.589
    60  16 S        2.258    -0.048   143.062    20.131
    61   6 C        2.999     0.010    27.778     8.646
    62   6 C        3.052     0.060    26.596     8.458
    63   7 N        2.749    -0.030    21.827     6.939
    64   6 C        2.934     0.058    26.695     8.473
    65   6 C        2.921    -0.041    29.025     8.835
    66   6 C        2.982    -0.041    29.003     8.834
    67   6 C        2.966     0.049    26.896     8.507
    68  16 S        2.034    -0.162   147.903    20.469
    69   6 C        3.744    -0.052    21.571     6.625
    70   6 C        2.944    -0.041    29.021     8.835
    71   6 C        2.930    -0.040    28.990     8.830
    72   6 C        2.922     0.057    26.711     8.475
    73   6 C        2.923    -0.045    29.123     8.850
    74   6 C        2.981    -0.043    29.064     8.843
    75   6 C        2.966     0.042    27.054     8.532
    76  16 S        2.032    -0.174   148.399    20.503
    77   6 C        3.745    -0.057    21.673     6.641
    78   6 C        2.944    -0.048    29.181     8.860
    79   6 C        2.924    -0.052    29.302     8.877
    80   6 C        3.178    -0.005    27.732     8.599
    81  16 S        2.588    -0.039   142.678    20.104
    82   6 C        3.000    -0.009    28.225     8.715
    83   6 C        2.780     0.144    24.845     8.164
    84   9 F        0.788    -0.221    11.450     3.997
    85   6 C        2.783     0.150    24.728     8.145
    86   9 F        0.787    -0.221    11.450     3.997
    87   6 C        2.967    -0.018    28.450     8.749
    88   6 C        2.962     0.071    26.403     8.428
    89   7 N        1.853    -0.239    27.107     7.717
    90   6 C        2.939     0.094    25.909     8.348
    91   6 C        3.809    -0.066    21.762     6.640
    92   6 C        3.753    -0.110    22.656     6.787
    93   6 C        2.942     0.096    25.876     8.343
    94   7 N        1.852    -0.231    26.907     7.688
    95   6 C        2.963     0.069    26.457     8.437
    96   6 C        3.809    -0.070    21.825     6.650
    97   6 C        3.755    -0.106    22.575     6.775
    98   6 C        2.906     0.002    27.976     8.673
    99   6 C        3.008    -0.020    28.492     8.756
   100   6 C        2.870     0.240    23.006     7.863
   101   8 O        0.856    -0.404    21.757     6.254
   102   6 C        3.047    -0.010    28.226     8.714
   103   6 C        2.910    -0.035    28.869     8.810
   104   6 C        2.789     0.188    23.976     8.021
   105   9 F        0.787    -0.234    11.588     4.021
   106   6 C        2.918    -0.040    29.005     8.832
   107   6 C        2.916    -0.021    28.520     8.757
   108   6 C        3.034     0.013    27.693     8.632
   109   6 C        3.015     0.053    26.784     8.489
   110   6 C        2.947     0.008    27.837     8.654
   111   6 C        1.937     0.132    27.853     8.523
   112   7 N        0.911    -0.295    27.594     7.597
   113   6 C        1.936     0.133    27.832     8.520
   114   7 N        0.911    -0.269    26.950     7.508
   115   1 H        0.925     0.070     2.087     2.259
   116   1 H        0.926     0.065     2.142     2.289
   117   1 H        0.926     0.059     2.209     2.324
   118   1 H        0.925     0.065     2.137     2.286
   119   1 H        0.925     0.045     2.389     2.417
   120   1 H        0.926     0.028     2.619     2.531
   121   1 H        0.926     0.030     2.592     2.518
   122   1 H        0.925     0.048     2.351     2.398
   123   1 H        0.925     0.052     2.291     2.367
   124   1 H        0.925     0.049     2.334     2.389
   125   1 H        0.925     0.068     2.109     2.271
   126   1 H        0.924     0.072     2.068     2.249
   127   1 H        0.925     0.074     2.045     2.236
   128   1 H        0.925     0.045     2.388     2.416
   129   1 H        0.925     0.047     2.361     2.403
   130   1 H        0.925     0.067     2.113     2.273
   131   1 H        0.924     0.080     1.977     2.199
   132   1 H        0.924     0.081     1.966     2.193
   133   1 H        0.925     0.033     2.546     2.495
   134   1 H        0.925     0.059     2.207     2.323
   135   1 H        0.925     0.044     2.400     2.423
   136   1 H        0.926     0.054     2.267     2.355
   137   1 H        0.926     0.062     2.176     2.307
   138   1 H        0.925     0.085     1.927     2.171
   139   1 H        0.925     0.075     2.036     2.232
   140   1 H        0.925     0.078     2.004     2.214
   141   1 H        0.926     0.052     2.292     2.367
   142   1 H        0.926     0.044     2.402     2.423
   143   1 H        0.926     0.048     2.346     2.395
   144   1 H        0.926     0.051     2.301     2.372
   145   1 H        0.925     0.078     2.003     2.213
   146   1 H        0.925     0.086     1.915     2.164
   147   1 H        0.925     0.072     2.063     2.246
   148   1 H        0.926     0.058     2.223     2.332
   149   1 H        0.926     0.046     2.373     2.409
   150   1 H        0.926     0.060     2.201     2.320
   151   1 H        0.926     0.070     2.081     2.256
   152   1 H        0.925     0.054     2.271     2.357
   153   1 H        0.925     0.072     2.063     2.246
   154   1 H        0.925     0.068     2.112     2.273
   155   1 H        0.926     0.050     2.315     2.379
   156   1 H        0.926     0.049     2.336     2.390
   157   1 H        0.926     0.057     2.231     2.336
   158   1 H        0.926     0.063     2.169     2.303
   159   1 H        0.925     0.052     2.299     2.371
   160   1 H        0.925     0.072     2.065     2.247
   161   1 H        0.925     0.078     1.998     2.210
   162   1 H        0.926     0.045     2.387     2.416
   163   1 H        0.926     0.038     2.469     2.457
   164   1 H        0.924     0.057     2.236     2.338
   165   1 H        0.924     0.068     2.107     2.270
   166   1 H        0.925     0.047     2.352     2.398
   167   1 H        0.925     0.067     2.122     2.278
   168   1 H        0.925     0.049     2.331     2.388
   169   1 H        0.925     0.072     2.059     2.244
   170   1 H        0.924     0.071     2.077     2.254
   171   1 H        0.925     0.068     2.112     2.272
   172   1 H        0.925     0.039     2.466     2.456
   173   1 H        0.925     0.037     2.483     2.464
   174   1 H        0.925     0.085     1.923     2.169
   175   1 H        0.926     0.097     1.812     2.105
   176   1 H        0.926     0.107     1.724     2.053
   177   1 H        0.926     0.084     1.940     2.178

 Mol. C6AA /au·bohr⁶  :     502720.776903
 Mol. C8AA /au·bohr⁸  :   13617737.046387
 Mol. α(0) /au        :       1124.029237


Wiberg/Mayer (AO) data.
largest (>0.10) Wiberg bond orders for each atom

 ---------------------------------------------------------------------------
     #   Z sym  total        # sym  WBO       # sym  WBO       # sym  WBO
 ---------------------------------------------------------------------------
     1   6 C    3.928 --     2 C    1.595    24 C    1.160   115 H    0.944
     2   6 C    3.953 --     1 C    1.595    11 C    1.130     3 C    1.017
     3   6 C    3.910 --     4 O    1.727     5 C    1.035     2 C    1.017
     4   8 O    2.011 --     3 C    1.727
     5   6 C    3.971 --     6 C    1.377    10 C    1.297     3 C    1.035
     6   6 C    3.980 --     7 C    1.442     5 C    1.377   116 H    0.961
     7   6 C    3.950 --     6 C    1.442     8 C    1.318    23 C    0.998
     8   6 C    3.963 --     9 C    1.449     7 C    1.318    17 C    0.999
     9   6 C    3.977 --     8 C    1.449    10 C    1.363   117 H    0.958
    10   6 C    3.979 --     9 C    1.363     5 C    1.297    11 C    1.097
    11   6 C    3.964 --    12 C    1.473     2 C    1.130    10 C    1.097
    12   6 C    3.954 --    11 C    1.473    15 C    1.103    13 C    1.100
    13   6 C    3.940 --    14 N    2.749    12 C    1.100
    14   7 N    2.954 --    13 C    2.749
    15   6 C    3.941 --    16 N    2.751    12 C    1.103
    16   7 N    2.958 --    15 C    2.751
    17   6 C    3.983 --     8 C    0.999    23 C    0.977   118 H    0.956
                            18 C    0.945
    18   6 C    3.988 --    19 C    1.010    22 C    0.985   119 H    0.971
                            17 C    0.945
    19   6 C    3.987 --    20 C    1.924    18 C    1.010   120 H    0.972
    20   6 C    3.987 --    19 C    1.924    21 C    1.010   121 H    0.971
    21   6 C    3.987 --    20 C    1.010    22 C    0.985   122 H    0.971
                            23 C    0.945
    22   6 C    3.991 --    21 C    0.985    18 C    0.985   123 H    0.976
                           124 H    0.975
    23   6 C    3.981 --     7 C    0.998    17 C    0.977   125 H    0.956
                            21 C    0.945
    24   6 C    3.927 --    25 C    1.357    37 C    1.182     1 C    1.160
    25   6 C    3.854 --    24 C    1.357    27 C    1.336    26 F    0.954
    26   9 F    1.080 --    25 C    0.954
    27   6 C    3.849 --    25 C    1.336    29 C    1.328    28 F    0.952
    28   9 F    1.078 --    27 C    0.952
    29   6 C    3.960 --    27 C    1.328    40 C    1.217    30 C    1.172
    30   6 C    3.976 --    31 N    1.312    37 C    1.251    29 C    1.172
    31   7 N    3.220 --    32 C    1.483    30 C    1.312    81 S    0.174
    32   6 C    3.939 --    31 N    1.483    35 C    1.218    33 C    1.017
    33   6 C    3.985 --    32 C    1.017    34 C    0.987   126 H    0.963
                           127 H    0.962
    34   6 C    3.986 --   129 H    0.988    33 C    0.987   128 H    0.986
                           130 H    0.981
    35   6 C    3.952 --    36 N    1.503    32 C    1.218    38 C    1.021
    36   7 N    3.072 --    35 C    1.503    37 C    1.308
    37   6 C    3.976 --    36 N    1.308    30 C    1.251    24 C    1.182
    38   6 C    3.989 --    35 C    1.021    39 C    1.020   131 H    0.946
                           132 H    0.944
    39   6 C    3.994 --    38 C    1.020   135 H    0.986   134 H    0.985
                           133 H    0.984
    40   6 C    3.900 --    41 C    1.335    29 C    1.217    81 S    1.084
    41   6 C    3.926 --    40 C    1.335    59 C    1.221    42 N    1.148
    42   7 N    3.516 --    41 C    1.148    51 C    1.053    43 C    1.032
    43   6 C    3.956 --    44 C    1.371    50 C    1.351    42 N    1.032
    44   6 C    3.974 --    45 C    1.457    43 C    1.371   136 H    0.965
    45   6 C    3.985 --    44 C    1.457    46 C    1.380   137 H    0.962
    46   6 C    3.950 --    45 C    1.380    49 C    1.364    47 S    1.063
    47  16 S    2.268 --    46 C    1.063    48 C    1.008
    48   6 C    3.964 --    47 S    1.008   139 H    0.979   140 H    0.978
                           138 H    0.974
    49   6 C    3.987 --    50 C    1.476    46 C    1.364   141 H    0.967
    50   6 C    3.981 --    49 C    1.476    43 C    1.351   142 H    0.966
    51   6 C    3.957 --    58 C    1.369    52 C    1.345    42 N    1.053
    52   6 C    3.978 --    53 C    1.485    51 C    1.345   143 H    0.965
    53   6 C    3.988 --    52 C    1.485    54 C    1.360   144 H    0.967
    54   6 C    3.952 --    57 C    1.382    53 C    1.360    55 S    1.059
    55  16 S    2.262 --    54 C    1.059    56 C    1.008
    56   6 C    3.964 --    55 S    1.008   147 H    0.979   145 H    0.978
                           146 H    0.973
    57   6 C    3.985 --    58 C    1.454    54 C    1.382   148 H    0.963
    58   6 C    3.981 --    57 C    1.454    51 C    1.369   149 H    0.965
    59   6 C    3.926 --    80 C    1.374    41 C    1.221    60 S    1.111
    60  16 S    2.547 --    59 C    1.111    61 C    1.094
    61   6 C    3.889 --    62 C    1.369    82 C    1.160    60 S    1.094
    62   6 C    3.941 --    61 C    1.369    80 C    1.219    63 N    1.133
    63   7 N    3.516 --    62 C    1.133    72 C    1.063    64 C    1.033
    64   6 C    3.952 --    71 C    1.363    65 C    1.354    63 N    1.033
    65   6 C    3.976 --    66 C    1.479    64 C    1.354   150 H    0.964
    66   6 C    3.984 --    65 C    1.479    67 C    1.360   151 H    0.964
    67   6 C    3.948 --    70 C    1.389    66 C    1.360    68 S    1.054
    68  16 S    2.252 --    67 C    1.054    69 C    1.008
    69   6 C    3.971 --    68 S    1.008   154 H    0.980   152 H    0.979
                           153 H    0.975
    70   6 C    3.985 --    71 C    1.448    67 C    1.389   155 H    0.964
    71   6 C    3.979 --    70 C    1.448    64 C    1.363   156 H    0.964
    72   6 C    3.963 --    79 C    1.360    73 C    1.348    63 N    1.063
    73   6 C    3.977 --    74 C    1.478    72 C    1.348   157 H    0.963
    74   6 C    3.988 --    73 C    1.478    75 C    1.367   158 H    0.963
    75   6 C    3.955 --    78 C    1.378    74 C    1.367    76 S    1.052
    76  16 S    2.254 --    75 C    1.052    77 C    1.007
    77   6 C    3.970 --    76 S    1.007   159 H    0.980   160 H    0.980
                           161 H    0.976
    78   6 C    3.986 --    79 C    1.461    75 C    1.378   162 H    0.965
    79   6 C    3.983 --    78 C    1.461    72 C    1.360   163 H    0.966
    80   6 C    3.935 --    59 C    1.374    62 C    1.219    81 S    1.097
    81  16 S    2.716 --    80 C    1.097    40 C    1.084    31 N    0.174
    82   6 C    3.942 --    83 C    1.355    95 C    1.185    61 C    1.160
    83   6 C    3.858 --    82 C    1.355    85 C    1.332    84 F    0.956
    84   9 F    1.091 --    83 C    0.956
    85   6 C    3.858 --    87 C    1.346    83 C    1.332    86 F    0.961
    86   9 F    1.089 --    85 C    0.961
    87   6 C    3.941 --    85 C    1.346    88 C    1.182    98 C    1.180
    88   6 C    3.979 --    89 N    1.312    95 C    1.235    87 C    1.182
    89   7 N    3.099 --    90 C    1.501    88 C    1.312
    90   6 C    3.953 --    89 N    1.501    93 C    1.214    91 C    1.015
    91   6 C    3.989 --    90 C    1.015    92 C    0.989   164 H    0.969
                           165 H    0.962
    92   6 C    3.986 --    91 C    0.989   166 H    0.986   168 H    0.985
                           167 H    0.982
    93   6 C    3.952 --    94 N    1.507    90 C    1.214    96 C    1.015
    94   7 N    3.076 --    93 C    1.507    95 C    1.313
    95   6 C    3.976 --    94 N    1.313    88 C    1.235    82 C    1.185
    96   6 C    3.987 --    93 C    1.015    97 C    0.989   170 H    0.966
                           169 H    0.964
    97   6 C    3.987 --    96 C    0.989   172 H    0.988   173 H    0.986
                           171 H    0.981
    98   6 C    3.931 --    99 C    1.578    87 C    1.180   174 H    0.947
    99   6 C    3.936 --    98 C    1.578   109 C    1.131   100 C    1.015
   100   6 C    3.913 --   101 O    1.761   102 C    1.017    99 C    1.015
   101   8 O    2.032 --   100 C    1.761
   102   6 C    3.974 --   103 C    1.423   108 C    1.291   100 C    1.017
   103   6 C    3.978 --   102 C    1.423   104 C    1.380   175 H    0.959
   104   6 C    3.861 --   106 C    1.389   103 C    1.380   105 F    0.956
   105   9 F    1.081 --   104 C    0.956
   106   6 C    3.971 --   107 C    1.435   104 C    1.389   176 H    0.959
   107   6 C    3.971 --   106 C    1.435   108 C    1.398   177 H    0.958
   108   6 C    3.982 --   107 C    1.398   102 C    1.291   109 C    1.082
   109   6 C    3.961 --   110 C    1.464    99 C    1.131   108 C    1.082
   110   6 C    3.962 --   109 C    1.464   113 C    1.105   111 C    1.105
   111   6 C    3.940 --   112 N    2.746   110 C    1.105
   112   7 N    2.963 --   111 C    2.746
   113   6 C    3.944 --   114 N    2.750   110 C    1.105
   114   7 N    2.963 --   113 C    2.750
   115   1 H    0.991 --     1 C    0.944
   116   1 H    0.995 --     6 C    0.961
   117   1 H    0.996 --     9 C    0.958
   118   1 H    0.994 --    17 C    0.956
   119   1 H    0.998 --    18 C    0.971
   120   1 H    0.999 --    19 C    0.972
   121   1 H    0.999 --    20 C    0.971
   122   1 H    0.997 --    21 C    0.971
   123   1 H    0.997 --    22 C    0.976
   124   1 H    0.995 --    22 C    0.975
   125   1 H    0.993 --    23 C    0.956
   126   1 H    0.994 --    33 C    0.963
   127   1 H    0.993 --    33 C    0.962
   128   1 H    0.998 --    34 C    0.986
   129   1 H    0.998 --    34 C    0.988
   130   1 H    0.994 --    34 C    0.981
   131   1 H    0.990 --    38 C    0.946
   132   1 H    0.989 --    38 C    0.944
   133   1 H    0.999 --    39 C    0.984
   134   1 H    0.996 --    39 C    0.985
   135   1 H    0.998 --    39 C    0.986
   136   1 H    0.997 --    44 C    0.965
   137   1 H    0.996 --    45 C    0.962
   138   1 H    0.992 --    48 C    0.974
   139   1 H    0.994 --    48 C    0.979
   140   1 H    0.993 --    48 C    0.978
   141   1 H    0.997 --    49 C    0.967
   142   1 H    0.998 --    50 C    0.966
   143   1 H    0.997 --    52 C    0.965
   144   1 H    0.997 --    53 C    0.967
   145   1 H    0.993 --    56 C    0.978
   146   1 H    0.992 --    56 C    0.973
   147   1 H    0.994 --    56 C    0.979
   148   1 H    0.996 --    57 C    0.963
   149   1 H    0.998 --    58 C    0.965
   150   1 H    0.996 --    65 C    0.964
   151   1 H    0.994 --    66 C    0.964
   152   1 H    0.997 --    69 C    0.979
   153   1 H    0.994 --    69 C    0.975
   154   1 H    0.994 --    69 C    0.980
   155   1 H    0.997 --    70 C    0.964
   156   1 H    0.997 --    71 C    0.964
   157   1 H    0.996 --    73 C    0.963
   158   1 H    0.996 --    74 C    0.963
   159   1 H    0.997 --    77 C    0.980
   160   1 H    0.994 --    77 C    0.980
   161   1 H    0.993 --    77 C    0.976
   162   1 H    0.997 --    78 C    0.965
   163   1 H    0.998 --    79 C    0.966
   164   1 H    0.996 --    91 C    0.969
   165   1 H    0.994 --    91 C    0.962
   166   1 H    0.998 --    92 C    0.986
   167   1 H    0.994 --    92 C    0.982
   168   1 H    0.997 --    92 C    0.985
   169   1 H    0.993 --    96 C    0.964
   170   1 H    0.994 --    96 C    0.966
   171   1 H    0.994 --    97 C    0.981
   172   1 H    0.998 --    97 C    0.988
   173   1 H    0.998 --    97 C    0.986
   174   1 H    0.990 --    98 C    0.947
   175   1 H    0.990 --   103 C    0.959
   176   1 H    0.988 --   106 C    0.959
   177   1 H    0.992 --   107 C    0.958
 ---------------------------------------------------------------------------

Topologies differ in bond orders
Writing corrected topology to xtbtopo.mol

molecular dipole:
                 x           y           z       tot (Debye)
 q only:       -0.803      -5.108       5.206
   full:       -0.441      -3.865       4.738      15.583
molecular quadrupole (traceless):
                xx          xy          yy          xz          yz          zz
 q only:       92.332      15.802     -28.274     -37.985    -107.605     -64.058
  q+dip:      102.166      30.433     -26.026     -33.596     -99.703     -76.140
   full:      104.105      22.738     -26.007     -28.199    -106.433     -78.098


           -------------------------------------------------
          | TOTAL ENERGY             -307.431841995193 Eh   |
          | GRADIENT NORM               0.040408428338 Eh/α |
          | HOMO-LUMO GAP               0.329906477993 eV   |
           -------------------------------------------------

------------------------------------------------------------------------
 * finished run on 2022/02/08 at 09:41:18.325     
------------------------------------------------------------------------
 total:
 * wall-time:     0 d,  0 h,  0 min,  0.716 sec
 *  cpu-time:     0 d,  0 h,  0 min,  5.630 sec
 * ratio c/w:     7.859 speedup
 SCF:
 * wall-time:     0 d,  0 h,  0 min,  0.619 sec
 *  cpu-time:     0 d,  0 h,  0 min,  4.948 sec
 * ratio c/w:     7.994 speedup

