      -----------------------------------------------------------      
     |                   =====================                   |     
     |                           x T B                           |     
     |                   =====================                   |     
     |                         S. Grimme                         |     
     |          Mulliken Center for Theoretical Chemistry        |     
     |                    University of Bonn                     |     
      -----------------------------------------------------------      

   * xtb version 6.4.1 (unknown) compiled by 'oda6@login1.crc.pitt.edu' on 2021-06-25

   xtb is free software: you can redistribute it and/or modify it under
   the terms of the GNU Lesser General Public License as published by
   the Free Software Foundation, either version 3 of the License, or
   (at your option) any later version.
   
   xtb is distributed in the hope that it will be useful,
   but WITHOUT ANY WARRANTY; without even the implied warranty of
   MERCHANTABILITY or FITNESS FOR A PARTICULAR PURPOSE.  See the
   GNU Lesser General Public License for more details.
   
   Cite this work as:
   * C. Bannwarth, E. Caldeweyher, S. Ehlert, A. Hansen, P. Pracht,
     J. Seibert, S. Spicher, S. Grimme, WIREs Comput. Mol. Sci., 2020, 11,
     e01493. DOI: 10.1002/wcms.1493
   
   for GFN2-xTB:
   * C. Bannwarth, S. Ehlert and S. Grimme., J. Chem. Theory Comput., 2019,
     15, 1652-1671. DOI: 10.1021/acs.jctc.8b01176
   for GFN1-xTB:
   * S. Grimme, C. Bannwarth, P. Shushkov, J. Chem. Theory Comput., 2017,
     13, 1989-2009. DOI: 10.1021/acs.jctc.7b00118
   for GFN0-xTB:
   * P. Pracht, E. Caldeweyher, S. Ehlert, S. Grimme, ChemRxiv, 2019, preprint.
     DOI: 10.26434/chemrxiv.8326202.v1
   for GFN-FF:
   * S. Spicher and S. Grimme, Angew. Chem. Int. Ed., 2020, 59, 15665-15673.
     DOI: 10.1002/anie.202004239
   
   for DFT-D4:
   * E. Caldeweyher, C. Bannwarth and S. Grimme, J. Chem. Phys., 2017,
     147, 034112. DOI: 10.1063/1.4993215
   * E. Caldeweyher, S. Ehlert, A. Hansen, H. Neugebauer, S. Spicher,
     C. Bannwarth and S. Grimme, J. Chem. Phys., 2019, 150, 154122.
     DOI: 10.1063/1.5090222
   * E. Caldeweyher, J.-M. Mewes, S. Ehlert and S. Grimme, Phys. Chem. Chem. Phys.
     2020, 22, 8499-8512. DOI: 10.1039/D0CP00502A
   
   for sTDA-xTB:
   * S. Grimme and C. Bannwarth, J. Chem. Phys., 2016, 145, 054103.
     DOI: 10.1063/1.4959605
   
   in the mass-spec context:
   * V. Asgeirsson, C. Bauer and S. Grimme, Chem. Sci., 2017, 8, 4879.
     DOI: 10.1039/c7sc00601b
   * J. Koopman and S. Grimme, ACS Omega 2019, 4, 12, 15120-15133.
     DOI: 10.1021/acsomega.9b02011
   
   for metadynamics refer to:
   * S. Grimme, J. Chem. Theory Comput., 2019, 155, 2847-2862
     DOI: 10.1021/acs.jctc.9b00143
   
   for SPH calculations refer to:
   * S. Spicher and S. Grimme, J. Chem. Theory Comput., 2021, 17, 1701-1714
     DOI: 10.1021/acs.jctc.0c01306
   
   with help from (in alphabetical order)
   P. Atkinson, C. Bannwarth, F. Bohle, G. Brandenburg, E. Caldeweyher
   M. Checinski, S. Dohm, S. Ehlert, S. Ehrlich, I. Gerasimov, J. Koopman
   C. Lavigne, S. Lehtola, F. März, M. Müller, F. Musil, H. Neugebauer
   J. Pisarek, C. Plett, P. Pracht, J. Seibert, P. Shushkov, S. Spicher
   M. Stahn, M. Steiner, T. Strunk, J. Stückrath, T. Rose, and J. Unsleber
   
 * started run on 2022/02/06 at 12:07:17.140     

           -------------------------------------------------
          |                Calculation Setup                |
           -------------------------------------------------

          program call               : /ihome/ghutchison/oda6/xtb/xtb-641/bin/xtb ../../GFN2_output/39_107_130_19_39.mol --sp --alpb water
          hostname                   : smp-n57
          coordinate file            : ../../GFN2_output/39_107_130_19_39.mol
          omp threads                :                     8
          number of atoms            :                   191
          number of electrons        :                   612
          charge                     :                     0
          spin                       :                   0.0
          first test random number   :      0.93590778650351

   ID    Z sym.   atoms
    1    6 C      1-3, 5-13, 15, 17-30, 32-34, 36-39, 41-45, 47, 49, 50, 52,
                  53, 55-58, 60-66, 68-71, 73, 74, 76-79, 81-87, 89-92,
                  94-96, 98-100, 104-106, 108-116, 118, 120-126
    2    8 O      4, 48, 51, 107
    3    7 N      14, 16, 54, 75, 101, 103, 117, 119
    4    9 F      31, 46, 97
    5   16 S      35, 40, 59, 67, 72, 80, 88, 93, 102
    6    1 H      127-191

           -------------------------------------------------
          |                 G F N 2 - x T B                 |
           -------------------------------------------------

        Reference                      10.1021/acs.jctc.8b01176
      * Hamiltonian:
        H0-scaling (s, p, d)           1.850000    2.230000    2.230000
        zeta-weighting                 0.500000
      * Dispersion:
        s8                             2.700000
        a1                             0.520000
        a2                             5.000000
        s9                             5.000000
      * Repulsion:
        kExp                           1.500000    1.000000
        rExp                           1.000000
      * Coulomb:
        alpha                          2.000000
        third order                    shell-resolved
        anisotropic                    true
        a3                             3.000000
        a5                             4.000000
        cn-shift                       1.200000
        cn-exp                         4.000000
        max-rad                        5.000000

      * Solvation model:               ALPB
        Solvent                        water
        Parameter file                 internal GFN2-xTB/ALPB
        Dielectric constant                8.0200E+01
        Reference state                gsolv [1 M gas/solution]
        Free energy shift                  1.0808E-03 Eh       6.7819E-01 kcal/mol
        Temperature                        2.9815E+02 K
        Density                            1.0000E+00 kg/L
        Solvent mass                       1.8000E+01 g/mol
        Interaction kernel             P16
        Born radius scaling (c1)           1.4744E+00
        Born radii integrator          GBOBC
        Born offset                        0.0000E+00 a0       0.0000E+00 AA
        H-bond correction              true
        Ion screening                  false
        Surface tension                    1.0000E-05 Eh       1.5569E+01 dyn/cm
        Grid points                               230 per atom

          ...................................................
          :                      SETUP                      :
          :.................................................:
          :  # basis functions                 623          :
          :  # atomic orbitals                 614          :
          :  # shells                          326          :
          :  # electrons                       612          :
          :  max. iterations                   250          :
          :  Hamiltonian                  GFN2-xTB          :
          :  restarted?                      false          :
          :  GBSA solvation                   true          :
          :  PC potential                    false          :
          :  electronic temp.          300.0000000     K    :
          :  accuracy                    1.0000000          :
          :  -> integral cutoff          0.2500000E+02      :
          :  -> integral neglect         0.1000000E-07      :
          :  -> SCF convergence          0.1000000E-05 Eh   :
          :  -> wf. convergence          0.1000000E-03 e    :
          :  Broyden damping             0.4000000          :
          ...................................................

 iter      E             dE          RMSdq      gap      omega  full diag
   1   -339.3674642 -0.339367E+03  0.466E+00    0.48       0.0  T
   2   -339.5849479 -0.217484E+00  0.276E+00    0.80       1.0  T
   3   -339.4083226  0.176625E+00  0.140E+00    0.37       1.0  T
   4   -339.6527113 -0.244389E+00  0.505E-01    0.52       1.0  T
   5   -339.6812049 -0.284936E-01  0.188E-01    0.50       1.0  T
   6   -339.6829857 -0.178085E-02  0.779E-02    0.52       1.0  T
   7   -339.6833645 -0.378757E-03  0.351E-02    0.52       1.0  T
   8   -339.6834376 -0.731472E-04  0.196E-02    0.52       1.0  T
   9   -339.6834588 -0.212003E-04  0.975E-03    0.52       1.0  T
  10   -339.6834618 -0.293365E-05  0.482E-03    0.52       1.5  T
  11   -339.6834633 -0.154792E-05  0.245E-03    0.52       3.0  T
  12   -339.6834635 -0.129392E-06  0.144E-03    0.52       5.0  T
  13   -339.6834636 -0.126652E-06  0.534E-04    0.52      13.6  T
  14   -339.6834636 -0.119367E-07  0.317E-04    0.52      22.9  T

   *** convergence criteria satisfied after 14 iterations ***

         #    Occupation            Energy/Eh            Energy/eV
      -------------------------------------------------------------
         1        2.0000           -0.8478468             -23.0711
       ...           ...                  ...                  ...
       300        2.0000           -0.3853436             -10.4857
       301        2.0000           -0.3770018             -10.2587
       302        2.0000           -0.3685218             -10.0280
       303        2.0000           -0.3678514             -10.0097
       304        2.0000           -0.3670764              -9.9887
       305        2.0000           -0.3577434              -9.7347
       306        1.9999           -0.3552725              -9.6675 (HOMO)
       307        0.0001           -0.3361491              -9.1471 (LUMO)
       308        0.0000           -0.3332839              -9.0691
       309                         -0.3237441              -8.8095
       310                         -0.3205802              -8.7234
       311                         -0.3065273              -8.3410
       ...                                ...                  ...
       614                          1.1510550              31.3218
      -------------------------------------------------------------
                  HL-Gap            0.0191234 Eh            0.5204 eV
             Fermi-level           -0.3456995 Eh           -9.4070 eV

 SCC (total)                   0 d,  0 h,  0 min,  0.736 sec
 SCC setup                      ...        0 min,  0.008 sec (  1.043%)
 Dispersion                     ...        0 min,  0.011 sec (  1.473%)
 classical contributions        ...        0 min,  0.000 sec (  0.049%)
 integral evaluation            ...        0 min,  0.038 sec (  5.140%)
 iterations                     ...        0 min,  0.559 sec ( 75.913%)
 molecular gradient             ...        0 min,  0.117 sec ( 15.933%)
 printout                       ...        0 min,  0.003 sec (  0.435%)

         :::::::::::::::::::::::::::::::::::::::::::::::::::::
         ::                     SUMMARY                     ::
         :::::::::::::::::::::::::::::::::::::::::::::::::::::
         :: total energy            -334.537615531274 Eh    ::
         :: total w/o Gsasa/hb      -334.519634469500 Eh    ::
         :: gradient norm              0.040870949892 Eh/a0 ::
         :: HOMO-LUMO gap              0.520373580413 eV    ::
         ::.................................................::
         :: SCC energy              -339.683463595809 Eh    ::
         :: -> isotropic ES            0.223345815519 Eh    ::
         :: -> anisotropic ES         -0.001962276898 Eh    ::
         :: -> anisotropic XC          0.184045665603 Eh    ::
         :: -> dispersion             -0.346451121212 Eh    ::
         :: -> Gsolv                  -0.061881670929 Eh    ::
         ::    -> Gelec               -0.043900609156 Eh    ::
         ::    -> Gsasa               -0.010839430469 Eh    ::
         ::    -> Ghb                 -0.008222391003 Eh    ::
         ::    -> Gshift               0.001080759698 Eh    ::
         :: repulsion energy           5.138365760444 Eh    ::
         :: add. restraining           0.000000000000 Eh    ::
         :: total charge               0.000000000101 e     ::
         :::::::::::::::::::::::::::::::::::::::::::::::::::::

           -------------------------------------------------
          |                Property Printout                |
           -------------------------------------------------

    * Orbital Energies and Occupations

         #    Occupation            Energy/Eh            Energy/eV
      -------------------------------------------------------------
         1        2.0000           -0.8478468             -23.0711
       ...           ...                  ...                  ...
       294        2.0000           -0.4033853             -10.9767
       295        2.0000           -0.4030457             -10.9674
       296        2.0000           -0.3964954             -10.7892
       297        2.0000           -0.3921526             -10.6710
       298        2.0000           -0.3899260             -10.6104
       299        2.0000           -0.3886092             -10.5746
       300        2.0000           -0.3853436             -10.4857
       301        2.0000           -0.3770018             -10.2587
       302        2.0000           -0.3685218             -10.0280
       303        2.0000           -0.3678514             -10.0097
       304        2.0000           -0.3670764              -9.9887
       305        2.0000           -0.3577434              -9.7347
       306        1.9999           -0.3552725              -9.6675 (HOMO)
       307        0.0001           -0.3361491              -9.1471 (LUMO)
       308        0.0000           -0.3332839              -9.0691
       309                         -0.3237441              -8.8095
       310                         -0.3205802              -8.7234
       311                         -0.3065273              -8.3410
       312                         -0.2970885              -8.0842
       313                         -0.2844090              -7.7392
       314                         -0.2613718              -7.1123
       315                         -0.2554108              -6.9501
       316                         -0.2537562              -6.9051
       317                         -0.2525199              -6.8714
       ...                                ...                  ...
       614                          1.1510550              31.3218
      -------------------------------------------------------------
                  HL-Gap            0.0191234 Eh            0.5204 eV
             Fermi-level           -0.3456995 Eh           -9.4070 eV

     #   Z          covCN         q      C6AA      α(0)
     1   6 C        2.895    -0.023    28.587     8.766
     2   6 C        3.002    -0.027    28.664     8.782
     3   6 C        2.870     0.234    23.117     7.882
     4   8 O        0.856    -0.426    22.203     6.317
     5   6 C        3.057    -0.022    28.500     8.755
     6   6 C        2.904    -0.022    28.545     8.760
     7   6 C        3.261     0.016    26.494     8.316
     8   6 C        3.256     0.016    26.551     8.332
     9   6 C        2.904    -0.033    28.818     8.802
    10   6 C        3.047     0.006    27.850     8.655
    11   6 C        3.017     0.039    27.116     8.542
    12   6 C        2.947     0.004    27.940     8.669
    13   6 C        1.946     0.132    27.856     8.523
    14   7 N        0.911    -0.278    27.169     7.539
    15   6 C        1.947     0.136    27.766     8.509
    16   7 N        0.911    -0.280    27.216     7.545
    17   6 C        4.163    -0.028    20.981     6.506
    18   6 C        4.011    -0.016    20.790     6.477
    19   6 C        2.987    -0.043    29.049     8.841
    20   6 C        2.987    -0.043    29.051     8.841
    21   6 C        4.011    -0.016    20.784     6.476
    22   6 C        3.926    -0.066    21.698     6.620
    23   6 C        4.162    -0.027    20.973     6.504
    24   6 C        3.081     0.133    25.004     8.198
    25   6 C        2.990    -0.060    29.487     8.908
    26   6 C        3.083    -0.016    28.320     8.724
    27   6 C        2.980    -0.012    28.303     8.727
    28   6 C        2.998     0.020    27.540     8.608
    29   6 C        3.095    -0.071    29.639     8.923
    30   6 C        3.015     0.148    24.778     8.165
    31   9 F        0.786    -0.253    11.797     4.057
    32   6 C        2.976     0.006    27.872     8.660
    33   6 C        3.821    -0.058    21.593     6.613
    34   6 C        3.754    -0.113    22.715     6.796
    35  16 S        2.381     0.001   141.035    19.988
    36   6 C        3.101     0.116    25.334     8.248
    37   6 C        3.088    -0.013    28.240     8.711
    38   6 C        2.979    -0.019    28.476     8.753
    39   6 C        2.998     0.019    27.566     8.612
    40  16 S        2.379    -0.008   141.404    20.014
    41   6 C        2.975     0.003    27.960     8.674
    42   6 C        3.821    -0.054    21.531     6.603
    43   6 C        3.753    -0.115    22.759     6.803
    44   6 C        3.014     0.146    24.815     8.171
    45   6 C        3.095    -0.072    29.668     8.927
    46   9 F        0.785    -0.264    11.922     4.079
    47   6 C        3.113     0.120    25.217     8.226
    48   8 O        1.721    -0.198    17.305     5.617
    49   6 C        2.983    -0.078    29.944     8.976
    50   6 C        3.142     0.129    24.959     8.175
    51   8 O        1.723    -0.210    17.481     5.645
    52   6 C        3.001    -0.015    28.364     8.736
    53   6 C        3.031     0.053    26.788     8.490
    54   7 N        2.746    -0.051    22.235     7.003
    55   6 C        2.925     0.056    26.743     8.481
    56   6 C        2.922    -0.047    29.165     8.856
    57   6 C        2.946    -0.043    29.065     8.842
    58   6 C        2.965     0.048    26.915     8.510
    59  16 S        2.031    -0.192   149.220    20.560
    60   6 C        3.744    -0.050    21.548     6.622
    61   6 C        2.978    -0.037    28.924     8.822
    62   6 C        2.923    -0.044    29.093     8.845
    63   6 C        2.937     0.057    26.722     8.478
    64   6 C        2.922    -0.039    28.977     8.828
    65   6 C        2.985    -0.038    28.932     8.823
    66   6 C        2.966     0.050    26.879     8.504
    67  16 S        2.036    -0.186   148.955    20.541
    68   6 C        3.744    -0.057    21.676     6.641
    69   6 C        2.943    -0.044    29.101     8.848
    70   6 C        2.932    -0.042    29.054     8.840
    71   6 C        3.190     0.010    27.299     8.522
    72  16 S        2.378    -0.081   144.436    20.227
    73   6 C        2.993     0.004    27.933     8.670
    74   6 C        3.054     0.056    26.697     8.474
    75   7 N        2.748    -0.027    21.767     6.929
    76   6 C        2.923     0.070    26.424     8.430
    77   6 C        2.923    -0.039    28.977     8.828
    78   6 C        2.946    -0.041    29.019     8.835
    79   6 C        2.966     0.045    26.996     8.522
    80  16 S        2.030    -0.150   147.388    20.433
    81   6 C        3.744    -0.064    21.797     6.660
    82   6 C        2.975    -0.044    29.099     8.848
    83   6 C        2.922    -0.043    29.073     8.842
    84   6 C        2.942     0.055    26.763     8.485
    85   6 C        2.924    -0.041    29.014     8.833
    86   6 C        2.943    -0.044    29.083     8.845
    87   6 C        2.966     0.051    26.845     8.499
    88  16 S        2.038    -0.165   148.036    20.478
    89   6 C        3.744    -0.070    21.921     6.679
    90   6 C        2.987    -0.038    28.934     8.824
    91   6 C        2.921    -0.039    28.965     8.826
    92   6 C        3.190     0.002    27.494     8.553
    93  16 S        2.298    -0.035   142.515    20.092
    94   6 C        3.039     0.002    27.938     8.669
    95   6 C        2.962    -0.071    29.775     8.950
    96   6 C        2.793     0.155    24.631     8.130
    97   9 F        0.788    -0.250    11.768     4.052
    98   6 C        2.965    -0.033    28.829     8.807
    99   6 C        3.355     0.072    23.675     7.654
   100   6 C        3.342     0.066    24.050     7.750
   101   7 N        1.854    -0.286    28.264     7.880
   102  16 S        2.666     0.368   126.952    18.964
   103   7 N        1.852    -0.310    28.876     7.964
   104   6 C        2.900    -0.005    28.156     8.700
   105   6 C        3.016    -0.034    28.825     8.807
   106   6 C        2.866     0.235    23.099     7.878
   107   8 O        0.856    -0.425    22.186     6.315
   108   6 C        3.062    -0.021    28.477     8.751
   109   6 C        2.904    -0.025    28.615     8.771
   110   6 C        3.256     0.016    26.545     8.331
   111   6 C        3.260     0.019    26.441     8.308
   112   6 C        2.903    -0.029    28.721     8.787
   113   6 C        3.052     0.009    27.761     8.641
   114   6 C        3.025     0.048    26.894     8.506
   115   6 C        2.947    -0.004    28.131     8.699
   116   6 C        1.936     0.127    27.983     8.543
   117   7 N        0.911    -0.300    27.722     7.615
   118   6 C        1.934     0.131    27.876     8.526
   119   7 N        0.911    -0.275    27.097     7.529
   120   6 C        4.160    -0.025    20.926     6.497
   121   6 C        4.012    -0.015    20.765     6.473
   122   6 C        2.995    -0.043    29.059     8.843
   123   6 C        2.995    -0.044    29.084     8.847
   124   6 C        4.012    -0.016    20.786     6.477
   125   6 C        3.915    -0.061    21.616     6.608
   126   6 C        4.161    -0.025    20.930     6.498
   127   1 H        0.925     0.084     1.940     2.178
   128   1 H        0.926     0.061     2.184     2.311
   129   1 H        0.926     0.059     2.216     2.328
   130   1 H        0.925     0.063     2.169     2.303
   131   1 H        0.925     0.046     2.374     2.410
   132   1 H        0.926     0.030     2.583     2.513
   133   1 H        0.926     0.030     2.587     2.515
   134   1 H        0.925     0.045     2.384     2.414
   135   1 H        0.925     0.050     2.323     2.383
   136   1 H        0.925     0.051     2.307     2.375
   137   1 H        0.925     0.062     2.170     2.304
   138   1 H        0.927     0.087     1.905     2.158
   139   1 H        0.926     0.070     2.090     2.260
   140   1 H        0.924     0.065     2.141     2.288
   141   1 H        0.924     0.061     2.187     2.313
   142   1 H        0.925     0.048     2.345     2.395
   143   1 H        0.925     0.052     2.301     2.372
   144   1 H        0.925     0.057     2.237     2.339
   145   1 H        0.924     0.057     2.236     2.338
   146   1 H        0.924     0.064     2.150     2.293
   147   1 H        0.925     0.055     2.258     2.350
   148   1 H        0.925     0.043     2.415     2.430
   149   1 H        0.925     0.057     2.233     2.337
   150   1 H        0.926     0.073     2.048     2.238
   151   1 H        0.927     0.070     2.087     2.259
   152   1 H        0.926     0.040     2.450     2.448
   153   1 H        0.926     0.047     2.363     2.404
   154   1 H        0.925     0.069     2.096     2.264
   155   1 H        0.925     0.055     2.255     2.349
   156   1 H        0.925     0.066     2.133     2.284
   157   1 H        0.926     0.056     2.252     2.347
   158   1 H        0.926     0.061     2.191     2.315
   159   1 H        0.926     0.050     2.320     2.382
   160   1 H        0.926     0.058     2.220     2.330
   161   1 H        0.925     0.073     2.051     2.240
   162   1 H        0.925     0.058     2.224     2.332
   163   1 H        0.925     0.078     1.998     2.211
   164   1 H        0.926     0.059     2.213     2.326
   165   1 H        0.926     0.062     2.171     2.304
   166   1 H        0.926     0.035     2.517     2.481
   167   1 H        0.926     0.061     2.182     2.310
   168   1 H        0.925     0.085     1.928     2.171
   169   1 H        0.925     0.071     2.080     2.255
   170   1 H        0.925     0.059     2.205     2.322
   171   1 H        0.926     0.072     2.061     2.245
   172   1 H        0.926     0.069     2.099     2.266
   173   1 H        0.926     0.052     2.291     2.367
   174   1 H        0.926     0.064     2.154     2.295
   175   1 H        0.925     0.076     2.020     2.223
   176   1 H        0.925     0.086     1.923     2.168
   177   1 H        0.925     0.075     2.032     2.229
   178   1 H        0.926     0.061     2.188     2.313
   179   1 H        0.926     0.054     2.271     2.357
   180   1 H        0.926     0.075     2.030     2.228
   181   1 H        0.925     0.076     2.020     2.223
   182   1 H        0.926     0.068     2.113     2.273
   183   1 H        0.926     0.059     2.208     2.324
   184   1 H        0.925     0.058     2.221     2.331
   185   1 H        0.925     0.045     2.387     2.416
   186   1 H        0.926     0.047     2.358     2.401
   187   1 H        0.926     0.046     2.371     2.408
   188   1 H        0.925     0.044     2.396     2.421
   189   1 H        0.925     0.047     2.358     2.401
   190   1 H        0.925     0.031     2.573     2.509
   191   1 H        0.925     0.058     2.224     2.332

 Mol. C6AA /au·bohr⁶  :     635493.312624
 Mol. C8AA /au·bohr⁸  :   17825258.964655
 Mol. α(0) /au        :       1270.146495


Wiberg/Mayer (AO) data.
largest (>0.10) Wiberg bond orders for each atom

 ---------------------------------------------------------------------------
     #   Z sym  total        # sym  WBO       # sym  WBO       # sym  WBO
 ---------------------------------------------------------------------------
     1   6 C    3.937 --     2 C    1.565    24 C    1.210   127 H    0.943
     2   6 C    3.947 --     1 C    1.565    11 C    1.127     3 C    1.026
     3   6 C    3.913 --     4 O    1.722     5 C    1.038     2 C    1.026
     4   8 O    2.009 --     3 C    1.722
     5   6 C    3.970 --     6 C    1.379    10 C    1.298     3 C    1.038
     6   6 C    3.981 --     7 C    1.441     5 C    1.379   128 H    0.963
     7   6 C    3.950 --     6 C    1.441     8 C    1.319    23 C    0.998
     8   6 C    3.962 --     9 C    1.451     7 C    1.319    17 C    0.999
     9   6 C    3.977 --     8 C    1.451    10 C    1.362   129 H    0.958
    10   6 C    3.975 --     9 C    1.362     5 C    1.298    11 C    1.097
    11   6 C    3.966 --    12 C    1.474     2 C    1.127    10 C    1.097
    12   6 C    3.946 --    11 C    1.474    13 C    1.101    15 C    1.100
    13   6 C    3.941 --    14 N    2.744    12 C    1.101
    14   7 N    2.957 --    13 C    2.744
    15   6 C    3.940 --    16 N    2.750    12 C    1.100
    16   7 N    2.958 --    15 C    2.750
    17   6 C    3.983 --     8 C    0.999    23 C    0.977   130 H    0.957
                            18 C    0.945
    18   6 C    3.988 --    19 C    1.010    22 C    0.985   131 H    0.971
                            17 C    0.945
    19   6 C    3.987 --    20 C    1.924    18 C    1.010   132 H    0.971
    20   6 C    3.987 --    19 C    1.924    21 C    1.010   133 H    0.971
    21   6 C    3.987 --    20 C    1.010    22 C    0.985   134 H    0.971
                            23 C    0.945
    22   6 C    3.991 --    21 C    0.985    18 C    0.985   136 H    0.977
                           135 H    0.975
    23   6 C    3.982 --     7 C    0.998    17 C    0.977   137 H    0.956
                            21 C    0.945
    24   6 C    3.893 --    25 C    1.444     1 C    1.210    48 O    1.069
    25   6 C    3.942 --    24 C    1.444    26 C    1.297   138 H    0.961
    26   6 C    3.964 --    25 C    1.297    27 C    1.234    47 C    1.231
    27   6 C    3.924 --    36 C    1.342    26 C    1.234    28 C    1.136
    28   6 C    3.948 --    29 C    1.505    27 C    1.136    35 S    1.126
    29   6 C    3.945 --    28 C    1.505    30 C    1.279   139 H    0.958
    30   6 C    3.858 --    32 C    1.506    29 C    1.279    31 F    0.933
    31   9 F    1.059 --    30 C    0.933
    32   6 C    3.919 --    30 C    1.506    35 S    1.173    33 C    1.029
    33   6 C    3.990 --    32 C    1.029    34 C    0.992   140 H    0.967
                           141 H    0.965
    34   6 C    3.987 --    33 C    0.992   143 H    0.987   142 H    0.986
                           144 H    0.983
    35  16 S    2.593 --    32 C    1.173    28 C    1.126
    36   6 C    3.909 --    27 C    1.342    37 C    1.237    51 O    1.082
    37   6 C    3.961 --    49 C    1.261    38 C    1.258    36 C    1.237
    38   6 C    3.928 --    47 C    1.317    37 C    1.258    39 C    1.133
    39   6 C    3.949 --    45 C    1.514    38 C    1.133    40 S    1.122
    40  16 S    2.587 --    41 C    1.165    39 C    1.122
    41   6 C    3.922 --    44 C    1.516    40 S    1.165    42 C    1.028
    42   6 C    3.991 --    41 C    1.028    43 C    0.998   145 H    0.968
                           146 H    0.960
    43   6 C    3.989 --    42 C    0.998   148 H    0.988   147 H    0.985
                           149 H    0.984
    44   6 C    3.854 --    41 C    1.516    45 C    1.272    46 F    0.926
    45   6 C    3.942 --    39 C    1.514    44 C    1.272   150 H    0.942
    46   9 F    1.047 --    44 C    0.926
    47   6 C    3.907 --    38 C    1.317    26 C    1.231    48 O    1.099
    48   8 O    2.401 --    47 C    1.099    24 C    1.069
    49   6 C    3.943 --    50 C    1.476    37 C    1.261   151 H    0.958
    50   6 C    3.882 --    49 C    1.476    52 C    1.181    51 O    1.058
    51   8 O    2.382 --    36 C    1.082    50 C    1.058
    52   6 C    3.894 --    53 C    1.361    50 C    1.181    93 S    1.083
    53   6 C    3.942 --    52 C    1.361    71 C    1.211    54 N    1.148
    54   7 N    3.494 --    53 C    1.148    55 C    1.044    63 C    1.005
    55   6 C    3.961 --    56 C    1.369    62 C    1.351    54 N    1.044
    56   6 C    3.986 --    57 C    1.447    55 C    1.369   152 H    0.966
    57   6 C    3.988 --    56 C    1.447    58 C    1.390   153 H    0.965
    58   6 C    3.956 --    57 C    1.390    61 C    1.364    59 S    1.048
    59  16 S    2.243 --    58 C    1.048    60 C    1.005
    60   6 C    3.971 --    59 S    1.005   156 H    0.982   155 H    0.979
                           154 H    0.977
    61   6 C    3.988 --    62 C    1.479    58 C    1.364   157 H    0.966
    62   6 C    3.981 --    61 C    1.479    55 C    1.351   158 H    0.964
    63   6 C    3.959 --    70 C    1.379    64 C    1.364    54 N    1.005
    64   6 C    3.983 --    65 C    1.477    63 C    1.364   159 H    0.966
    65   6 C    3.988 --    64 C    1.477    66 C    1.364   160 H    0.965
                            70 C    0.101
    66   6 C    3.957 --    69 C    1.395    65 C    1.364    67 S    1.052
    67  16 S    2.256 --    66 C    1.052    68 C    1.007
    68   6 C    3.969 --    67 S    1.007   162 H    0.981   163 H    0.978
                           161 H    0.976
    69   6 C    3.986 --    70 C    1.435    66 C    1.395   164 H    0.963
    70   6 C    3.981 --    69 C    1.435    63 C    1.379   165 H    0.965
                            65 C    0.101
    71   6 C    3.926 --    92 C    1.380    53 C    1.211    72 S    1.107
    72  16 S    2.570 --    71 C    1.107    73 C    1.073
    73   6 C    3.910 --    74 C    1.350    94 C    1.225    72 S    1.073
    74   6 C    3.929 --    73 C    1.350    92 C    1.214    75 N    1.135
    75   7 N    3.525 --    74 C    1.135    76 C    1.091    84 C    1.018
    76   6 C    3.958 --    77 C    1.331    83 C    1.316    75 N    1.091
    77   6 C    3.982 --    78 C    1.476    76 C    1.331   166 H    0.964
    78   6 C    3.985 --    77 C    1.476    79 C    1.370   167 H    0.961
    79   6 C    3.944 --    78 C    1.370    82 C    1.340    80 S    1.066
    80  16 S    2.266 --    79 C    1.066    81 C    1.006
    81   6 C    3.968 --    80 S    1.006   170 H    0.981   169 H    0.980
                           168 H    0.975
    82   6 C    3.982 --    83 C    1.502    79 C    1.340   171 H    0.964
    83   6 C    3.970 --    82 C    1.502    76 C    1.316   172 H    0.961
    84   6 C    3.953 --    85 C    1.372    91 C    1.351    75 N    1.018
    85   6 C    3.978 --    86 C    1.451    84 C    1.372   173 H    0.966
    86   6 C    3.983 --    85 C    1.451    87 C    1.383   174 H    0.962
    87   6 C    3.951 --    86 C    1.383    90 C    1.360    88 S    1.066
    88  16 S    2.278 --    87 C    1.066    89 C    1.008
    89   6 C    3.964 --    88 S    1.008   177 H    0.979   175 H    0.978
                           176 H    0.974
    90   6 C    3.987 --    91 C    1.482    87 C    1.360   178 H    0.965
    91   6 C    3.976 --    90 C    1.482    84 C    1.351   179 H    0.965
    92   6 C    3.930 --    71 C    1.380    74 C    1.214    93 S    1.115
    93  16 S    2.554 --    92 C    1.115    52 C    1.083
    94   6 C    3.959 --    95 C    1.322    73 C    1.225   100 C    1.186
    95   6 C    3.954 --    96 C    1.430    94 C    1.322   180 H    0.942
    96   6 C    3.850 --    95 C    1.430    98 C    1.310    97 F    0.934
    97   9 F    1.057 --    96 C    0.934
    98   6 C    3.916 --    96 C    1.310    99 C    1.197   104 C    1.169
    99   6 C    3.967 --   103 N    1.396    98 C    1.197   100 C    1.158
   100   6 C    3.970 --   101 N    1.398    94 C    1.186    99 C    1.158
   101   7 N    3.081 --   102 S    1.402   100 C    1.398   103 N    0.136
   102  16 S    3.165 --   101 N    1.402   103 N    1.386
   103   7 N    3.049 --    99 C    1.396   102 S    1.386   101 N    0.136
   104   6 C    3.931 --   105 C    1.594    98 C    1.169   181 H    0.953
   105   6 C    3.943 --   104 C    1.594   114 C    1.112   106 C    1.011
   106   6 C    3.908 --   107 O    1.741   108 C    1.026   105 C    1.011
   107   8 O    2.014 --   106 C    1.741
   108   6 C    3.967 --   109 C    1.378   113 C    1.296   106 C    1.026
   109   6 C    3.978 --   110 C    1.441   108 C    1.378   182 H    0.962
   110   6 C    3.950 --   109 C    1.441   111 C    1.317   126 C    0.994
   111   6 C    3.963 --   112 C    1.449   110 C    1.317   120 C    0.996
   112   6 C    3.975 --   111 C    1.449   113 C    1.361   183 H    0.959
   113   6 C    3.979 --   112 C    1.361   108 C    1.296   114 C    1.097
   114   6 C    3.963 --   115 C    1.470   105 C    1.112   113 C    1.097
   115   6 C    3.963 --   114 C    1.470   116 C    1.107   118 C    1.104
   116   6 C    3.941 --   117 N    2.739   115 C    1.107
   117   7 N    2.960 --   116 C    2.739
   118   6 C    3.942 --   119 N    2.752   115 C    1.104
   119   7 N    2.962 --   118 C    2.752
   120   6 C    3.982 --   111 C    0.996   126 C    0.975   184 H    0.959
                           121 C    0.949
   121   6 C    3.988 --   122 C    1.004   125 C    0.989   185 H    0.970
                           120 C    0.949
   122   6 C    3.980 --   123 C    1.923   121 C    1.004   186 H    0.970
   123   6 C    3.980 --   122 C    1.923   124 C    1.003   187 H    0.970
   124   6 C    3.986 --   123 C    1.003   125 C    0.989   188 H    0.970
                           126 C    0.948
   125   6 C    3.993 --   124 C    0.989   121 C    0.989   189 H    0.978
                           190 H    0.974
   126   6 C    3.981 --   110 C    0.994   120 C    0.975   191 H    0.959
                           124 C    0.948
   127   1 H    0.991 --     1 C    0.943
   128   1 H    0.996 --     6 C    0.963
   129   1 H    0.996 --     9 C    0.958
   130   1 H    0.994 --    17 C    0.957
   131   1 H    0.998 --    18 C    0.971
   132   1 H    0.999 --    19 C    0.971
   133   1 H    0.999 --    20 C    0.971
   134   1 H    0.998 --    21 C    0.971
   135   1 H    0.995 --    22 C    0.975
   136   1 H    0.997 --    22 C    0.977
   137   1 H    0.994 --    23 C    0.956
   138   1 H    0.992 --    25 C    0.961
   139   1 H    0.995 --    29 C    0.958
   140   1 H    0.994 --    33 C    0.967
   141   1 H    0.995 --    33 C    0.965
   142   1 H    0.998 --    34 C    0.986
   143   1 H    0.997 --    34 C    0.987
   144   1 H    0.996 --    34 C    0.983
   145   1 H    0.996 --    42 C    0.968
   146   1 H    0.994 --    42 C    0.960
   147   1 H    0.997 --    43 C    0.985
   148   1 H    0.998 --    43 C    0.988
   149   1 H    0.996 --    43 C    0.984
   150   1 H    0.994 --    45 C    0.942
   151   1 H    0.995 --    49 C    0.958
   152   1 H    0.998 --    56 C    0.966
   153   1 H    0.997 --    57 C    0.965
   154   1 H    0.995 --    60 C    0.977
   155   1 H    0.997 --    60 C    0.979
   156   1 H    0.995 --    60 C    0.982
   157   1 H    0.996 --    61 C    0.966
   158   1 H    0.996 --    62 C    0.964
   159   1 H    0.997 --    64 C    0.966
   160   1 H    0.996 --    65 C    0.965
   161   1 H    0.994 --    68 C    0.976
   162   1 H    0.997 --    68 C    0.981
   163   1 H    0.993 --    68 C    0.978
   164   1 H    0.996 --    69 C    0.963
   165   1 H    0.996 --    70 C    0.965
   166   1 H    0.999 --    77 C    0.964
   167   1 H    0.996 --    78 C    0.961
   168   1 H    0.992 --    81 C    0.975
   169   1 H    0.994 --    81 C    0.980
   170   1 H    0.996 --    81 C    0.981
   171   1 H    0.994 --    82 C    0.964
   172   1 H    0.995 --    83 C    0.961
   173   1 H    0.997 --    85 C    0.966
   174   1 H    0.995 --    86 C    0.962
   175   1 H    0.993 --    89 C    0.978
   176   1 H    0.992 --    89 C    0.974
   177   1 H    0.994 --    89 C    0.979
   178   1 H    0.995 --    90 C    0.965
   179   1 H    0.996 --    91 C    0.965
   180   1 H    0.992 --    95 C    0.942
   181   1 H    0.990 --   104 C    0.953
   182   1 H    0.995 --   109 C    0.962
   183   1 H    0.996 --   112 C    0.959
   184   1 H    0.995 --   120 C    0.959
   185   1 H    0.998 --   121 C    0.970
   186   1 H    0.998 --   122 C    0.970
   187   1 H    0.998 --   123 C    0.970
   188   1 H    0.998 --   124 C    0.970
   189   1 H    0.998 --   125 C    0.978
   190   1 H    0.999 --   125 C    0.974
   191   1 H    0.994 --   126 C    0.959
 ---------------------------------------------------------------------------

Topologies differ in bond orders
Writing corrected topology to xtbtopo.mol

molecular dipole:
                 x           y           z       tot (Debye)
 q only:       -0.837       2.659      -2.299
   full:       -1.284       2.021      -2.905       9.568
molecular quadrupole (traceless):
                xx          xy          yy          xz          yz          zz
 q only:      -82.148     -86.829     -16.826      -8.230      26.451      98.975
  q+dip:      -61.241     -87.604      -6.420      -6.208      13.911      67.660
   full:      -62.904     -98.499       2.931      -4.326       9.497      59.973


           -------------------------------------------------
          | TOTAL ENERGY             -334.537615531274 Eh   |
          | GRADIENT NORM               0.040870949892 Eh/α |
          | HOMO-LUMO GAP               0.520373580413 eV   |
           -------------------------------------------------

------------------------------------------------------------------------
 * finished run on 2022/02/06 at 12:07:17.977     
------------------------------------------------------------------------
 total:
 * wall-time:     0 d,  0 h,  0 min,  0.837 sec
 *  cpu-time:     0 d,  0 h,  0 min,  6.600 sec
 * ratio c/w:     7.881 speedup
 SCF:
 * wall-time:     0 d,  0 h,  0 min,  0.739 sec
 *  cpu-time:     0 d,  0 h,  0 min,  5.900 sec
 * ratio c/w:     7.983 speedup

