      -----------------------------------------------------------      
     |                   =====================                   |     
     |                           x T B                           |     
     |                   =====================                   |     
     |                         S. Grimme                         |     
     |          Mulliken Center for Theoretical Chemistry        |     
     |                    University of Bonn                     |     
      -----------------------------------------------------------      

   * xtb version 6.4.1 (unknown) compiled by 'oda6@login1.crc.pitt.edu' on 2021-06-25

   xtb is free software: you can redistribute it and/or modify it under
   the terms of the GNU Lesser General Public License as published by
   the Free Software Foundation, either version 3 of the License, or
   (at your option) any later version.
   
   xtb is distributed in the hope that it will be useful,
   but WITHOUT ANY WARRANTY; without even the implied warranty of
   MERCHANTABILITY or FITNESS FOR A PARTICULAR PURPOSE.  See the
   GNU Lesser General Public License for more details.
   
   Cite this work as:
   * C. Bannwarth, E. Caldeweyher, S. Ehlert, A. Hansen, P. Pracht,
     J. Seibert, S. Spicher, S. Grimme, WIREs Comput. Mol. Sci., 2020, 11,
     e01493. DOI: 10.1002/wcms.1493
   
   for GFN2-xTB:
   * C. Bannwarth, S. Ehlert and S. Grimme., J. Chem. Theory Comput., 2019,
     15, 1652-1671. DOI: 10.1021/acs.jctc.8b01176
   for GFN1-xTB:
   * S. Grimme, C. Bannwarth, P. Shushkov, J. Chem. Theory Comput., 2017,
     13, 1989-2009. DOI: 10.1021/acs.jctc.7b00118
   for GFN0-xTB:
   * P. Pracht, E. Caldeweyher, S. Ehlert, S. Grimme, ChemRxiv, 2019, preprint.
     DOI: 10.26434/chemrxiv.8326202.v1
   for GFN-FF:
   * S. Spicher and S. Grimme, Angew. Chem. Int. Ed., 2020, 59, 15665-15673.
     DOI: 10.1002/anie.202004239
   
   for DFT-D4:
   * E. Caldeweyher, C. Bannwarth and S. Grimme, J. Chem. Phys., 2017,
     147, 034112. DOI: 10.1063/1.4993215
   * E. Caldeweyher, S. Ehlert, A. Hansen, H. Neugebauer, S. Spicher,
     C. Bannwarth and S. Grimme, J. Chem. Phys., 2019, 150, 154122.
     DOI: 10.1063/1.5090222
   * E. Caldeweyher, J.-M. Mewes, S. Ehlert and S. Grimme, Phys. Chem. Chem. Phys.
     2020, 22, 8499-8512. DOI: 10.1039/D0CP00502A
   
   for sTDA-xTB:
   * S. Grimme and C. Bannwarth, J. Chem. Phys., 2016, 145, 054103.
     DOI: 10.1063/1.4959605
   
   in the mass-spec context:
   * V. Asgeirsson, C. Bauer and S. Grimme, Chem. Sci., 2017, 8, 4879.
     DOI: 10.1039/c7sc00601b
   * J. Koopman and S. Grimme, ACS Omega 2019, 4, 12, 15120-15133.
     DOI: 10.1021/acsomega.9b02011
   
   for metadynamics refer to:
   * S. Grimme, J. Chem. Theory Comput., 2019, 155, 2847-2862
     DOI: 10.1021/acs.jctc.9b00143
   
   for SPH calculations refer to:
   * S. Spicher and S. Grimme, J. Chem. Theory Comput., 2021, 17, 1701-1714
     DOI: 10.1021/acs.jctc.0c01306
   
   with help from (in alphabetical order)
   P. Atkinson, C. Bannwarth, F. Bohle, G. Brandenburg, E. Caldeweyher
   M. Checinski, S. Dohm, S. Ehlert, S. Ehrlich, I. Gerasimov, J. Koopman
   C. Lavigne, S. Lehtola, F. März, M. Müller, F. Musil, H. Neugebauer
   J. Pisarek, C. Plett, P. Pracht, J. Seibert, P. Shushkov, S. Spicher
   M. Stahn, M. Steiner, T. Strunk, J. Stückrath, T. Rose, and J. Unsleber
   
 * started run on 2022/02/09 at 07:22:01.161     

           -------------------------------------------------
          |                Calculation Setup                |
           -------------------------------------------------

          program call               : /ihome/ghutchison/oda6/xtb/xtb-641/bin/xtb ../../GFN2_output/39_112_130_34_39.mol --sp --alpb water
          hostname                   : smp-n26
          coordinate file            : ../../GFN2_output/39_112_130_34_39.mol
          omp threads                :                     8
          number of atoms            :                   211
          number of electrons        :                   652
          charge                     :                     0
          spin                       :                   0.0
          first test random number   :      0.02805697516764

   ID    Z sym.   atoms
    1    6 C      1-3, 5-13, 15, 17-24, 26-30, 33, 34, 36-38, 40-43, 45-51,
                  53-56, 58, 59, 61-64, 66-72, 74-77, 79, 80, 82-94, 96, 97,
                  99-111, 113-115, 117-125, 127, 129-135
    2    8 O      4, 31, 32, 116
    3    7 N      14, 16, 39, 60, 81, 98, 126, 128
    4   16 S      25, 35, 44, 52, 57, 65, 73, 78, 95, 112
    5    1 H      136-211

           -------------------------------------------------
          |                 G F N 2 - x T B                 |
           -------------------------------------------------

        Reference                      10.1021/acs.jctc.8b01176
      * Hamiltonian:
        H0-scaling (s, p, d)           1.850000    2.230000    2.230000
        zeta-weighting                 0.500000
      * Dispersion:
        s8                             2.700000
        a1                             0.520000
        a2                             5.000000
        s9                             5.000000
      * Repulsion:
        kExp                           1.500000    1.000000
        rExp                           1.000000
      * Coulomb:
        alpha                          2.000000
        third order                    shell-resolved
        anisotropic                    true
        a3                             3.000000
        a5                             4.000000
        cn-shift                       1.200000
        cn-exp                         4.000000
        max-rad                        5.000000

      * Solvation model:               ALPB
        Solvent                        water
        Parameter file                 internal GFN2-xTB/ALPB
        Dielectric constant                8.0200E+01
        Reference state                gsolv [1 M gas/solution]
        Free energy shift                  1.0808E-03 Eh       6.7819E-01 kcal/mol
        Temperature                        2.9815E+02 K
        Density                            1.0000E+00 kg/L
        Solvent mass                       1.8000E+01 g/mol
        Interaction kernel             P16
        Born radius scaling (c1)           1.4744E+00
        Born radii integrator          GBOBC
        Born offset                        0.0000E+00 a0       0.0000E+00 AA
        H-bond correction              true
        Ion screening                  false
        Surface tension                    1.0000E-05 Eh       1.5569E+01 dyn/cm
        Grid points                               230 per atom

          ...................................................
          :                      SETUP                      :
          :.................................................:
          :  # basis functions                 676          :
          :  # atomic orbitals                 666          :
          :  # shells                          356          :
          :  # electrons                       652          :
          :  max. iterations                   250          :
          :  Hamiltonian                  GFN2-xTB          :
          :  restarted?                      false          :
          :  GBSA solvation                   true          :
          :  PC potential                    false          :
          :  electronic temp.          300.0000000     K    :
          :  accuracy                    1.0000000          :
          :  -> integral cutoff          0.2500000E+02      :
          :  -> integral neglect         0.1000000E-07      :
          :  -> SCF convergence          0.1000000E-05 Eh   :
          :  -> wf. convergence          0.1000000E-03 e    :
          :  Broyden damping             0.4000000          :
          ...................................................

 iter      E             dE          RMSdq      gap      omega  full diag
   1   -358.2314316 -0.358231E+03  0.462E+00    0.53       0.0  T
   2   -358.4597529 -0.228321E+00  0.267E+00    0.86       1.0  T
   3   -358.3087716  0.150981E+00  0.124E+00    0.54       1.0  T
   4   -358.4974325 -0.188661E+00  0.486E-01    0.68       1.0  T
   5   -358.5273631 -0.299306E-01  0.156E-01    0.65       1.0  T
   6   -358.5282596 -0.896445E-03  0.709E-02    0.66       1.0  T
   7   -358.5286108 -0.351285E-03  0.286E-02    0.66       1.0  T
   8   -358.5286440 -0.331732E-04  0.165E-02    0.66       1.0  T
   9   -358.5286559 -0.118491E-04  0.992E-03    0.66       1.0  T
  10   -358.5286610 -0.516080E-05  0.526E-03    0.66       1.3  T
  11   -358.5286635 -0.249128E-05  0.287E-03    0.66       2.4  T
  12   -358.5286638 -0.268805E-06  0.165E-03    0.66       4.2  T
  13   -358.5286640 -0.187259E-06  0.689E-04    0.66      10.0  T
  14   -358.5286640 -0.257677E-07  0.412E-04    0.66      16.7  T

   *** convergence criteria satisfied after 14 iterations ***

         #    Occupation            Energy/Eh            Energy/eV
      -------------------------------------------------------------
         1        2.0000           -0.7554272             -20.5562
       ...           ...                  ...                  ...
       320        2.0000           -0.3713150             -10.1040
       321        2.0000           -0.3700798             -10.0704
       322        2.0000           -0.3671538              -9.9908
       323        2.0000           -0.3661736              -9.9641
       324        2.0000           -0.3589088              -9.7664
       325        2.0000           -0.3556867              -9.6787
       326        2.0000           -0.3539866              -9.6325 (HOMO)
       327        0.0000           -0.3295918              -8.9686 (LUMO)
       328        0.0000           -0.3259205              -8.8687
       329                         -0.3187698              -8.6742
       330                         -0.3139706              -8.5436
       331                         -0.3042999              -8.2804
       ...                                ...                  ...
       666                          1.1558180              31.4514
      -------------------------------------------------------------
                  HL-Gap            0.0243948 Eh            0.6638 eV
             Fermi-level           -0.3417234 Eh           -9.2988 eV

 SCC (total)                   0 d,  0 h,  0 min,  0.802 sec
 SCC setup                      ...        0 min,  0.008 sec (  0.981%)
 Dispersion                     ...        0 min,  0.010 sec (  1.282%)
 classical contributions        ...        0 min,  0.000 sec (  0.052%)
 integral evaluation            ...        0 min,  0.041 sec (  5.161%)
 iterations                     ...        0 min,  0.600 sec ( 74.823%)
 molecular gradient             ...        0 min,  0.138 sec ( 17.217%)
 printout                       ...        0 min,  0.004 sec (  0.472%)

         :::::::::::::::::::::::::::::::::::::::::::::::::::::
         ::                     SUMMARY                     ::
         :::::::::::::::::::::::::::::::::::::::::::::::::::::
         :: total energy            -352.755446009148 Eh    ::
         :: total w/o Gsasa/hb      -352.734640348910 Eh    ::
         :: gradient norm              0.044268974202 Eh/a0 ::
         :: HOMO-LUMO gap              0.663816561706 eV    ::
         ::.................................................::
         :: SCC energy              -358.528663994718 Eh    ::
         :: -> isotropic ES            0.204960047313 Eh    ::
         :: -> anisotropic ES          0.011479701985 Eh    ::
         :: -> anisotropic XC          0.215847488425 Eh    ::
         :: -> dispersion             -0.401220192185 Eh    ::
         :: -> Gsolv                  -0.063589169064 Eh    ::
         ::    -> Gelec               -0.042783508825 Eh    ::
         ::    -> Gsasa               -0.014785616234 Eh    ::
         ::    -> Ghb                 -0.007100803702 Eh    ::
         ::    -> Gshift               0.001080759698 Eh    ::
         :: repulsion energy           5.756094465925 Eh    ::
         :: add. restraining           0.000000000000 Eh    ::
         :: total charge               0.000000001286 e     ::
         :::::::::::::::::::::::::::::::::::::::::::::::::::::

           -------------------------------------------------
          |                Property Printout                |
           -------------------------------------------------

    * Orbital Energies and Occupations

         #    Occupation            Energy/Eh            Energy/eV
      -------------------------------------------------------------
         1        2.0000           -0.7554272             -20.5562
       ...           ...                  ...                  ...
       314        2.0000           -0.4005169             -10.8986
       315        2.0000           -0.3902215             -10.6185
       316        2.0000           -0.3895609             -10.6005
       317        2.0000           -0.3883417             -10.5673
       318        2.0000           -0.3852820             -10.4841
       319        2.0000           -0.3784905             -10.2993
       320        2.0000           -0.3713150             -10.1040
       321        2.0000           -0.3700798             -10.0704
       322        2.0000           -0.3671538              -9.9908
       323        2.0000           -0.3661736              -9.9641
       324        2.0000           -0.3589088              -9.7664
       325        2.0000           -0.3556867              -9.6787
       326        2.0000           -0.3539866              -9.6325 (HOMO)
       327        0.0000           -0.3295918              -8.9686 (LUMO)
       328        0.0000           -0.3259205              -8.8687
       329                         -0.3187698              -8.6742
       330                         -0.3139706              -8.5436
       331                         -0.3042999              -8.2804
       332                         -0.2785978              -7.5810
       333                         -0.2670250              -7.2661
       334                         -0.2556998              -6.9579
       335                         -0.2502792              -6.8104
       336                         -0.2488675              -6.7720
       337                         -0.2462143              -6.6998
       ...                                ...                  ...
       666                          1.1558180              31.4514
      -------------------------------------------------------------
                  HL-Gap            0.0243948 Eh            0.6638 eV
             Fermi-level           -0.3417234 Eh           -9.2988 eV

     #   Z          covCN         q      C6AA      α(0)
     1   6 C        2.915    -0.019    28.486     8.752
     2   6 C        3.009    -0.049    29.192     8.863
     3   6 C        2.880     0.223    23.309     7.915
     4   8 O        1.006    -0.414    21.883     6.276
     5   6 C        3.061    -0.022    28.501     8.755
     6   6 C        2.904    -0.017    28.443     8.745
     7   6 C        3.262     0.016    26.477     8.311
     8   6 C        3.257     0.013    26.600     8.338
     9   6 C        2.904    -0.034    28.838     8.805
    10   6 C        3.053     0.001    27.942     8.669
    11   6 C        3.022     0.033    27.237     8.561
    12   6 C        2.947    -0.006    28.178     8.706
    13   6 C        1.946     0.129    27.914     8.532
    14   7 N        0.911    -0.300    27.721     7.615
    15   6 C        1.947     0.133    27.830     8.519
    16   7 N        0.911    -0.295    27.593     7.597
    17   6 C        4.164    -0.027    20.976     6.505
    18   6 C        4.012    -0.016    20.786     6.477
    19   6 C        2.987    -0.042    29.039     8.840
    20   6 C        2.988    -0.043    29.049     8.841
    21   6 C        4.011    -0.016    20.791     6.477
    22   6 C        3.927    -0.066    21.692     6.619
    23   6 C        4.162    -0.027    20.967     6.503
    24   6 C        2.975     0.010    27.791     8.647
    25  16 S        2.461     0.026   140.011    19.915
    26   6 C        3.023     0.018    27.578     8.614
    27   6 C        3.271    -0.010    26.939     8.368
    28   6 C        3.046    -0.031    28.723     8.790
    29   6 C        2.997    -0.015    28.376     8.738
    30   6 C        2.760     0.359    20.903     7.487
    31   8 O        0.857    -0.481    23.361     6.480
    32   8 O        1.704    -0.278    18.615     5.825
    33   6 C        3.701     0.074    19.488     6.313
    34   6 C        3.750    -0.125    22.970     6.835
    35  16 S        2.241     0.001   141.012    19.986
    36   6 C        3.191     0.023    26.999     8.475
    37   6 C        3.015     0.004    27.911     8.666
    38   6 C        3.057     0.054    26.728     8.478
    39   7 N        2.749    -0.044    22.089     6.980
    40   6 C        2.940     0.056    26.745     8.482
    41   6 C        2.923    -0.039    28.965     8.826
    42   6 C        2.989    -0.038    28.930     8.823
    43   6 C        2.966     0.052    26.834     8.497
    44  16 S        2.038    -0.179   148.629    20.519
    45   6 C        3.745    -0.068    21.877     6.672
    46   6 C        2.943    -0.044    29.095     8.847
    47   6 C        2.922    -0.040    29.004     8.832
    48   6 C        2.927     0.066    26.527     8.446
    49   6 C        2.929    -0.048    29.188     8.860
    50   6 C        2.949    -0.040    29.000     8.833
    51   6 C        2.967     0.047    26.951     8.515
    52  16 S        2.025    -0.192   149.214    20.559
    53   6 C        3.744    -0.052    21.581     6.627
    54   6 C        2.970    -0.029    28.709     8.789
    55   6 C        2.924    -0.041    29.015     8.834
    56   6 C        3.185     0.004    27.476     8.553
    57  16 S        2.239    -0.034   142.457    20.088
    58   6 C        3.022    -0.004    28.087     8.693
    59   6 C        3.053     0.055    26.724     8.478
    60   7 N        2.746    -0.091    23.020     7.126
    61   6 C        2.932     0.060    26.664     8.469
    62   6 C        2.924    -0.051    29.264     8.871
    63   6 C        2.944    -0.041    29.030     8.837
    64   6 C        2.965     0.043    27.031     8.528
    65  16 S        2.028    -0.202   149.660    20.590
    66   6 C        3.744    -0.050    21.547     6.622
    67   6 C        2.979    -0.040    28.978     8.830
    68   6 C        2.923    -0.049    29.216     8.864
    69   6 C        2.930     0.060    26.657     8.467
    70   6 C        2.921    -0.037    28.919     8.819
    71   6 C        2.986    -0.042    29.031     8.838
    72   6 C        2.966     0.052    26.821     8.495
    73  16 S        2.038    -0.175   148.449    20.507
    74   6 C        3.744    -0.061    21.750     6.653
    75   6 C        2.945    -0.045    29.109     8.849
    76   6 C        2.926    -0.040    28.991     8.830
    77   6 C        3.168     0.005    27.551     8.577
    78  16 S        2.287    -0.044   142.867    20.117
    79   6 C        3.020     0.001    27.989     8.678
    80   6 C        3.061     0.049    26.831     8.494
    81   7 N        2.748    -0.069    22.578     7.057
    82   6 C        2.923     0.065    26.537     8.448
    83   6 C        2.922    -0.050    29.251     8.869
    84   6 C        2.920    -0.032    28.810     8.802
    85   6 C        2.919    -0.042    29.050     8.839
    86   6 C        2.920    -0.031    28.783     8.798
    87   6 C        2.924    -0.050    29.232     8.866
    88   6 C        2.928     0.062    26.621     8.461
    89   6 C        2.923    -0.046    29.130     8.851
    90   6 C        2.920    -0.029    28.717     8.788
    91   6 C        2.920    -0.037    28.931     8.820
    92   6 C        2.920    -0.033    28.815     8.803
    93   6 C        2.922    -0.047    29.162     8.856
    94   6 C        3.170     0.013    27.354     8.545
    95  16 S        2.260    -0.058   143.458    20.159
    96   6 C        2.990     0.006    27.887     8.662
    97   6 C        3.032     0.075    26.290     8.410
    98   7 N        2.749    -0.033    21.889     6.949
    99   6 C        2.934     0.062    26.600     8.458
   100   6 C        2.922    -0.042    29.053     8.839
   101   6 C        2.920    -0.031    28.772     8.796
   102   6 C        2.920    -0.034    28.845     8.807
   103   6 C        2.921    -0.025    28.637     8.776
   104   6 C        2.922    -0.032    28.791     8.799
   105   6 C        2.929     0.065    26.540     8.449
   106   6 C        2.923    -0.040    28.984     8.829
   107   6 C        2.919    -0.031    28.768     8.795
   108   6 C        2.919    -0.035    28.865     8.810
   109   6 C        2.920    -0.029    28.715     8.787
   110   6 C        2.921    -0.043    29.072     8.842
   111   6 C        3.163    -0.003    27.751     8.610
   112  16 S        2.241    -0.025   142.103    20.063
   113   6 C        2.952    -0.015    28.387     8.739
   114   6 C        3.013    -0.051    29.255     8.872
   115   6 C        2.876     0.224    23.302     7.913
   116   8 O        0.856    -0.446    22.622     6.377
   117   6 C        3.063    -0.025    28.570     8.765
   118   6 C        2.904    -0.025    28.618     8.772
   119   6 C        3.260     0.012    26.590     8.332
   120   6 C        3.256     0.012    26.639     8.346
   121   6 C        2.904    -0.034    28.839     8.805
   122   6 C        3.051     0.000    27.976     8.675
   123   6 C        3.026     0.032    27.249     8.562
   124   6 C        2.948    -0.008    28.223     8.713
   125   6 C        1.938     0.128    27.948     8.537
   126   7 N        0.911    -0.296    27.634     7.603
   127   6 C        1.937     0.132    27.856     8.523
   128   7 N        0.911    -0.296    27.624     7.602
   129   6 C        4.162    -0.024    20.923     6.497
   130   6 C        4.013    -0.016    20.784     6.476
   131   6 C        2.995    -0.044    29.079     8.846
   132   6 C        2.995    -0.045    29.094     8.848
   133   6 C        4.013    -0.016    20.783     6.476
   134   6 C        3.915    -0.062    21.621     6.609
   135   6 C        4.160    -0.024    20.919     6.496
   136   1 H        0.925     0.057     2.229     2.335
   137   1 H        0.926     0.066     2.132     2.283
   138   1 H        0.926     0.050     2.316     2.380
   139   1 H        0.925     0.059     2.214     2.327
   140   1 H        0.925     0.041     2.429     2.437
   141   1 H        0.926     0.026     2.639     2.541
   142   1 H        0.926     0.031     2.571     2.507
   143   1 H        0.925     0.047     2.359     2.402
   144   1 H        0.925     0.048     2.345     2.395
   145   1 H        0.925     0.050     2.315     2.380
   146   1 H        0.925     0.064     2.155     2.296
   147   1 H        0.926     0.087     1.910     2.161
   148   1 H        0.924     0.086     1.916     2.165
   149   1 H        0.924     0.056     2.252     2.347
   150   1 H        0.925     0.048     2.345     2.395
   151   1 H        0.925     0.064     2.150     2.293
   152   1 H        0.925     0.072     2.066     2.248
   153   1 H        0.926     0.045     2.379     2.412
   154   1 H        0.926     0.055     2.260     2.351
   155   1 H        0.925     0.082     1.961     2.190
   156   1 H        0.925     0.076     2.022     2.224
   157   1 H        0.925     0.075     2.029     2.228
   158   1 H        0.926     0.064     2.153     2.294
   159   1 H        0.926     0.058     2.221     2.331
   160   1 H        0.926     0.043     2.410     2.428
   161   1 H        0.926     0.048     2.345     2.395
   162   1 H        0.925     0.069     2.101     2.267
   163   1 H        0.925     0.070     2.088     2.260
   164   1 H        0.925     0.043     2.411     2.428
   165   1 H        0.926     0.055     2.254     2.348
   166   1 H        0.926     0.057     2.239     2.340
   167   1 H        0.926     0.047     2.354     2.399
   168   1 H        0.926     0.042     2.422     2.434
   169   1 H        0.925     0.062     2.171     2.304
   170   1 H        0.925     0.058     2.223     2.331
   171   1 H        0.925     0.068     2.108     2.270
   172   1 H        0.926     0.054     2.268     2.355
   173   1 H        0.926     0.040     2.445     2.445
   174   1 H        0.926     0.052     2.293     2.368
   175   1 H        0.926     0.059     2.212     2.326
   176   1 H        0.925     0.073     2.054     2.241
   177   1 H        0.925     0.077     2.006     2.215
   178   1 H        0.925     0.061     2.190     2.314
   179   1 H        0.926     0.055     2.263     2.352
   180   1 H        0.926     0.050     2.316     2.380
   181   1 H        0.926     0.038     2.476     2.461
   182   1 H        0.926     0.042     2.419     2.432
   183   1 H        0.926     0.038     2.469     2.457
   184   1 H        0.926     0.036     2.497     2.471
   185   1 H        0.926     0.032     2.558     2.501
   186   1 H        0.926     0.033     2.538     2.491
   187   1 H        0.926     0.045     2.381     2.413
   188   1 H        0.926     0.042     2.417     2.431
   189   1 H        0.926     0.042     2.419     2.432
   190   1 H        0.926     0.043     2.407     2.426
   191   1 H        0.926     0.044     2.391     2.418
   192   1 H        0.926     0.056     2.242     2.342
   193   1 H        0.926     0.056     2.248     2.345
   194   1 H        0.926     0.054     2.274     2.358
   195   1 H        0.926     0.047     2.353     2.399
   196   1 H        0.926     0.045     2.389     2.417
   197   1 H        0.926     0.052     2.292     2.367
   198   1 H        0.926     0.048     2.345     2.395
   199   1 H        0.926     0.046     2.372     2.408
   200   1 H        0.926     0.042     2.425     2.435
   201   1 H        0.925     0.054     2.276     2.359
   202   1 H        0.926     0.060     2.201     2.320
   203   1 H        0.926     0.050     2.323     2.383
   204   1 H        0.925     0.052     2.300     2.372
   205   1 H        0.925     0.040     2.452     2.449
   206   1 H        0.926     0.043     2.412     2.429
   207   1 H        0.926     0.044     2.393     2.419
   208   1 H        0.925     0.043     2.411     2.428
   209   1 H        0.925     0.044     2.403     2.424
   210   1 H        0.925     0.033     2.543     2.494
   211   1 H        0.925     0.054     2.270     2.356

 Mol. C6AA /au·bohr⁶  :     773223.611929
 Mol. C8AA /au·bohr⁸  :   21731447.124252
 Mol. α(0) /au        :       1410.634533


Wiberg/Mayer (AO) data.
largest (>0.10) Wiberg bond orders for each atom

 ---------------------------------------------------------------------------
     #   Z sym  total        # sym  WBO       # sym  WBO       # sym  WBO
 ---------------------------------------------------------------------------
     1   6 C    3.943 --     2 C    1.435    24 C    1.354   136 H    0.940
     2   6 C    3.947 --     1 C    1.435    11 C    1.163     3 C    1.084
     3   6 C    3.905 --     4 O    1.649     2 C    1.084     5 C    1.035
     4   8 O    2.079 --     3 C    1.649    25 S    0.150
     5   6 C    3.970 --     6 C    1.383    10 C    1.303     3 C    1.035
     6   6 C    3.977 --     7 C    1.433     5 C    1.383   137 H    0.960
     7   6 C    3.952 --     6 C    1.433     8 C    1.329    23 C    0.998
     8   6 C    3.963 --     9 C    1.440     7 C    1.329    17 C    0.998
     9   6 C    3.976 --     8 C    1.440    10 C    1.373   138 H    0.959
    10   6 C    3.975 --     9 C    1.373     5 C    1.303    11 C    1.084
    11   6 C    3.956 --    12 C    1.445     2 C    1.163    10 C    1.084
    12   6 C    3.935 --    11 C    1.445    13 C    1.107    15 C    1.107
    13   6 C    3.938 --    14 N    2.731    12 C    1.107
    14   7 N    2.945 --    13 C    2.731
    15   6 C    3.937 --    16 N    2.738    12 C    1.107
    16   7 N    2.946 --    15 C    2.738
    17   6 C    3.983 --     8 C    0.998    23 C    0.977   139 H    0.957
                            18 C    0.946
    18   6 C    3.989 --    19 C    1.010    22 C    0.985   140 H    0.972
                            17 C    0.946
    19   6 C    3.987 --    20 C    1.924    18 C    1.010   141 H    0.972
    20   6 C    3.987 --    19 C    1.924    21 C    1.010   142 H    0.971
    21   6 C    3.987 --    20 C    1.010    22 C    0.985   143 H    0.971
                            23 C    0.946
    22   6 C    3.991 --    21 C    0.985    18 C    0.985   145 H    0.977
                           144 H    0.976
    23   6 C    3.982 --     7 C    0.998    17 C    0.977   146 H    0.956
                            21 C    0.946
    24   6 C    3.931 --     1 C    1.354    36 C    1.293    25 S    1.076
    25  16 S    2.788 --    26 C    1.169    24 C    1.076     4 O    0.150
    26   6 C    3.928 --    37 C    1.279    27 C    1.249    25 S    1.169
    27   6 C    3.961 --    36 C    1.264    26 C    1.249    28 C    1.247
    28   6 C    3.973 --    29 C    1.551    27 C    1.247   147 H    0.948
    29   6 C    3.919 --    28 C    1.551    35 S    1.097    30 C    1.052
    30   6 C    3.916 --    31 O    1.662    32 O    1.130    29 C    1.052
    31   8 O    1.971 --    30 C    1.662    32 O    0.163
    32   8 O    2.292 --    30 C    1.130    33 C    0.923    31 O    0.163
    33   6 C    3.907 --    34 C    1.012   149 H    0.969   148 H    0.963
                            32 O    0.923
    34   6 C    3.988 --    33 C    1.012   150 H    0.986   151 H    0.985
                           152 H    0.980
    35  16 S    2.579 --    36 C    1.160    29 C    1.097
    36   6 C    3.933 --    24 C    1.293    27 C    1.264    35 S    1.160
    37   6 C    3.922 --    38 C    1.338    26 C    1.279    78 S    1.067
    38   6 C    3.931 --    37 C    1.338    56 C    1.241    39 N    1.108
    39   7 N    3.504 --    38 C    1.108    48 C    1.090    40 C    1.013
    40   6 C    3.956 --    47 C    1.375    41 C    1.364    39 N    1.013
    41   6 C    3.983 --    42 C    1.474    40 C    1.364   153 H    0.966
    42   6 C    3.988 --    41 C    1.474    43 C    1.365   154 H    0.965
                            47 C    0.101
    43   6 C    3.954 --    46 C    1.382    42 C    1.365    44 S    1.063
    44  16 S    2.273 --    43 C    1.063    45 C    1.008
    45   6 C    3.965 --    44 S    1.008   157 H    0.978   156 H    0.978
                           155 H    0.974
    46   6 C    3.985 --    47 C    1.453    43 C    1.382   158 H    0.962
    47   6 C    3.978 --    46 C    1.453    40 C    1.375   159 H    0.965
                            42 C    0.101
    48   6 C    3.960 --    49 C    1.337    55 C    1.333    39 N    1.090
    49   6 C    3.980 --    50 C    1.451    48 C    1.337   160 H    0.964
    50   6 C    3.989 --    49 C    1.451    51 C    1.396   161 H    0.966
    51   6 C    3.948 --    50 C    1.396    54 C    1.366    52 S    1.030
    52  16 S    2.194 --    51 C    1.030    53 C    1.002
    53   6 C    3.974 --    52 S    1.002   164 H    0.984   163 H    0.982
                           162 H    0.979
    54   6 C    3.984 --    55 C    1.485    51 C    1.366   165 H    0.965
    55   6 C    3.976 --    54 C    1.485    48 C    1.333   166 H    0.962
    56   6 C    3.936 --    77 C    1.361    38 C    1.241    57 S    1.112
    57  16 S    2.549 --    56 C    1.112    58 C    1.094
    58   6 C    3.888 --    59 C    1.408    79 C    1.120    57 S    1.094
    59   6 C    3.957 --    58 C    1.408    77 C    1.223    60 N    1.108
    60   7 N    3.415 --    59 C    1.108    61 C    1.038    69 C    0.975
    61   6 C    3.962 --    62 C    1.369    68 C    1.359    60 N    1.038
    62   6 C    3.985 --    63 C    1.452    61 C    1.369   167 H    0.963
                            67 C    0.100
    63   6 C    3.990 --    62 C    1.452    64 C    1.392   168 H    0.965
    64   6 C    3.958 --    63 C    1.392    67 C    1.375    65 S    1.033
    65  16 S    2.215 --    64 C    1.033    66 C    1.004
    66   6 C    3.970 --    65 S    1.004   170 H    0.980   171 H    0.978
                           169 H    0.977
    67   6 C    3.987 --    68 C    1.469    64 C    1.375   172 H    0.964
                            62 C    0.100
    68   6 C    3.987 --    67 C    1.469    61 C    1.359   173 H    0.964
    69   6 C    3.963 --    76 C    1.396    70 C    1.387    60 N    0.975
    70   6 C    3.987 --    71 C    1.463    69 C    1.387   174 H    0.959
                            75 C    0.101
    71   6 C    3.987 --    70 C    1.463    72 C    1.372   175 H    0.966
                            76 C    0.105
    72   6 C    3.965 --    75 C    1.391    71 C    1.372    73 S    1.057
    73  16 S    2.278 --    72 C    1.057    74 C    1.009
    74   6 C    3.970 --    73 S    1.009   178 H    0.981   176 H    0.979
                           177 H    0.975
    75   6 C    3.987 --    76 C    1.440    72 C    1.391   179 H    0.963
                            70 C    0.101
    76   6 C    3.987 --    75 C    1.440    69 C    1.396   180 H    0.966
                            71 C    0.105
    77   6 C    3.925 --    56 C    1.361    59 C    1.223    78 S    1.111
    78  16 S    2.539 --    77 C    1.111    37 C    1.067
    79   6 C    3.900 --    80 C    1.416    58 C    1.120   112 S    1.106
    80   6 C    3.958 --    79 C    1.416    94 C    1.224    81 N    1.091
    81   7 N    3.494 --    80 C    1.091    82 C    1.066    88 C    1.028
    82   6 C    3.963 --    83 C    1.361    87 C    1.357    81 N    1.066
    83   6 C    3.984 --    84 C    1.459    82 C    1.361   181 H    0.966
                            86 C    0.105
    84   6 C    3.990 --    83 C    1.459    85 C    1.427   182 H    0.970
                            87 C    0.104
    85   6 C    3.977 --    86 C    1.433    84 C    1.427   183 H    0.971
    86   6 C    3.991 --    87 C    1.451    85 C    1.433   184 H    0.970
                            83 C    0.105
    87   6 C    3.984 --    86 C    1.451    82 C    1.357   185 H    0.961
                            84 C    0.104
    88   6 C    3.963 --    93 C    1.380    89 C    1.379    81 N    1.028
                            91 C    0.101
    89   6 C    3.988 --    90 C    1.453    88 C    1.379   186 H    0.968
                            92 C    0.107
    90   6 C    3.990 --    89 C    1.453    91 C    1.431   187 H    0.968
                            93 C    0.107
    91   6 C    3.985 --    92 C    1.434    90 C    1.431   188 H    0.969
                            88 C    0.101
    92   6 C    3.991 --    93 C    1.450    91 C    1.434   189 H    0.970
                            89 C    0.107
    93   6 C    3.987 --    92 C    1.450    88 C    1.380   190 H    0.963
                            90 C    0.107
    94   6 C    3.934 --   111 C    1.360    80 C    1.224    95 S    1.121
    95  16 S    2.508 --    94 C    1.121    96 C    1.054
    96   6 C    3.922 --   113 C    1.341    97 C    1.284    95 S    1.054
    97   6 C    3.950 --    96 C    1.284   111 C    1.232    98 N    1.189
    98   7 N    3.560 --    97 C    1.189   105 C    1.040    99 C    1.008
    99   6 C    3.955 --   104 C    1.381   100 C    1.380    98 N    1.008
                           102 C    0.100
   100   6 C    3.976 --   101 C    1.451    99 C    1.380   191 H    0.967
                           103 C    0.108
   101   6 C    3.989 --   100 C    1.451   102 C    1.432   192 H    0.968
                           104 C    0.108
   102   6 C    3.976 --   103 C    1.436   101 C    1.432   193 H    0.969
                            99 C    0.100
   103   6 C    3.988 --   104 C    1.446   102 C    1.436   194 H    0.965
                           100 C    0.108
   104   6 C    3.983 --   103 C    1.446    99 C    1.381   195 H    0.963
                           101 C    0.108
   105   6 C    3.963 --   106 C    1.372   110 C    1.368    98 N    1.040
   106   6 C    3.982 --   107 C    1.440   105 C    1.372   196 H    0.967
                           109 C    0.102
   107   6 C    3.990 --   108 C    1.443   106 C    1.440   197 H    0.969
                           110 C    0.108
   108   6 C    3.983 --   107 C    1.443   109 C    1.420   198 H    0.970
   109   6 C    3.989 --   110 C    1.462   108 C    1.420   199 H    0.969
                           106 C    0.102
   110   6 C    3.987 --   109 C    1.462   105 C    1.368   200 H    0.968
                           107 C    0.108
   111   6 C    3.936 --    94 C    1.360    97 C    1.232   112 S    1.110
   112  16 S    2.568 --   111 C    1.110    79 C    1.106
   113   6 C    3.952 --   114 C    1.438    96 C    1.341   201 H    0.949
   114   6 C    3.956 --   113 C    1.438   123 C    1.177   115 C    1.058
   115   6 C    3.926 --   116 O    1.682   114 C    1.058   117 C    1.022
   116   8 O    1.991 --   115 C    1.682
   117   6 C    3.974 --   118 C    1.387   122 C    1.311   115 C    1.022
   118   6 C    3.979 --   119 C    1.434   117 C    1.387   202 H    0.963
   119   6 C    3.955 --   118 C    1.434   120 C    1.330   135 C    0.993
   120   6 C    3.965 --   121 C    1.442   119 C    1.330   129 C    0.994
   121   6 C    3.977 --   120 C    1.442   122 C    1.372   203 H    0.960
   122   6 C    3.981 --   121 C    1.372   117 C    1.311   123 C    1.081
   123   6 C    3.970 --   124 C    1.437   114 C    1.177   122 C    1.081
   124   6 C    3.948 --   123 C    1.437   127 C    1.112   125 C    1.108
   125   6 C    3.940 --   126 N    2.738   124 C    1.108
   126   7 N    2.951 --   125 C    2.738
   127   6 C    3.939 --   128 N    2.737   124 C    1.112
   128   7 N    2.946 --   127 C    2.737
   129   6 C    3.984 --   120 C    0.994   135 C    0.975   204 H    0.960
                           130 C    0.951
   130   6 C    3.989 --   131 C    1.004   134 C    0.989   205 H    0.971
                           129 C    0.951
   131   6 C    3.981 --   132 C    1.924   130 C    1.004   206 H    0.970
   132   6 C    3.981 --   131 C    1.924   133 C    1.003   207 H    0.970
   133   6 C    3.988 --   132 C    1.003   134 C    0.989   208 H    0.970
                           135 C    0.950
   134   6 C    3.994 --   133 C    0.989   130 C    0.989   209 H    0.978
                           210 H    0.974
   135   6 C    3.982 --   119 C    0.993   129 C    0.975   211 H    0.960
                           133 C    0.950
   136   1 H    0.995 --     1 C    0.940
   137   1 H    0.995 --     6 C    0.960
   138   1 H    0.997 --     9 C    0.959
   139   1 H    0.995 --    17 C    0.957
   140   1 H    0.998 --    18 C    0.972
   141   1 H    0.999 --    19 C    0.972
   142   1 H    0.999 --    20 C    0.971
   143   1 H    0.998 --    21 C    0.971
   144   1 H    0.996 --    22 C    0.976
   145   1 H    0.997 --    22 C    0.977
   146   1 H    0.994 --    23 C    0.956
   147   1 H    0.992 --    28 C    0.948
   148   1 H    0.992 --    33 C    0.963
   149   1 H    0.997 --    33 C    0.969
   150   1 H    0.997 --    34 C    0.986
   151   1 H    0.996 --    34 C    0.985
   152   1 H    0.994 --    34 C    0.980
   153   1 H    0.997 --    41 C    0.966
   154   1 H    0.996 --    42 C    0.965
   155   1 H    0.993 --    45 C    0.974
   156   1 H    0.993 --    45 C    0.978
   157   1 H    0.994 --    45 C    0.978
   158   1 H    0.995 --    46 C    0.962
   159   1 H    0.996 --    47 C    0.965
   160   1 H    0.998 --    49 C    0.964
   161   1 H    0.997 --    50 C    0.966
   162   1 H    0.995 --    53 C    0.979
   163   1 H    0.995 --    53 C    0.982
   164   1 H    0.998 --    53 C    0.984
   165   1 H    0.996 --    54 C    0.965
   166   1 H    0.996 --    55 C    0.962
   167   1 H    0.998 --    62 C    0.963
   168   1 H    0.998 --    63 C    0.965
   169   1 H    0.996 --    66 C    0.977
   170   1 H    0.996 --    66 C    0.980
   171   1 H    0.995 --    66 C    0.978
   172   1 H    0.997 --    67 C    0.964
   173   1 H    0.998 --    68 C    0.964
   174   1 H    0.997 --    70 C    0.959
   175   1 H    0.996 --    71 C    0.966
   176   1 H    0.994 --    74 C    0.979
   177   1 H    0.994 --    74 C    0.975
   178   1 H    0.996 --    74 C    0.981
   179   1 H    0.997 --    75 C    0.963
   180   1 H    0.997 --    76 C    0.966
   181   1 H    0.998 --    83 C    0.966
   182   1 H    0.998 --    84 C    0.970
   183   1 H    0.998 --    85 C    0.971
   184   1 H    0.998 --    86 C    0.970
   185   1 H    0.999 --    87 C    0.961
   186   1 H    0.999 --    89 C    0.968
   187   1 H    0.997 --    90 C    0.968
   188   1 H    0.998 --    91 C    0.969
   189   1 H    0.998 --    92 C    0.970
   190   1 H    0.998 --    93 C    0.963
   191   1 H    0.998 --   100 C    0.967
   192   1 H    0.996 --   101 C    0.968
   193   1 H    0.997 --   102 C    0.969
   194   1 H    0.996 --   103 C    0.965
   195   1 H    0.998 --   104 C    0.963
   196   1 H    0.998 --   106 C    0.967
   197   1 H    0.997 --   107 C    0.969
   198   1 H    0.998 --   108 C    0.970
   199   1 H    0.997 --   109 C    0.969
   200   1 H    0.998 --   110 C    0.968
   201   1 H    0.994 --   113 C    0.949
   202   1 H    0.996 --   118 C    0.963
   203   1 H    0.997 --   121 C    0.960
   204   1 H    0.996 --   129 C    0.960
   205   1 H    0.998 --   130 C    0.971
   206   1 H    0.998 --   131 C    0.970
   207   1 H    0.998 --   132 C    0.970
   208   1 H    0.998 --   133 C    0.970
   209   1 H    0.998 --   134 C    0.978
   210   1 H    0.999 --   134 C    0.974
   211   1 H    0.995 --   135 C    0.960
 ---------------------------------------------------------------------------

Topologies differ in bond orders
Writing corrected topology to xtbtopo.mol

molecular dipole:
                 x           y           z       tot (Debye)
 q only:       -3.800       5.005      -0.162
   full:       -3.741       4.673      -0.757      15.336
molecular quadrupole (traceless):
                xx          xy          yy          xz          yz          zz
 q only:     -272.487      15.004     125.776      52.127      41.378     146.711
  q+dip:     -267.919       8.907     117.294      48.800      35.797     150.624
   full:     -271.200       7.973     116.189      50.788      36.283     155.011


           -------------------------------------------------
          | TOTAL ENERGY             -352.755446009148 Eh   |
          | GRADIENT NORM               0.044268974202 Eh/α |
          | HOMO-LUMO GAP               0.663816561706 eV   |
           -------------------------------------------------

------------------------------------------------------------------------
 * finished run on 2022/02/09 at 07:22:02.065     
------------------------------------------------------------------------
 total:
 * wall-time:     0 d,  0 h,  0 min,  0.904 sec
 *  cpu-time:     0 d,  0 h,  0 min,  7.123 sec
 * ratio c/w:     7.882 speedup
 SCF:
 * wall-time:     0 d,  0 h,  0 min,  0.805 sec
 *  cpu-time:     0 d,  0 h,  0 min,  6.420 sec
 * ratio c/w:     7.972 speedup

