      -----------------------------------------------------------      
     |                   =====================                   |     
     |                           x T B                           |     
     |                   =====================                   |     
     |                         S. Grimme                         |     
     |          Mulliken Center for Theoretical Chemistry        |     
     |                    University of Bonn                     |     
      -----------------------------------------------------------      

   * xtb version 6.4.1 (unknown) compiled by 'oda6@login1.crc.pitt.edu' on 2021-06-25

   xtb is free software: you can redistribute it and/or modify it under
   the terms of the GNU Lesser General Public License as published by
   the Free Software Foundation, either version 3 of the License, or
   (at your option) any later version.
   
   xtb is distributed in the hope that it will be useful,
   but WITHOUT ANY WARRANTY; without even the implied warranty of
   MERCHANTABILITY or FITNESS FOR A PARTICULAR PURPOSE.  See the
   GNU Lesser General Public License for more details.
   
   Cite this work as:
   * C. Bannwarth, E. Caldeweyher, S. Ehlert, A. Hansen, P. Pracht,
     J. Seibert, S. Spicher, S. Grimme, WIREs Comput. Mol. Sci., 2020, 11,
     e01493. DOI: 10.1002/wcms.1493
   
   for GFN2-xTB:
   * C. Bannwarth, S. Ehlert and S. Grimme., J. Chem. Theory Comput., 2019,
     15, 1652-1671. DOI: 10.1021/acs.jctc.8b01176
   for GFN1-xTB:
   * S. Grimme, C. Bannwarth, P. Shushkov, J. Chem. Theory Comput., 2017,
     13, 1989-2009. DOI: 10.1021/acs.jctc.7b00118
   for GFN0-xTB:
   * P. Pracht, E. Caldeweyher, S. Ehlert, S. Grimme, ChemRxiv, 2019, preprint.
     DOI: 10.26434/chemrxiv.8326202.v1
   for GFN-FF:
   * S. Spicher and S. Grimme, Angew. Chem. Int. Ed., 2020, 59, 15665-15673.
     DOI: 10.1002/anie.202004239
   
   for DFT-D4:
   * E. Caldeweyher, C. Bannwarth and S. Grimme, J. Chem. Phys., 2017,
     147, 034112. DOI: 10.1063/1.4993215
   * E. Caldeweyher, S. Ehlert, A. Hansen, H. Neugebauer, S. Spicher,
     C. Bannwarth and S. Grimme, J. Chem. Phys., 2019, 150, 154122.
     DOI: 10.1063/1.5090222
   * E. Caldeweyher, J.-M. Mewes, S. Ehlert and S. Grimme, Phys. Chem. Chem. Phys.
     2020, 22, 8499-8512. DOI: 10.1039/D0CP00502A
   
   for sTDA-xTB:
   * S. Grimme and C. Bannwarth, J. Chem. Phys., 2016, 145, 054103.
     DOI: 10.1063/1.4959605
   
   in the mass-spec context:
   * V. Asgeirsson, C. Bauer and S. Grimme, Chem. Sci., 2017, 8, 4879.
     DOI: 10.1039/c7sc00601b
   * J. Koopman and S. Grimme, ACS Omega 2019, 4, 12, 15120-15133.
     DOI: 10.1021/acsomega.9b02011
   
   for metadynamics refer to:
   * S. Grimme, J. Chem. Theory Comput., 2019, 155, 2847-2862
     DOI: 10.1021/acs.jctc.9b00143
   
   for SPH calculations refer to:
   * S. Spicher and S. Grimme, J. Chem. Theory Comput., 2021, 17, 1701-1714
     DOI: 10.1021/acs.jctc.0c01306
   
   with help from (in alphabetical order)
   P. Atkinson, C. Bannwarth, F. Bohle, G. Brandenburg, E. Caldeweyher
   M. Checinski, S. Dohm, S. Ehlert, S. Ehrlich, I. Gerasimov, J. Koopman
   C. Lavigne, S. Lehtola, F. März, M. Müller, F. Musil, H. Neugebauer
   J. Pisarek, C. Plett, P. Pracht, J. Seibert, P. Shushkov, S. Spicher
   M. Stahn, M. Steiner, T. Strunk, J. Stückrath, T. Rose, and J. Unsleber
   
 * started run on 2022/02/08 at 20:18:26.386     

           -------------------------------------------------
          |                Calculation Setup                |
           -------------------------------------------------

          program call               : /ihome/ghutchison/oda6/xtb/xtb-641/bin/xtb ../../GFN2_output/39_153_111_130_39.mol --sp --alpb water
          hostname                   : smp-n26
          coordinate file            : ../../GFN2_output/39_153_111_130_39.mol
          omp threads                :                     8
          number of atoms            :                   174
          number of electrons        :                   542
          charge                     :                     0
          spin                       :                   0.0
          first test random number   :      0.65191488918511

   ID    Z sym.   atoms
    1    6 C      1-3, 5-13, 15, 17-24, 26-28, 30-33, 35-39, 41-43, 45, 46,
                  48, 49, 51-54, 56-62, 64-67, 69, 70, 72-75, 77-83, 85-88,
                  90-92, 94-102, 104, 106-112
    2    8 O      4, 29, 40, 93
    3    7 N      14, 16, 44, 47, 50, 71, 103, 105
    4   16 S      25, 34, 55, 63, 68, 76, 84, 89
    5    1 H      113-174

           -------------------------------------------------
          |                 G F N 2 - x T B                 |
           -------------------------------------------------

        Reference                      10.1021/acs.jctc.8b01176
      * Hamiltonian:
        H0-scaling (s, p, d)           1.850000    2.230000    2.230000
        zeta-weighting                 0.500000
      * Dispersion:
        s8                             2.700000
        a1                             0.520000
        a2                             5.000000
        s9                             5.000000
      * Repulsion:
        kExp                           1.500000    1.000000
        rExp                           1.000000
      * Coulomb:
        alpha                          2.000000
        third order                    shell-resolved
        anisotropic                    true
        a3                             3.000000
        a5                             4.000000
        cn-shift                       1.200000
        cn-exp                         4.000000
        max-rad                        5.000000

      * Solvation model:               ALPB
        Solvent                        water
        Parameter file                 internal GFN2-xTB/ALPB
        Dielectric constant                8.0200E+01
        Reference state                gsolv [1 M gas/solution]
        Free energy shift                  1.0808E-03 Eh       6.7819E-01 kcal/mol
        Temperature                        2.9815E+02 K
        Density                            1.0000E+00 kg/L
        Solvent mass                       1.8000E+01 g/mol
        Interaction kernel             P16
        Born radius scaling (c1)           1.4744E+00
        Born radii integrator          GBOBC
        Born offset                        0.0000E+00 a0       0.0000E+00 AA
        H-bond correction              true
        Ion screening                  false
        Surface tension                    1.0000E-05 Eh       1.5569E+01 dyn/cm
        Grid points                               230 per atom

          ...................................................
          :                      SETUP                      :
          :.................................................:
          :  # basis functions                 558          :
          :  # atomic orbitals                 550          :
          :  # shells                          294          :
          :  # electrons                       542          :
          :  max. iterations                   250          :
          :  Hamiltonian                  GFN2-xTB          :
          :  restarted?                      false          :
          :  GBSA solvation                   true          :
          :  PC potential                    false          :
          :  electronic temp.          300.0000000     K    :
          :  accuracy                    1.0000000          :
          :  -> integral cutoff          0.2500000E+02      :
          :  -> integral neglect         0.1000000E-07      :
          :  -> SCF convergence          0.1000000E-05 Eh   :
          :  -> wf. convergence          0.1000000E-03 e    :
          :  Broyden damping             0.4000000          :
          ...................................................

 iter      E             dE          RMSdq      gap      omega  full diag
   1   -298.5005750 -0.298501E+03  0.465E+00    0.33       0.0  T
   2   -298.7197890 -0.219214E+00  0.270E+00    0.62       1.0  T
   3   -298.5816806  0.138108E+00  0.140E+00    0.28       1.0  T
   4   -298.7836523 -0.201972E+00  0.484E-01    0.39       1.0  T
   5   -298.8080635 -0.244112E-01  0.160E-01    0.35       1.0  T
   6   -298.8087248 -0.661347E-03  0.777E-02    0.36       1.0  T
   7   -298.8091595 -0.434676E-03  0.298E-02    0.37       1.0  T
   8   -298.8092201 -0.605394E-04  0.153E-02    0.37       1.0  T
   9   -298.8092294 -0.932960E-05  0.753E-03    0.37       1.0  T
  10   -298.8092313 -0.191438E-05  0.365E-03    0.37       2.1  T
  11   -298.8092321 -0.826304E-06  0.180E-03    0.37       4.2  T
  12   -298.8092322 -0.424336E-07  0.108E-03    0.37       7.0  T
  13   -298.8092322 -0.684653E-07  0.456E-04    0.37      16.6  T
  14   -298.8092322 -0.121322E-07  0.221E-04    0.37      34.3  T

   *** convergence criteria satisfied after 14 iterations ***

         #    Occupation            Energy/Eh            Energy/eV
      -------------------------------------------------------------
         1        2.0000           -0.7574303             -20.6107
       ...           ...                  ...                  ...
       265        2.0000           -0.3870304             -10.5316
       266        2.0000           -0.3794039             -10.3241
       267        2.0000           -0.3759708             -10.2307
       268        2.0000           -0.3687455             -10.0341
       269        2.0000           -0.3676810             -10.0051
       270        1.9996           -0.3578414              -9.7374
       271        1.9986           -0.3566605              -9.7052 (HOMO)
       272        0.0018           -0.3431205              -9.3368 (LUMO)
       273                         -0.3307754              -9.0009
       274                         -0.3295938              -8.9687
       275                         -0.3226444              -8.7796
       276                         -0.3146734              -8.5627
       ...                                ...                  ...
       550                          1.1521512              31.3516
      -------------------------------------------------------------
                  HL-Gap            0.0135400 Eh            0.3684 eV
             Fermi-level           -0.3497699 Eh           -9.5177 eV

 SCC (total)                   0 d,  0 h,  0 min,  0.541 sec
 SCC setup                      ...        0 min,  0.006 sec (  1.152%)
 Dispersion                     ...        0 min,  0.007 sec (  1.218%)
 classical contributions        ...        0 min,  0.000 sec (  0.053%)
 integral evaluation            ...        0 min,  0.027 sec (  5.072%)
 iterations                     ...        0 min,  0.412 sec ( 76.081%)
 molecular gradient             ...        0 min,  0.086 sec ( 15.942%)
 printout                       ...        0 min,  0.003 sec (  0.467%)

         :::::::::::::::::::::::::::::::::::::::::::::::::::::
         ::                     SUMMARY                     ::
         :::::::::::::::::::::::::::::::::::::::::::::::::::::
         :: total energy            -294.110741122218 Eh    ::
         :: total w/o Gsasa/hb      -294.090678965761 Eh    ::
         :: gradient norm              0.037718986786 Eh/a0 ::
         :: HOMO-LUMO gap              0.368443489232 eV    ::
         ::.................................................::
         :: SCC energy              -298.809232243937 Eh    ::
         :: -> isotropic ES            0.218357629441 Eh    ::
         :: -> anisotropic ES          0.007072376519 Eh    ::
         :: -> anisotropic XC          0.191349175244 Eh    ::
         :: -> dispersion             -0.307807445021 Eh    ::
         :: -> Gsolv                  -0.062944270818 Eh    ::
         ::    -> Gelec               -0.042882114360 Eh    ::
         ::    -> Gsasa               -0.014471072929 Eh    ::
         ::    -> Ghb                 -0.006671843226 Eh    ::
         ::    -> Gshift               0.001080759698 Eh    ::
         :: repulsion energy           4.693791401287 Eh    ::
         :: add. restraining           0.000000000000 Eh    ::
         :: total charge               0.000000000001 e     ::
         :::::::::::::::::::::::::::::::::::::::::::::::::::::

           -------------------------------------------------
          |                Property Printout                |
           -------------------------------------------------

    * Orbital Energies and Occupations

         #    Occupation            Energy/Eh            Energy/eV
      -------------------------------------------------------------
         1        2.0000           -0.7574303             -20.6107
       ...           ...                  ...                  ...
       259        2.0000           -0.4057010             -11.0397
       260        2.0000           -0.4050895             -11.0230
       261        2.0000           -0.4028072             -10.9609
       262        2.0000           -0.3941933             -10.7265
       263        2.0000           -0.3929154             -10.6918
       264        2.0000           -0.3917824             -10.6609
       265        2.0000           -0.3870304             -10.5316
       266        2.0000           -0.3794039             -10.3241
       267        2.0000           -0.3759708             -10.2307
       268        2.0000           -0.3687455             -10.0341
       269        2.0000           -0.3676810             -10.0051
       270        1.9996           -0.3578414              -9.7374
       271        1.9986           -0.3566605              -9.7052 (HOMO)
       272        0.0018           -0.3431205              -9.3368 (LUMO)
       273                         -0.3307754              -9.0009
       274                         -0.3295938              -8.9687
       275                         -0.3226444              -8.7796
       276                         -0.3146734              -8.5627
       277                         -0.2916083              -7.9351
       278                         -0.2856787              -7.7737
       279                         -0.2736907              -7.4475
       280                         -0.2686564              -7.3105
       281                         -0.2558282              -6.9614
       282                         -0.2540244              -6.9124
       ...                                ...                  ...
       550                          1.1521512              31.3516
      -------------------------------------------------------------
                  HL-Gap            0.0135400 Eh            0.3684 eV
             Fermi-level           -0.3497699 Eh           -9.5177 eV

     #   Z          covCN         q      C6AA      α(0)
     1   6 C        2.922    -0.010    28.268     8.719
     2   6 C        3.007    -0.028    28.691     8.787
     3   6 C        2.873     0.231    23.170     7.891
     4   8 O        0.908    -0.405    21.754     6.255
     5   6 C        3.062    -0.019    28.423     8.743
     6   6 C        2.904    -0.023    28.577     8.765
     7   6 C        3.261     0.018    26.451     8.309
     8   6 C        3.256     0.019    26.487     8.322
     9   6 C        2.904    -0.031    28.763     8.794
    10   6 C        3.048     0.007    27.814     8.650
    11   6 C        3.024     0.039    27.094     8.538
    12   6 C        2.947     0.009    27.828     8.652
    13   6 C        1.938     0.133    27.847     8.522
    14   7 N        0.911    -0.277    27.149     7.536
    15   6 C        1.939     0.137    27.746     8.506
    16   7 N        0.911    -0.270    26.996     7.515
    17   6 C        4.164    -0.028    20.989     6.507
    18   6 C        4.011    -0.016    20.788     6.477
    19   6 C        2.987    -0.043    29.050     8.841
    20   6 C        2.987    -0.043    29.065     8.844
    21   6 C        4.012    -0.017    20.792     6.478
    22   6 C        3.926    -0.066    21.707     6.621
    23   6 C        4.161    -0.028    20.988     6.507
    24   6 C        2.978     0.036    27.179     8.552
    25  16 S        2.366     0.076   138.005    19.772
    26   6 C        2.994     0.022    27.513     8.604
    27   6 C        3.136    -0.024    28.384     8.720
    28   6 C        2.822     0.239    23.021     7.862
    29   8 O        0.857    -0.421    22.115     6.305
    30   6 C        3.166    -0.047    28.790     8.768
    31   6 C        2.981     0.041    27.082     8.536
    32   6 C        3.825    -0.060    21.633     6.618
    33   6 C        3.754    -0.109    22.645     6.785
    34  16 S        2.351     0.046   139.174    19.856
    35   6 C        2.981     0.041    27.068     8.534
    36   6 C        3.827    -0.060    21.634     6.618
    37   6 C        3.755    -0.109    22.634     6.784
    38   6 C        3.166    -0.046    28.776     8.766
    39   6 C        2.822     0.233    23.118     7.878
    40   8 O        0.857    -0.440    22.497     6.359
    41   6 C        3.145    -0.026    28.377     8.716
    42   6 C        2.997     0.077    26.278     8.409
    43   6 C        2.900     0.047    26.940     8.510
    44   7 N        1.853    -0.228    26.834     7.678
    45   6 C        2.985     0.082    26.166     8.391
    46   6 C        2.900     0.049    26.896     8.503
    47   7 N        1.851    -0.213    26.479     7.627
    48   6 C        3.000    -0.007    28.171     8.707
    49   6 C        3.059     0.058    26.640     8.464
    50   7 N        2.749    -0.039    22.003     6.967
    51   6 C        2.935     0.059    26.672     8.470
    52   6 C        2.922    -0.043    29.061     8.840
    53   6 C        2.952    -0.038    28.941     8.824
    54   6 C        2.967     0.053    26.808     8.493
    55  16 S        2.029    -0.190   149.126    20.553
    56   6 C        3.744    -0.056    21.663     6.640
    57   6 C        2.972    -0.035    28.877     8.815
    58   6 C        2.925    -0.041    29.013     8.833
    59   6 C        2.922     0.065    26.553     8.450
    60   6 C        2.924    -0.042    29.054     8.839
    61   6 C        2.941    -0.045    29.110     8.849
    62   6 C        2.966     0.044    26.999     8.523
    63  16 S        2.036    -0.202   149.663    20.590
    64   6 C        3.744    -0.057    21.676     6.642
    65   6 C        2.986    -0.038    28.932     8.823
    66   6 C        2.922    -0.045    29.107     8.847
    67   6 C        3.165    -0.001    27.709     8.602
    68  16 S        2.317    -0.025   142.082    20.062
    69   6 C        2.985     0.006    27.879     8.661
    70   6 C        3.044     0.057    26.679     8.472
    71   7 N        2.748    -0.038    21.969     6.961
    72   6 C        2.938     0.056    26.746     8.482
    73   6 C        2.925    -0.042    29.034     8.836
    74   6 C        2.945    -0.043    29.060     8.841
    75   6 C        2.966     0.051    26.854     8.500
    76  16 S        2.034    -0.171   148.275    20.495
    77   6 C        3.744    -0.062    21.772     6.656
    78   6 C        2.982    -0.040    28.995     8.833
    79   6 C        2.920    -0.040    28.991     8.830
    80   6 C        2.920     0.056    26.748     8.481
    81   6 C        2.922    -0.049    29.228     8.866
    82   6 C        2.944    -0.045    29.128     8.852
    83   6 C        2.965     0.045    26.990     8.521
    84  16 S        2.034    -0.187   148.979    20.543
    85   6 C        3.744    -0.059    21.715     6.647
    86   6 C        2.983    -0.036    28.891     8.817
    87   6 C        2.922    -0.038    28.944     8.823
    88   6 C        3.156     0.007    27.566     8.585
    89  16 S        2.247    -0.055   143.316    20.149
    90   6 C        2.923    -0.017    28.434     8.744
    91   6 C        3.008    -0.044    29.080     8.846
    92   6 C        2.876     0.228    23.215     7.899
    93   8 O        0.952    -0.414    21.921     6.280
    94   6 C        3.062    -0.023    28.516     8.757
    95   6 C        2.904    -0.022    28.543     8.760
    96   6 C        3.262     0.014    26.519     8.318
    97   6 C        3.257     0.014    26.583     8.336
    98   6 C        2.904    -0.034    28.837     8.805
    99   6 C        3.051     0.003    27.914     8.665
   100   6 C        3.025     0.033    27.243     8.562
   101   6 C        2.947    -0.007    28.183     8.707
   102   6 C        1.943     0.132    27.848     8.522
   103   7 N        0.911    -0.290    27.469     7.580
   104   6 C        1.942     0.126    27.999     8.545
   105   7 N        0.911    -0.294    27.566     7.594
   106   6 C        4.164    -0.028    20.979     6.505
   107   6 C        4.012    -0.016    20.786     6.477
   108   6 C        2.988    -0.042    29.041     8.840
   109   6 C        2.988    -0.042    29.047     8.841
   110   6 C        4.012    -0.016    20.787     6.477
   111   6 C        3.927    -0.066    21.693     6.619
   112   6 C        4.162    -0.027    20.975     6.505
   113   1 H        0.925     0.089     1.886     2.147
   114   1 H        0.926     0.074     2.043     2.235
   115   1 H        0.926     0.061     2.192     2.315
   116   1 H        0.925     0.065     2.139     2.287
   117   1 H        0.925     0.046     2.374     2.410
   118   1 H        0.926     0.029     2.595     2.519
   119   1 H        0.926     0.032     2.557     2.501
   120   1 H        0.925     0.048     2.347     2.396
   121   1 H        0.925     0.052     2.296     2.369
   122   1 H        0.925     0.050     2.317     2.380
   123   1 H        0.925     0.067     2.118     2.276
   124   1 H        0.924     0.071     2.077     2.254
   125   1 H        0.924     0.068     2.103     2.268
   126   1 H        0.925     0.045     2.378     2.411
   127   1 H        0.925     0.059     2.205     2.322
   128   1 H        0.925     0.054     2.275     2.359
   129   1 H        0.924     0.070     2.087     2.259
   130   1 H        0.924     0.068     2.104     2.268
   131   1 H        0.925     0.060     2.199     2.319
   132   1 H        0.925     0.044     2.395     2.420
   133   1 H        0.925     0.054     2.274     2.358
   134   1 H        0.926     0.057     2.233     2.337
   135   1 H        0.926     0.059     2.212     2.326
   136   1 H        0.926     0.050     2.321     2.383
   137   1 H        0.926     0.057     2.239     2.340
   138   1 H        0.925     0.067     2.124     2.279
   139   1 H        0.925     0.065     2.143     2.289
   140   1 H        0.925     0.076     2.018     2.222
   141   1 H        0.926     0.055     2.260     2.351
   142   1 H        0.926     0.050     2.322     2.383
   143   1 H        0.926     0.063     2.167     2.302
   144   1 H        0.926     0.063     2.160     2.298
   145   1 H        0.925     0.082     1.955     2.186
   146   1 H        0.925     0.074     2.038     2.232
   147   1 H        0.925     0.068     2.113     2.273
   148   1 H        0.926     0.038     2.477     2.461
   149   1 H        0.926     0.036     2.505     2.475
   150   1 H        0.926     0.045     2.380     2.413
   151   1 H        0.926     0.060     2.196     2.317
   152   1 H        0.925     0.083     1.945     2.181
   153   1 H        0.925     0.068     2.104     2.268
   154   1 H        0.925     0.073     2.056     2.243
   155   1 H        0.926     0.061     2.183     2.311
   156   1 H        0.926     0.055     2.255     2.348
   157   1 H        0.926     0.042     2.422     2.434
   158   1 H        0.926     0.053     2.283     2.363
   159   1 H        0.925     0.077     2.015     2.220
   160   1 H        0.925     0.055     2.260     2.351
   161   1 H        0.925     0.085     1.925     2.170
   162   1 H        0.926     0.057     2.228     2.334
   163   1 H        0.926     0.060     2.200     2.319
   164   1 H        0.925     0.061     2.184     2.311
   165   1 H        0.926     0.067     2.118     2.276
   166   1 H        0.926     0.053     2.281     2.362
   167   1 H        0.925     0.060     2.195     2.317
   168   1 H        0.925     0.043     2.411     2.428
   169   1 H        0.926     0.028     2.620     2.531
   170   1 H        0.926     0.031     2.578     2.511
   171   1 H        0.925     0.046     2.372     2.409
   172   1 H        0.925     0.050     2.317     2.380
   173   1 H        0.925     0.048     2.340     2.392
   174   1 H        0.925     0.063     2.167     2.302

 Mol. C6AA /au·bohr⁶  :     518168.521281
 Mol. C8AA /au·bohr⁸  :   14494659.426450
 Mol. α(0) /au        :       1147.495080


Wiberg/Mayer (AO) data.
largest (>0.10) Wiberg bond orders for each atom

 ---------------------------------------------------------------------------
     #   Z sym  total        # sym  WBO       # sym  WBO       # sym  WBO
 ---------------------------------------------------------------------------
     1   6 C    3.940 --     2 C    1.539    24 C    1.260   113 H    0.927
     2   6 C    3.955 --     1 C    1.539    11 C    1.121     3 C    1.048
     3   6 C    3.911 --     4 O    1.684     2 C    1.048     5 C    1.042
     4   8 O    2.071 --     3 C    1.684    25 S    0.100
     5   6 C    3.968 --     6 C    1.376    10 C    1.292     3 C    1.042
     6   6 C    3.978 --     7 C    1.441     5 C    1.376   114 H    0.961
     7   6 C    3.950 --     6 C    1.441     8 C    1.318    23 C    0.998
     8   6 C    3.960 --     9 C    1.446     7 C    1.318    17 C    1.000
     9   6 C    3.978 --     8 C    1.446    10 C    1.366   115 H    0.959
    10   6 C    3.973 --     9 C    1.366     5 C    1.292    11 C    1.095
    11   6 C    3.970 --    12 C    1.486     2 C    1.121    10 C    1.095
    12   6 C    3.951 --    11 C    1.486    15 C    1.099    13 C    1.096
    13   6 C    3.941 --    14 N    2.753    12 C    1.096
    14   7 N    2.957 --    13 C    2.753
    15   6 C    3.942 --    16 N    2.756    12 C    1.099
    16   7 N    2.962 --    15 C    2.756
    17   6 C    3.982 --     8 C    1.000    23 C    0.977   116 H    0.956
                            18 C    0.944
    18   6 C    3.987 --    19 C    1.010    22 C    0.985   117 H    0.971
                            17 C    0.944
    19   6 C    3.987 --    20 C    1.924    18 C    1.010   118 H    0.972
    20   6 C    3.987 --    19 C    1.924    21 C    1.010   119 H    0.971
    21   6 C    3.987 --    20 C    1.010    22 C    0.985   120 H    0.971
                            23 C    0.945
    22   6 C    3.991 --    21 C    0.985    18 C    0.985   121 H    0.976
                           122 H    0.975
    23   6 C    3.981 --     7 C    0.998    17 C    0.977   123 H    0.955
                            21 C    0.945
    24   6 C    3.938 --    41 C    1.348     1 C    1.260    25 S    1.137
    25  16 S    2.770 --    26 C    1.192    24 C    1.137     4 O    0.100
    26   6 C    3.933 --    27 C    1.385    25 S    1.192    42 C    1.131
    27   6 C    3.960 --    26 C    1.385    41 C    1.286    28 C    1.028
    28   6 C    3.931 --    29 O    1.720    30 C    1.056    27 C    1.028
    29   8 O    2.013 --    28 C    1.720
    30   6 C    3.980 --    31 C    1.518    38 C    1.169    28 C    1.056
    31   6 C    3.946 --    30 C    1.518    34 S    1.170    32 C    1.036
    32   6 C    3.988 --    31 C    1.036    33 C    0.986   124 H    0.967
                           125 H    0.957
    33   6 C    3.987 --   126 H    0.987   128 H    0.987    32 C    0.986
                           127 H    0.982
    34  16 S    2.651 --    35 C    1.183    31 C    1.170
    35   6 C    3.948 --    38 C    1.502    34 S    1.183    36 C    1.039
    36   6 C    3.988 --    35 C    1.039    37 C    0.984   129 H    0.967
                           130 H    0.956
    37   6 C    3.988 --   132 H    0.987   133 H    0.987    36 C    0.984
                           131 H    0.982
    38   6 C    3.978 --    35 C    1.502    30 C    1.169    39 C    1.069
    39   6 C    3.934 --    40 O    1.689    38 C    1.069    41 C    1.042
    40   8 O    2.006 --    39 C    1.689
    41   6 C    3.958 --    24 C    1.348    27 C    1.286    39 C    1.042
    42   6 C    3.958 --    47 N    1.335    43 C    1.277    26 C    1.131
    43   6 C    3.965 --    44 N    1.510    42 C    1.277   134 H    0.953
    44   7 N    3.105 --    43 C    1.510    45 C    1.326
    45   6 C    3.956 --    44 N    1.326    46 C    1.249    48 C    1.169
    46   6 C    3.960 --    47 N    1.537    45 C    1.249   135 H    0.954
    47   7 N    3.118 --    46 C    1.537    42 C    1.335
    48   6 C    3.888 --    49 C    1.373    45 C    1.169    89 S    1.088
    49   6 C    3.951 --    48 C    1.373    67 C    1.214    50 N    1.129
    50   7 N    3.513 --    49 C    1.129    59 C    1.058    51 C    1.030
    51   6 C    3.958 --    52 C    1.370    58 C    1.358    50 N    1.030
    52   6 C    3.979 --    53 C    1.459    51 C    1.370   136 H    0.966
                            57 C    0.101
    53   6 C    3.987 --    52 C    1.459    54 C    1.387   137 H    0.964
    54   6 C    3.953 --    53 C    1.387    57 C    1.383    55 S    1.039
    55  16 S    2.210 --    54 C    1.039    56 C    1.002
    56   6 C    3.968 --    55 S    1.002   139 H    0.981   138 H    0.980
                           140 H    0.976
    57   6 C    3.987 --    58 C    1.464    54 C    1.383   141 H    0.967
                            52 C    0.101
    58   6 C    3.982 --    57 C    1.464    51 C    1.358   142 H    0.966
    59   6 C    3.963 --    60 C    1.363    66 C    1.340    50 N    1.058
    60   6 C    3.979 --    61 C    1.455    59 C    1.363   143 H    0.964
    61   6 C    3.986 --    60 C    1.455    62 C    1.384   144 H    0.962
    62   6 C    3.955 --    61 C    1.384    65 C    1.357    63 S    1.050
    63  16 S    2.271 --    62 C    1.050    64 C    1.008
    64   6 C    3.964 --    63 S    1.008   145 H    0.976   147 H    0.976
                           146 H    0.970
    65   6 C    3.988 --    66 C    1.487    62 C    1.357   148 H    0.967
    66   6 C    3.986 --    65 C    1.487    59 C    1.340   149 H    0.966
    67   6 C    3.940 --    88 C    1.357    49 C    1.214    68 S    1.134
    68  16 S    2.688 --    67 C    1.134    69 C    1.077    93 O    0.120
    69   6 C    3.922 --    90 C    1.337    70 C    1.275    68 S    1.077
    70   6 C    3.941 --    69 C    1.275    88 C    1.252    71 N    1.159
    71   7 N    3.537 --    70 C    1.159    80 C    1.046    72 C    1.027
    72   6 C    3.954 --    73 C    1.366    79 C    1.357    71 N    1.027
    73   6 C    3.980 --    74 C    1.456    72 C    1.366   150 H    0.966
    74   6 C    3.985 --    73 C    1.456    75 C    1.381   151 H    0.963
    75   6 C    3.951 --    74 C    1.381    78 C    1.364    76 S    1.063
    76  16 S    2.263 --    75 C    1.063    77 C    1.006
    77   6 C    3.966 --    76 S    1.006   153 H    0.980   154 H    0.979
                           152 H    0.974
    78   6 C    3.987 --    79 C    1.478    75 C    1.364   155 H    0.966
    79   6 C    3.975 --    78 C    1.478    72 C    1.357   156 H    0.965
    80   6 C    3.959 --    81 C    1.359    87 C    1.354    71 N    1.046
    81   6 C    3.985 --    82 C    1.463    80 C    1.359   157 H    0.967
                            86 C    0.101
    82   6 C    3.986 --    81 C    1.463    83 C    1.376   158 H    0.964
    83   6 C    3.957 --    82 C    1.376    86 C    1.373    84 S    1.053
    84  16 S    2.252 --    83 C    1.053    85 C    1.006
    85   6 C    3.967 --    84 S    1.006   160 H    0.982   159 H    0.978
                           161 H    0.974
    86   6 C    3.989 --    87 C    1.469    83 C    1.373   162 H    0.966
                            81 C    0.101
    87   6 C    3.980 --    86 C    1.469    80 C    1.354   163 H    0.964
    88   6 C    3.931 --    67 C    1.357    70 C    1.252    89 S    1.101
    89  16 S    2.526 --    88 C    1.101    48 C    1.088
    90   6 C    3.948 --    91 C    1.463    69 C    1.337   164 H    0.932
    91   6 C    3.950 --    90 C    1.463   100 C    1.157    92 C    1.068
    92   6 C    3.908 --    93 O    1.673    91 C    1.068    94 C    1.034
    93   8 O    2.064 --    92 C    1.673    68 S    0.120
    94   6 C    3.968 --    95 C    1.383    99 C    1.301    92 C    1.034
    95   6 C    3.978 --    96 C    1.436    94 C    1.383   165 H    0.961
    96   6 C    3.952 --    95 C    1.436    97 C    1.327   112 C    0.997
    97   6 C    3.963 --    98 C    1.442    96 C    1.327   106 C    0.999
    98   6 C    3.975 --    97 C    1.442    99 C    1.371   166 H    0.959
    99   6 C    3.975 --    98 C    1.371    94 C    1.301   100 C    1.087
   100   6 C    3.969 --   101 C    1.444    91 C    1.157    99 C    1.087
   101   6 C    3.948 --   100 C    1.444   104 C    1.109   102 C    1.109
   102   6 C    3.939 --   103 N    2.739   101 C    1.109
   103   7 N    2.950 --   102 C    2.739
   104   6 C    3.941 --   105 N    2.727   101 C    1.109
   105   7 N    2.952 --   104 C    2.727
   106   6 C    3.983 --    97 C    0.999   112 C    0.977   167 H    0.957
                           107 C    0.946
   107   6 C    3.989 --   108 C    1.011   111 C    0.985   168 H    0.972
                           106 C    0.946
   108   6 C    3.987 --   109 C    1.924   107 C    1.011   169 H    0.972
   109   6 C    3.987 --   108 C    1.924   110 C    1.010   170 H    0.971
   110   6 C    3.987 --   109 C    1.010   111 C    0.985   171 H    0.971
                           112 C    0.946
   111   6 C    3.991 --   110 C    0.985   107 C    0.985   172 H    0.977
                           173 H    0.976
   112   6 C    3.982 --    96 C    0.997   106 C    0.977   174 H    0.957
                           110 C    0.946
   113   1 H    0.991 --     1 C    0.927
   114   1 H    0.994 --     6 C    0.961
   115   1 H    0.996 --     9 C    0.959
   116   1 H    0.994 --    17 C    0.956
   117   1 H    0.998 --    18 C    0.971
   118   1 H    0.999 --    19 C    0.972
   119   1 H    0.999 --    20 C    0.971
   120   1 H    0.997 --    21 C    0.971
   121   1 H    0.997 --    22 C    0.976
   122   1 H    0.995 --    22 C    0.975
   123   1 H    0.993 --    23 C    0.955
   124   1 H    0.994 --    32 C    0.967
   125   1 H    0.995 --    32 C    0.957
   126   1 H    0.998 --    33 C    0.987
   127   1 H    0.996 --    33 C    0.982
   128   1 H    0.997 --    33 C    0.987
   129   1 H    0.994 --    36 C    0.967
   130   1 H    0.995 --    36 C    0.956
   131   1 H    0.996 --    37 C    0.982
   132   1 H    0.998 --    37 C    0.987
   133   1 H    0.997 --    37 C    0.987
   134   1 H    0.996 --    43 C    0.953
   135   1 H    0.996 --    46 C    0.954
   136   1 H    0.997 --    52 C    0.966
   137   1 H    0.996 --    53 C    0.964
   138   1 H    0.995 --    56 C    0.980
   139   1 H    0.995 --    56 C    0.981
   140   1 H    0.993 --    56 C    0.976
   141   1 H    0.996 --    57 C    0.967
   142   1 H    0.997 --    58 C    0.966
   143   1 H    0.996 --    60 C    0.964
   144   1 H    0.995 --    61 C    0.962
   145   1 H    0.993 --    64 C    0.976
   146   1 H    0.994 --    64 C    0.970
   147   1 H    0.995 --    64 C    0.976
   148   1 H    0.998 --    65 C    0.967
   149   1 H    0.998 --    66 C    0.966
   150   1 H    0.998 --    73 C    0.966
   151   1 H    0.996 --    74 C    0.963
   152   1 H    0.993 --    77 C    0.974
   153   1 H    0.995 --    77 C    0.980
   154   1 H    0.994 --    77 C    0.979
   155   1 H    0.996 --    78 C    0.966
   156   1 H    0.996 --    79 C    0.965
   157   1 H    0.998 --    81 C    0.967
   158   1 H    0.997 --    82 C    0.964
   159   1 H    0.993 --    85 C    0.978
   160   1 H    0.997 --    85 C    0.982
   161   1 H    0.992 --    85 C    0.974
   162   1 H    0.996 --    86 C    0.966
   163   1 H    0.996 --    87 C    0.964
   164   1 H    0.995 --    90 C    0.932
   165   1 H    0.995 --    95 C    0.961
   166   1 H    0.997 --    98 C    0.959
   167   1 H    0.995 --   106 C    0.957
   168   1 H    0.998 --   107 C    0.972
   169   1 H    0.999 --   108 C    0.972
   170   1 H    0.999 --   109 C    0.971
   171   1 H    0.998 --   110 C    0.971
   172   1 H    0.997 --   111 C    0.977
   173   1 H    0.995 --   111 C    0.976
   174   1 H    0.994 --   112 C    0.957
 ---------------------------------------------------------------------------

Topologies differ in bond orders
Writing corrected topology to xtbtopo.mol

molecular dipole:
                 x           y           z       tot (Debye)
 q only:       -0.839      -1.383       3.919
   full:       -0.655      -1.518       4.830      12.975
molecular quadrupole (traceless):
                xx          xy          yy          xz          yz          zz
 q only:        9.570       9.288    -100.762     -33.724     -40.918      91.192
  q+dip:       30.505      -2.171    -106.100     -29.231     -44.144      75.595
   full:       39.128     -14.922    -106.505     -23.878     -45.283      67.377


           -------------------------------------------------
          | TOTAL ENERGY             -294.110741122218 Eh   |
          | GRADIENT NORM               0.037718986786 Eh/α |
          | HOMO-LUMO GAP               0.368443489232 eV   |
           -------------------------------------------------

------------------------------------------------------------------------
 * finished run on 2022/02/08 at 20:18:27.021     
------------------------------------------------------------------------
 total:
 * wall-time:     0 d,  0 h,  0 min,  0.635 sec
 *  cpu-time:     0 d,  0 h,  0 min,  4.970 sec
 * ratio c/w:     7.831 speedup
 SCF:
 * wall-time:     0 d,  0 h,  0 min,  0.543 sec
 *  cpu-time:     0 d,  0 h,  0 min,  4.335 sec
 * ratio c/w:     7.977 speedup

