      -----------------------------------------------------------      
     |                   =====================                   |     
     |                           x T B                           |     
     |                   =====================                   |     
     |                         S. Grimme                         |     
     |          Mulliken Center for Theoretical Chemistry        |     
     |                    University of Bonn                     |     
      -----------------------------------------------------------      

   * xtb version 6.4.1 (unknown) compiled by 'oda6@login1.crc.pitt.edu' on 2021-06-25

   xtb is free software: you can redistribute it and/or modify it under
   the terms of the GNU Lesser General Public License as published by
   the Free Software Foundation, either version 3 of the License, or
   (at your option) any later version.
   
   xtb is distributed in the hope that it will be useful,
   but WITHOUT ANY WARRANTY; without even the implied warranty of
   MERCHANTABILITY or FITNESS FOR A PARTICULAR PURPOSE.  See the
   GNU Lesser General Public License for more details.
   
   Cite this work as:
   * C. Bannwarth, E. Caldeweyher, S. Ehlert, A. Hansen, P. Pracht,
     J. Seibert, S. Spicher, S. Grimme, WIREs Comput. Mol. Sci., 2020, 11,
     e01493. DOI: 10.1002/wcms.1493
   
   for GFN2-xTB:
   * C. Bannwarth, S. Ehlert and S. Grimme., J. Chem. Theory Comput., 2019,
     15, 1652-1671. DOI: 10.1021/acs.jctc.8b01176
   for GFN1-xTB:
   * S. Grimme, C. Bannwarth, P. Shushkov, J. Chem. Theory Comput., 2017,
     13, 1989-2009. DOI: 10.1021/acs.jctc.7b00118
   for GFN0-xTB:
   * P. Pracht, E. Caldeweyher, S. Ehlert, S. Grimme, ChemRxiv, 2019, preprint.
     DOI: 10.26434/chemrxiv.8326202.v1
   for GFN-FF:
   * S. Spicher and S. Grimme, Angew. Chem. Int. Ed., 2020, 59, 15665-15673.
     DOI: 10.1002/anie.202004239
   
   for DFT-D4:
   * E. Caldeweyher, C. Bannwarth and S. Grimme, J. Chem. Phys., 2017,
     147, 034112. DOI: 10.1063/1.4993215
   * E. Caldeweyher, S. Ehlert, A. Hansen, H. Neugebauer, S. Spicher,
     C. Bannwarth and S. Grimme, J. Chem. Phys., 2019, 150, 154122.
     DOI: 10.1063/1.5090222
   * E. Caldeweyher, J.-M. Mewes, S. Ehlert and S. Grimme, Phys. Chem. Chem. Phys.
     2020, 22, 8499-8512. DOI: 10.1039/D0CP00502A
   
   for sTDA-xTB:
   * S. Grimme and C. Bannwarth, J. Chem. Phys., 2016, 145, 054103.
     DOI: 10.1063/1.4959605
   
   in the mass-spec context:
   * V. Asgeirsson, C. Bauer and S. Grimme, Chem. Sci., 2017, 8, 4879.
     DOI: 10.1039/c7sc00601b
   * J. Koopman and S. Grimme, ACS Omega 2019, 4, 12, 15120-15133.
     DOI: 10.1021/acsomega.9b02011
   
   for metadynamics refer to:
   * S. Grimme, J. Chem. Theory Comput., 2019, 155, 2847-2862
     DOI: 10.1021/acs.jctc.9b00143
   
   for SPH calculations refer to:
   * S. Spicher and S. Grimme, J. Chem. Theory Comput., 2021, 17, 1701-1714
     DOI: 10.1021/acs.jctc.0c01306
   
   with help from (in alphabetical order)
   P. Atkinson, C. Bannwarth, F. Bohle, G. Brandenburg, E. Caldeweyher
   M. Checinski, S. Dohm, S. Ehlert, S. Ehrlich, I. Gerasimov, J. Koopman
   C. Lavigne, S. Lehtola, F. März, M. Müller, F. Musil, H. Neugebauer
   J. Pisarek, C. Plett, P. Pracht, J. Seibert, P. Shushkov, S. Spicher
   M. Stahn, M. Steiner, T. Strunk, J. Stückrath, T. Rose, and J. Unsleber
   
 * started run on 2022/02/09 at 14:58:54.431     

           -------------------------------------------------
          |                Calculation Setup                |
           -------------------------------------------------

          program call               : /ihome/ghutchison/oda6/xtb/xtb-641/bin/xtb ../../GFN2_output/39_130_125_138_39.mol --sp --alpb water
          hostname                   : smp-n26
          coordinate file            : ../../GFN2_output/39_130_125_138_39.mol
          omp threads                :                     8
          number of atoms            :                   211
          number of electrons        :                   688
          charge                     :                     0
          spin                       :                   0.0
          first test random number   :      0.11762302042821

   ID    Z sym.   atoms
    1    6 C      1-3, 5-13, 15, 17-25, 27-30, 32-38, 40-43, 45, 46, 48-51,
                  53-59, 61-64, 66, 67, 69-71, 73-77, 81, 82, 84-88, 90-93,
                  98-100, 102, 104, 106-108, 110, 113-119, 121-129, 131,
                  133-139
    2    8 O      4, 68, 72, 89, 105, 120
    3    7 N      14, 16, 26, 47, 78, 80, 83, 112, 130, 132
    4   16 S      31, 39, 44, 52, 60, 65, 79
    5    9 F      94-97, 101, 103, 109, 111
    6    1 H      140-211

           -------------------------------------------------
          |                 G F N 2 - x T B                 |
           -------------------------------------------------

        Reference                      10.1021/acs.jctc.8b01176
      * Hamiltonian:
        H0-scaling (s, p, d)           1.850000    2.230000    2.230000
        zeta-weighting                 0.500000
      * Dispersion:
        s8                             2.700000
        a1                             0.520000
        a2                             5.000000
        s9                             5.000000
      * Repulsion:
        kExp                           1.500000    1.000000
        rExp                           1.000000
      * Coulomb:
        alpha                          2.000000
        third order                    shell-resolved
        anisotropic                    true
        a3                             3.000000
        a5                             4.000000
        cn-shift                       1.200000
        cn-exp                         4.000000
        max-rad                        5.000000

      * Solvation model:               ALPB
        Solvent                        water
        Parameter file                 internal GFN2-xTB/ALPB
        Dielectric constant                8.0200E+01
        Reference state                gsolv [1 M gas/solution]
        Free energy shift                  1.0808E-03 Eh       6.7819E-01 kcal/mol
        Temperature                        2.9815E+02 K
        Density                            1.0000E+00 kg/L
        Solvent mass                       1.8000E+01 g/mol
        Interaction kernel             P16
        Born radius scaling (c1)           1.4744E+00
        Born radii integrator          GBOBC
        Born offset                        0.0000E+00 a0       0.0000E+00 AA
        H-bond correction              true
        Ion screening                  false
        Surface tension                    1.0000E-05 Eh       1.5569E+01 dyn/cm
        Grid points                               230 per atom

          ...................................................
          :                      SETUP                      :
          :.................................................:
          :  # basis functions                 670          :
          :  # atomic orbitals                 663          :
          :  # shells                          357          :
          :  # electrons                       688          :
          :  max. iterations                   250          :
          :  Hamiltonian                  GFN2-xTB          :
          :  restarted?                      false          :
          :  GBSA solvation                   true          :
          :  PC potential                    false          :
          :  electronic temp.          300.0000000     K    :
          :  accuracy                    1.0000000          :
          :  -> integral cutoff          0.2500000E+02      :
          :  -> integral neglect         0.1000000E-07      :
          :  -> SCF convergence          0.1000000E-05 Eh   :
          :  -> wf. convergence          0.1000000E-03 e    :
          :  Broyden damping             0.4000000          :
          ...................................................

 iter      E             dE          RMSdq      gap      omega  full diag
   1   -387.1169124 -0.387117E+03  0.460E+00    0.38       0.0  T
   2   -387.4042377 -0.287325E+00  0.269E+00    0.47       1.0  T
   3   -387.2126410  0.191597E+00  0.143E+00    0.28       1.0  T
   4   -387.5000848 -0.287444E+00  0.477E-01    0.21       1.0  T
   5   -387.5280488 -0.279639E-01  0.174E-01    0.26       1.0  T
   6   -387.5300837 -0.203495E-02  0.776E-02    0.25       1.0  T
   7   -387.5305780 -0.494283E-03  0.319E-02    0.26       1.0  T
   8   -387.5306530 -0.750371E-04  0.157E-02    0.26       1.0  T
   9   -387.5306670 -0.139941E-04  0.807E-03    0.26       1.0  T
  10   -387.5306713 -0.428583E-05  0.387E-03    0.26       1.8  T
  11   -387.5306726 -0.131882E-05  0.169E-03    0.26       4.1  T
  12   -387.5306727 -0.587515E-07  0.102E-03    0.26       6.8  T
  13   -387.5306728 -0.553852E-07  0.483E-04    0.26      14.3  T
  14   -387.5306728 -0.172342E-07  0.234E-04    0.26      29.4  T

   *** convergence criteria satisfied after 14 iterations ***

         #    Occupation            Energy/Eh            Energy/eV
      -------------------------------------------------------------
         1        2.0000           -0.8758741             -23.8337
       ...           ...                  ...                  ...
       338        2.0000           -0.3866513             -10.5213
       339        2.0000           -0.3842313             -10.4555
       340        2.0000           -0.3772676             -10.2660
       341        2.0000           -0.3700693             -10.0701
       342        2.0000           -0.3665424              -9.9741
       343        1.9985           -0.3557447              -9.6803
       344        1.9880           -0.3537963              -9.6273 (HOMO)
       345        0.0135           -0.3441980              -9.3661 (LUMO)
       346                         -0.3302013              -8.9852
       347                         -0.3263430              -8.8802
       348                         -0.3203651              -8.7176
       349                         -0.3153303              -8.5806
       ...                                ...                  ...
       663                          1.1551542              31.4333
      -------------------------------------------------------------
                  HL-Gap            0.0095983 Eh            0.2612 eV
             Fermi-level           -0.3489390 Eh           -9.4951 eV

 SCC (total)                   0 d,  0 h,  0 min,  0.835 sec
 SCC setup                      ...        0 min,  0.009 sec (  1.072%)
 Dispersion                     ...        0 min,  0.013 sec (  1.614%)
 classical contributions        ...        0 min,  0.000 sec (  0.053%)
 integral evaluation            ...        0 min,  0.043 sec (  5.146%)
 iterations                     ...        0 min,  0.625 sec ( 74.787%)
 molecular gradient             ...        0 min,  0.141 sec ( 16.874%)
 printout                       ...        0 min,  0.004 sec (  0.441%)

         :::::::::::::::::::::::::::::::::::::::::::::::::::::
         ::                     SUMMARY                     ::
         :::::::::::::::::::::::::::::::::::::::::::::::::::::
         :: total energy            -382.067524501019 Eh    ::
         :: total w/o Gsasa/hb      -382.053091807214 Eh    ::
         :: gradient norm              0.044446156495 Eh/a0 ::
         :: HOMO-LUMO gap              0.261182329519 eV    ::
         ::.................................................::
         :: SCC energy              -387.530672778178 Eh    ::
         :: -> isotropic ES            0.323191680733 Eh    ::
         :: -> anisotropic ES          0.015364755165 Eh    ::
         :: -> anisotropic XC          0.168108478279 Eh    ::
         :: -> dispersion             -0.364093199198 Eh    ::
         :: -> Gsolv                  -0.068398685900 Eh    ::
         ::    -> Gelec               -0.053965992095 Eh    ::
         ::    -> Gsasa               -0.004546850795 Eh    ::
         ::    -> Ghb                 -0.010966602707 Eh    ::
         ::    -> Gshift               0.001080759698 Eh    ::
         :: repulsion energy           5.451485919323 Eh    ::
         :: add. restraining           0.000000000000 Eh    ::
         :: total charge               0.000000000000 e     ::
         :::::::::::::::::::::::::::::::::::::::::::::::::::::

           -------------------------------------------------
          |                Property Printout                |
           -------------------------------------------------

    * Orbital Energies and Occupations

         #    Occupation            Energy/Eh            Energy/eV
      -------------------------------------------------------------
         1        2.0000           -0.8758741             -23.8337
       ...           ...                  ...                  ...
       332        2.0000           -0.4088938             -11.1266
       333        2.0000           -0.4030956             -10.9688
       334        2.0000           -0.4008588             -10.9079
       335        2.0000           -0.3927087             -10.6861
       336        2.0000           -0.3922552             -10.6738
       337        2.0000           -0.3893891             -10.5958
       338        2.0000           -0.3866513             -10.5213
       339        2.0000           -0.3842313             -10.4555
       340        2.0000           -0.3772676             -10.2660
       341        2.0000           -0.3700693             -10.0701
       342        2.0000           -0.3665424              -9.9741
       343        1.9985           -0.3557447              -9.6803
       344        1.9880           -0.3537963              -9.6273 (HOMO)
       345        0.0135           -0.3441980              -9.3661 (LUMO)
       346                         -0.3302013              -8.9852
       347                         -0.3263430              -8.8802
       348                         -0.3203651              -8.7176
       349                         -0.3153303              -8.5806
       350                         -0.3116649              -8.4808
       351                         -0.3084025              -8.3921
       352                         -0.2902112              -7.8970
       353                         -0.2838708              -7.7245
       354                         -0.2759054              -7.5078
       355                         -0.2692648              -7.3271
       ...                                ...                  ...
       663                          1.1551542              31.4333
      -------------------------------------------------------------
                  HL-Gap            0.0095983 Eh            0.2612 eV
             Fermi-level           -0.3489390 Eh           -9.4951 eV

     #   Z          covCN         q      C6AA      α(0)
     1   6 C        2.933    -0.016    28.413     8.742
     2   6 C        3.015    -0.048    29.173     8.860
     3   6 C        2.873     0.230    23.179     7.892
     4   8 O        0.856    -0.442    22.531     6.364
     5   6 C        3.061    -0.025    28.570     8.765
     6   6 C        2.904    -0.026    28.645     8.776
     7   6 C        3.257     0.013    26.613     8.340
     8   6 C        3.260     0.017    26.480     8.315
     9   6 C        2.904    -0.029    28.736     8.790
    10   6 C        3.054     0.005    27.867     8.657
    11   6 C        3.029     0.038    27.118     8.542
    12   6 C        2.953    -0.008    28.218     8.713
    13   6 C        1.937     0.130    27.899     8.530
    14   7 N        0.911    -0.303    27.803     7.626
    15   6 C        1.926     0.133    27.848     8.522
    16   7 N        0.911    -0.301    27.737     7.617
    17   6 C        4.161    -0.024    20.911     6.495
    18   6 C        4.013    -0.015    20.767     6.474
    19   6 C        2.995    -0.043    29.056     8.842
    20   6 C        2.995    -0.044    29.092     8.848
    21   6 C        4.013    -0.016    20.786     6.477
    22   6 C        3.915    -0.062    21.627     6.610
    23   6 C        4.162    -0.025    20.924     6.497
    24   6 C        2.986     0.003    27.949     8.672
    25   6 C        3.052     0.064    26.525     8.446
    26   7 N        2.748    -0.035    21.923     6.954
    27   6 C        2.924     0.055    26.773     8.485
    28   6 C        2.922    -0.045    29.118     8.849
    29   6 C        2.944    -0.043    29.057     8.841
    30   6 C        2.965     0.048    26.922     8.511
    31  16 S        2.035    -0.177   148.571    20.515
    32   6 C        3.744    -0.066    21.834     6.666
    33   6 C        2.985    -0.042    29.028     8.838
    34   6 C        2.921    -0.044    29.092     8.845
    35   6 C        2.932     0.055    26.762     8.484
    36   6 C        2.921    -0.041    29.008     8.832
    37   6 C        2.985    -0.041    29.006     8.834
    38   6 C        2.966     0.050    26.871     8.503
    39  16 S        2.035    -0.173   148.363    20.501
    40   6 C        3.744    -0.070    21.908     6.677
    41   6 C        2.944    -0.044    29.095     8.847
    42   6 C        2.925    -0.044    29.084     8.844
    43   6 C        3.160    -0.003    27.779     8.616
    44  16 S        2.249    -0.007   141.349    20.010
    45   6 C        3.011     0.008    27.821     8.652
    46   6 C        3.078     0.053    26.724     8.475
    47   7 N        2.749    -0.077    22.735     7.082
    48   6 C        2.927     0.060    26.663     8.468
    49   6 C        2.926    -0.045    29.107     8.848
    50   6 C        2.982    -0.042    29.046     8.841
    51   6 C        2.966     0.041    27.076     8.535
    52  16 S        2.034    -0.185   148.918    20.539
    53   6 C        3.744    -0.061    21.744     6.652
    54   6 C        2.944    -0.045    29.108     8.849
    55   6 C        2.923    -0.050    29.236     8.867
    56   6 C        2.929     0.059    26.688     8.472
    57   6 C        2.922    -0.049    29.209     8.863
    58   6 C        2.946    -0.042    29.039     8.838
    59   6 C        2.966     0.041    27.083     8.536
    60  16 S        2.026    -0.201   149.593    20.585
    61   6 C        3.744    -0.055    21.642     6.636
    62   6 C        2.974    -0.043    29.066     8.843
    63   6 C        2.923    -0.044    29.098     8.846
    64   6 C        3.184     0.012    27.308     8.528
    65  16 S        2.266    -0.079   144.361    20.222
    66   6 C        2.978    -0.025    28.611     8.774
    67   6 C        2.870     0.122    25.323     8.249
    68   8 O        1.703    -0.305    19.089     5.899
    69   6 C        3.691     0.072    19.543     6.326
    70   6 C        3.750    -0.120    22.862     6.819
    71   6 C        2.854     0.124    25.268     8.239
    72   8 O        1.705    -0.258    18.276     5.772
    73   6 C        3.685     0.080    19.441     6.312
    74   6 C        3.751    -0.131    23.083     6.852
    75   6 C        2.965    -0.037    28.919     8.821
    76   6 C        3.356     0.071    23.669     7.648
    77   6 C        3.357     0.063    23.831     7.674
    78   7 N        1.854    -0.291    28.391     7.897
    79  16 S        2.689     0.400   125.790    18.877
    80   7 N        1.855    -0.305    28.761     7.949
    81   6 C        2.975     0.022    27.505     8.603
    82   6 C        2.965     0.083    26.137     8.386
    83   7 N        1.851    -0.218    26.598     7.644
    84   6 C        2.948     0.105    25.679     8.311
    85   6 C        2.974    -0.030    28.752     8.796
    86   6 C        2.787     0.162    24.488     8.106
    87   6 C        2.780     0.124    25.266     8.233
    88   6 C        2.849     0.138    24.991     8.193
    89   8 O        1.705    -0.218    17.620     5.667
    90   6 C        3.685     0.057    19.805     6.371
    91   6 C        3.750    -0.133    23.122     6.858
    92   6 C        2.784     0.132    25.092     8.205
    93   6 C        2.784     0.149    24.758     8.150
    94   9 F        0.787    -0.205    11.288     3.969
    95   9 F        0.787    -0.192    11.157     3.946
    96   9 F        0.787    -0.194    11.178     3.949
    97   9 F        0.788    -0.189    11.124     3.940
    98   6 C        2.947     0.107    25.635     8.304
    99   6 C        2.980    -0.027    28.678     8.784
   100   6 C        2.785     0.149    24.759     8.150
   101   9 F        0.787    -0.206    11.299     3.971
   102   6 C        2.779     0.123    25.294     8.238
   103   9 F        0.787    -0.197    11.207     3.954
   104   6 C        2.850     0.139    24.970     8.190
   105   8 O        1.705    -0.219    17.643     5.671
   106   6 C        3.685     0.059    19.786     6.368
   107   6 C        3.750    -0.132    23.107     6.856
   108   6 C        2.784     0.137    25.000     8.190
   109   9 F        0.787    -0.192    11.151     3.944
   110   6 C        2.785     0.169    24.358     8.084
   111   9 F        0.788    -0.186    11.096     3.935
   112   7 N        1.861    -0.218    26.585     7.642
   113   6 C        2.975     0.080    26.220     8.399
   114   6 C        2.965     0.012    27.737     8.639
   115   6 C        2.914    -0.027    28.686     8.783
   116   6 C        2.919    -0.030    28.745     8.792
   117   6 C        2.909    -0.009    28.244     8.714
   118   6 C        2.996    -0.023    28.577     8.769
   119   6 C        2.865     0.236    23.073     7.874
   120   8 O        0.856    -0.415    21.990     6.287
   121   6 C        3.059    -0.019    28.431     8.744
   122   6 C        2.904    -0.023    28.574     8.765
   123   6 C        3.260     0.018    26.454     8.311
   124   6 C        3.256     0.019    26.492     8.323
   125   6 C        2.904    -0.031    28.781     8.797
   126   6 C        3.042     0.008    27.801     8.648
   127   6 C        3.021     0.040    27.084     8.537
   128   6 C        2.947     0.008    27.832     8.653
   129   6 C        1.953     0.137    27.729     8.504
   130   7 N        0.911    -0.269    26.970     7.511
   131   6 C        1.950     0.135    27.788     8.513
   132   7 N        0.911    -0.285    27.362     7.565
   133   6 C        4.163    -0.028    20.990     6.507
   134   6 C        4.011    -0.016    20.789     6.477
   135   6 C        2.987    -0.043    29.058     8.842
   136   6 C        2.987    -0.043    29.069     8.844
   137   6 C        4.011    -0.017    20.791     6.478
   138   6 C        3.926    -0.066    21.706     6.621
   139   6 C        4.161    -0.028    20.987     6.506
   140   1 H        0.925     0.066     2.134     2.285
   141   1 H        0.926     0.062     2.180     2.309
   142   1 H        0.926     0.054     2.272     2.357
   143   1 H        0.925     0.053     2.289     2.366
   144   1 H        0.925     0.045     2.389     2.417
   145   1 H        0.926     0.044     2.396     2.420
   146   1 H        0.926     0.044     2.402     2.424
   147   1 H        0.925     0.042     2.422     2.434
   148   1 H        0.925     0.034     2.530     2.487
   149   1 H        0.925     0.046     2.373     2.409
   150   1 H        0.925     0.053     2.282     2.362
   151   1 H        0.926     0.045     2.381     2.413
   152   1 H        0.926     0.053     2.282     2.362
   153   1 H        0.925     0.068     2.113     2.273
   154   1 H        0.925     0.085     1.933     2.174
   155   1 H        0.925     0.073     2.048     2.238
   156   1 H        0.926     0.059     2.214     2.327
   157   1 H        0.926     0.056     2.245     2.343
   158   1 H        0.926     0.054     2.268     2.355
   159   1 H        0.926     0.060     2.201     2.320
   160   1 H        0.925     0.085     1.924     2.169
   161   1 H        0.925     0.073     2.058     2.243
   162   1 H        0.925     0.077     2.009     2.216
   163   1 H        0.926     0.063     2.159     2.298
   164   1 H        0.926     0.046     2.373     2.409
   165   1 H        0.926     0.048     2.350     2.397
   166   1 H        0.926     0.051     2.310     2.377
   167   1 H        0.925     0.071     2.073     2.252
   168   1 H        0.925     0.068     2.106     2.270
   169   1 H        0.925     0.080     1.980     2.201
   170   1 H        0.926     0.051     2.307     2.375
   171   1 H        0.926     0.035     2.523     2.484
   172   1 H        0.926     0.052     2.293     2.368
   173   1 H        0.926     0.054     2.272     2.357
   174   1 H        0.925     0.062     2.176     2.307
   175   1 H        0.925     0.075     2.030     2.228
   176   1 H        0.925     0.051     2.301     2.372
   177   1 H        0.926     0.056     2.241     2.341
   178   1 H        0.926     0.044     2.396     2.421
   179   1 H        0.924     0.055     2.262     2.352
   180   1 H        0.924     0.070     2.087     2.259
   181   1 H        0.925     0.051     2.305     2.374
   182   1 H        0.925     0.067     2.122     2.278
   183   1 H        0.925     0.037     2.483     2.464
   184   1 H        0.924     0.052     2.300     2.372
   185   1 H        0.924     0.037     2.492     2.469
   186   1 H        0.925     0.075     2.034     2.230
   187   1 H        0.925     0.070     2.085     2.258
   188   1 H        0.925     0.063     2.161     2.299
   189   1 H        0.924     0.098     1.804     2.101
   190   1 H        0.924     0.072     2.065     2.247
   191   1 H        0.925     0.079     1.988     2.205
   192   1 H        0.925     0.066     2.130     2.282
   193   1 H        0.925     0.052     2.301     2.372
   194   1 H        0.924     0.070     2.085     2.258
   195   1 H        0.924     0.097     1.817     2.108
   196   1 H        0.925     0.066     2.136     2.285
   197   1 H        0.925     0.079     1.993     2.208
   198   1 H        0.925     0.052     2.294     2.369
   199   1 H        0.926     0.109     1.702     2.040
   200   1 H        0.926     0.072     2.059     2.244
   201   1 H        0.925     0.088     1.901     2.156
   202   1 H        0.926     0.074     2.043     2.235
   203   1 H        0.926     0.060     2.195     2.317
   204   1 H        0.925     0.065     2.144     2.290
   205   1 H        0.925     0.046     2.376     2.411
   206   1 H        0.926     0.030     2.583     2.513
   207   1 H        0.926     0.033     2.550     2.497
   208   1 H        0.925     0.048     2.349     2.397
   209   1 H        0.925     0.052     2.300     2.372
   210   1 H        0.925     0.050     2.315     2.379
   211   1 H        0.925     0.066     2.127     2.280

 Mol. C6AA /au·bohr⁶  :     713117.830978
 Mol. C8AA /au·bohr⁸  :   19218749.667615
 Mol. α(0) /au        :       1331.440578


Wiberg/Mayer (AO) data.
largest (>0.10) Wiberg bond orders for each atom

 ---------------------------------------------------------------------------
     #   Z sym  total        # sym  WBO       # sym  WBO       # sym  WBO
 ---------------------------------------------------------------------------
     1   6 C    3.947 --     2 C    1.480    24 C    1.309   140 H    0.947
     2   6 C    3.948 --     1 C    1.480    11 C    1.159     3 C    1.031
     3   6 C    3.909 --     4 O    1.719     2 C    1.031     5 C    1.022
     4   8 O    1.994 --     3 C    1.719
     5   6 C    3.965 --     6 C    1.384    10 C    1.303     3 C    1.022
     6   6 C    3.978 --     7 C    1.437     5 C    1.384   141 H    0.963
     7   6 C    3.951 --     6 C    1.437     8 C    1.326    23 C    0.993
     8   6 C    3.964 --     9 C    1.442     7 C    1.326    17 C    0.995
     9   6 C    3.975 --     8 C    1.442    10 C    1.370   142 H    0.959
    10   6 C    3.975 --     9 C    1.370     5 C    1.303    11 C    1.085
    11   6 C    3.955 --    12 C    1.423     2 C    1.159    10 C    1.085
    12   6 C    3.953 --    11 C    1.423    15 C    1.122    13 C    1.106
    13   6 C    3.941 --    14 N    2.737    12 C    1.106
    14   7 N    2.956 --    13 C    2.737
    15   6 C    3.939 --    16 N    2.724    12 C    1.122
    16   7 N    2.948 --    15 C    2.724
    17   6 C    3.983 --     8 C    0.995    23 C    0.975   143 H    0.960
                            18 C    0.949
    18   6 C    3.988 --    19 C    1.004    22 C    0.989   144 H    0.969
                            17 C    0.949
    19   6 C    3.981 --    20 C    1.923    18 C    1.004   145 H    0.970
    20   6 C    3.980 --    19 C    1.923    21 C    1.003   146 H    0.970
    21   6 C    3.987 --    20 C    1.003    22 C    0.989   147 H    0.970
                            23 C    0.950
    22   6 C    3.993 --    21 C    0.989    18 C    0.989   149 H    0.978
                           148 H    0.974
    23   6 C    3.982 --     7 C    0.993    17 C    0.975   150 H    0.960
                            21 C    0.950
    24   6 C    3.921 --     1 C    1.309    25 C    1.299    65 S    1.064
    25   6 C    3.948 --    24 C    1.299    43 C    1.226    26 N    1.172
    26   7 N    3.531 --    25 C    1.172    35 C    1.033    27 C    1.033
    27   6 C    3.956 --    28 C    1.370    34 C    1.357    26 N    1.033
    28   6 C    3.985 --    29 C    1.458    27 C    1.370   151 H    0.963
                            33 C    0.102
    29   6 C    3.987 --    28 C    1.458    30 C    1.381   152 H    0.963
    30   6 C    3.955 --    29 C    1.381    33 C    1.367    31 S    1.059
    31  16 S    2.263 --    30 C    1.059    32 C    1.009
    32   6 C    3.967 --    31 S    1.009   153 H    0.980   155 H    0.979
                           154 H    0.974
    33   6 C    3.988 --    34 C    1.475    30 C    1.367   156 H    0.966
                            28 C    0.102
    34   6 C    3.979 --    33 C    1.475    27 C    1.357   157 H    0.965
    35   6 C    3.953 --    42 C    1.366    36 C    1.354    26 N    1.033
    36   6 C    3.974 --    37 C    1.481    35 C    1.354   158 H    0.965
    37   6 C    3.987 --    36 C    1.481    38 C    1.362   159 H    0.966
    38   6 C    3.950 --    41 C    1.382    37 C    1.362    39 S    1.063
    39  16 S    2.268 --    38 C    1.063    40 C    1.008
    40   6 C    3.965 --    39 S    1.008   161 H    0.979   162 H    0.978
                           160 H    0.974
    41   6 C    3.985 --    42 C    1.454    38 C    1.382   163 H    0.961
    42   6 C    3.979 --    41 C    1.454    35 C    1.366   164 H    0.965
    43   6 C    3.936 --    64 C    1.371    25 C    1.226    44 S    1.108
    44  16 S    2.566 --    45 C    1.126    43 C    1.108
    45   6 C    3.899 --    46 C    1.449    44 S    1.126    66 C    1.048
    46   6 C    3.960 --    45 C    1.449    64 C    1.216    47 N    1.087
    47   7 N    3.457 --    46 C    1.087    48 C    1.051    56 C    1.025
    48   6 C    3.960 --    55 C    1.369    49 C    1.344    47 N    1.051
    49   6 C    3.985 --    50 C    1.471    48 C    1.344   165 H    0.966
    50   6 C    3.988 --    49 C    1.471    51 C    1.370   166 H    0.967
                            55 C    0.101
    51   6 C    3.952 --    54 C    1.386    50 C    1.370    52 S    1.048
    52  16 S    2.252 --    51 C    1.048    53 C    1.009
    53   6 C    3.966 --    52 S    1.009   168 H    0.980   169 H    0.974
                           167 H    0.969
    54   6 C    3.987 --    55 C    1.453    51 C    1.386   170 H    0.964
    55   6 C    3.983 --    54 C    1.453    48 C    1.369   171 H    0.966
                            50 C    0.101
    56   6 C    3.967 --    57 C    1.378    63 C    1.372    47 N    1.025
    57   6 C    3.985 --    58 C    1.454    56 C    1.378   172 H    0.967
                            62 C    0.102
    58   6 C    3.989 --    57 C    1.454    59 C    1.393   173 H    0.964
                            63 C    0.102
    59   6 C    3.961 --    58 C    1.393    62 C    1.386    60 S    1.027
    60  16 S    2.192 --    59 C    1.027    61 C    1.001
    61   6 C    3.971 --    60 S    1.001   174 H    0.980   175 H    0.977
                           176 H    0.975
    62   6 C    3.989 --    63 C    1.462    59 C    1.386   177 H    0.966
                            57 C    0.102
    63   6 C    3.987 --    62 C    1.462    56 C    1.372   178 H    0.967
                            58 C    0.102
    64   6 C    3.934 --    43 C    1.371    46 C    1.216    65 S    1.114
    65  16 S    2.565 --    64 C    1.114    24 C    1.064
    66   6 C    3.970 --    67 C    1.450    77 C    1.209    45 C    1.048
    67   6 C    3.942 --    66 C    1.450    71 C    1.191    68 O    1.048
    68   8 O    2.138 --    67 C    1.048    69 C    0.930
    69   6 C    3.919 --    70 C    1.013   180 H    0.969   179 H    0.965
                            68 O    0.930
    70   6 C    3.992 --    69 C    1.013   183 H    0.986   181 H    0.984
                           182 H    0.982
    71   6 C    3.930 --    75 C    1.415    67 C    1.191    72 O    1.097
    72   8 O    2.246 --    71 C    1.097    73 C    0.944
    73   6 C    3.923 --    74 C    1.011   185 H    0.966   184 H    0.960
                            72 O    0.944
    74   6 C    3.984 --    73 C    1.011   188 H    0.984   186 H    0.982
                           187 H    0.980
    75   6 C    3.967 --    71 C    1.415    76 C    1.204    81 C    1.057
    76   6 C    3.970 --    80 N    1.378    75 C    1.204    77 C    1.166
    77   6 C    3.970 --    78 N    1.381    66 C    1.209    76 C    1.166
    78   7 N    3.068 --    79 S    1.430    77 C    1.381    80 N    0.156
    79  16 S    3.175 --    78 N    1.430    80 N    1.417
    80   7 N    3.067 --    79 S    1.417    76 C    1.378    78 N    0.156
    81   6 C    3.926 --   116 C    1.448    82 C    1.208    75 C    1.057
    82   6 C    3.970 --    83 N    1.308   113 C    1.221    81 C    1.208
    83   7 N    3.075 --    84 C    1.506    82 C    1.308
    84   6 C    3.971 --    83 N    1.506    98 C    1.194    85 C    1.043
    85   6 C    3.976 --    86 C    1.338    93 C    1.317    84 C    1.043
    86   6 C    3.891 --    87 C    1.357    85 C    1.338    97 F    0.987
    87   6 C    3.885 --    86 C    1.357    88 C    1.305    96 F    0.972
    88   6 C    3.957 --    87 C    1.305    92 C    1.270    89 O    1.159
    89   8 O    2.309 --    88 C    1.159    90 C    0.920
    90   6 C    3.898 --    91 C    1.012   190 H    0.967   189 H    0.964
                            89 O    0.920
    91   6 C    3.984 --    90 C    1.012   193 H    0.985   192 H    0.984
                           191 H    0.978
    92   6 C    3.886 --    93 C    1.392    88 C    1.270    95 F    0.979
    93   6 C    3.884 --    92 C    1.392    85 C    1.317    94 F    0.971
    94   9 F    1.105 --    93 C    0.971
    95   9 F    1.114 --    92 C    0.979
    96   9 F    1.108 --    87 C    0.972
    97   9 F    1.129 --    86 C    0.987
    98   6 C    3.963 --   112 N    1.494    84 C    1.194    99 C    1.046
    99   6 C    3.976 --   100 C    1.350   110 C    1.304    98 C    1.046
   100   6 C    3.883 --   102 C    1.358    99 C    1.350   101 F    0.970
   101   9 F    1.103 --   100 C    0.970
   102   6 C    3.883 --   100 C    1.358   104 C    1.305   103 F    0.969
   103   9 F    1.102 --   102 C    0.969
   104   6 C    3.953 --   102 C    1.305   108 C    1.271   105 O    1.157
   105   8 O    2.307 --   104 C    1.157   106 C    0.921
   106   6 C    3.898 --   107 C    1.012   194 H    0.967   195 H    0.964
                           105 O    0.921
   107   6 C    3.984 --   106 C    1.012   198 H    0.985   196 H    0.984
                           197 H    0.979
   108   6 C    3.887 --   110 C    1.393   104 C    1.271   109 F    0.980
   109   9 F    1.117 --   108 C    0.980
   110   6 C    3.894 --   108 C    1.393    99 C    1.304   111 F    0.989
   111   9 F    1.128 --   110 C    0.989
   112   7 N    3.092 --    98 C    1.494   113 C    1.323
   113   6 C    3.964 --   112 N    1.323    82 C    1.221   114 C    1.183
   114   6 C    3.965 --   115 C    1.415   113 C    1.183   117 C    1.176
   115   6 C    3.942 --   114 C    1.415   116 C    1.372   199 H    0.943
   116   6 C    3.974 --    81 C    1.448   115 C    1.372   200 H    0.963
   117   6 C    3.941 --   118 C    1.609   114 C    1.176   201 H    0.929
   118   6 C    3.935 --   117 C    1.609   127 C    1.105   119 C    1.022
   119   6 C    3.915 --   120 O    1.730   121 C    1.043   118 C    1.022
   120   8 O    2.024 --   119 C    1.730
   121   6 C    3.973 --   122 C    1.374   126 C    1.293   119 C    1.043
   122   6 C    3.980 --   123 C    1.444   121 C    1.374   202 H    0.961
   123   6 C    3.950 --   122 C    1.444   124 C    1.314   139 C    0.998
   124   6 C    3.962 --   125 C    1.452   123 C    1.314   133 C    1.000
   125   6 C    3.979 --   124 C    1.452   126 C    1.359   203 H    0.958
   126   6 C    3.977 --   125 C    1.359   121 C    1.293   127 C    1.104
   127   6 C    3.972 --   128 C    1.494   118 C    1.105   126 C    1.104
   128   6 C    3.957 --   127 C    1.494   131 C    1.096   129 C    1.094
   129   6 C    3.942 --   130 N    2.756   128 C    1.094
   130   7 N    2.965 --   129 C    2.756
   131   6 C    3.940 --   132 N    2.738   128 C    1.096
   132   7 N    2.955 --   131 C    2.738
   133   6 C    3.982 --   124 C    1.000   139 C    0.977   204 H    0.956
                           134 C    0.945
   134   6 C    3.987 --   135 C    1.010   138 C    0.985   205 H    0.971
                           133 C    0.945
   135   6 C    3.987 --   136 C    1.924   134 C    1.010   206 H    0.971
   136   6 C    3.987 --   135 C    1.924   137 C    1.010   207 H    0.971
   137   6 C    3.986 --   136 C    1.010   138 C    0.985   208 H    0.971
                           139 C    0.944
   138   6 C    3.991 --   134 C    0.985   137 C    0.985   209 H    0.976
                           210 H    0.975
   139   6 C    3.981 --   123 C    0.998   133 C    0.977   211 H    0.955
                           137 C    0.944
   140   1 H    0.994 --     1 C    0.947
   141   1 H    0.995 --     6 C    0.963
   142   1 H    0.997 --     9 C    0.959
   143   1 H    0.996 --    17 C    0.960
   144   1 H    0.998 --    18 C    0.969
   145   1 H    0.998 --    19 C    0.970
   146   1 H    0.998 --    20 C    0.970
   147   1 H    0.998 --    21 C    0.970
   148   1 H    0.999 --    22 C    0.974
   149   1 H    0.998 --    22 C    0.978
   150   1 H    0.995 --    23 C    0.960
   151   1 H    0.998 --    28 C    0.963
   152   1 H    0.997 --    29 C    0.963
   153   1 H    0.995 --    32 C    0.980
   154   1 H    0.992 --    32 C    0.974
   155   1 H    0.994 --    32 C    0.979
   156   1 H    0.996 --    33 C    0.966
   157   1 H    0.996 --    34 C    0.965
   158   1 H    0.997 --    36 C    0.965
   159   1 H    0.996 --    37 C    0.966
   160   1 H    0.992 --    40 C    0.974
   161   1 H    0.994 --    40 C    0.979
   162   1 H    0.993 --    40 C    0.978
   163   1 H    0.995 --    41 C    0.961
   164   1 H    0.998 --    42 C    0.965
   165   1 H    0.997 --    49 C    0.966
   166   1 H    0.997 --    50 C    0.967
   167   1 H    0.995 --    53 C    0.969
   168   1 H    0.994 --    53 C    0.980
   169   1 H    0.993 --    53 C    0.974
   170   1 H    0.997 --    54 C    0.964
   171   1 H    0.999 --    55 C    0.966
   172   1 H    0.997 --    57 C    0.967
   173   1 H    0.997 --    58 C    0.964
   174   1 H    0.996 --    61 C    0.980
   175   1 H    0.994 --    61 C    0.977
   176   1 H    0.997 --    61 C    0.975
   177   1 H    0.996 --    62 C    0.966
   178   1 H    0.998 --    63 C    0.967
   179   1 H    0.997 --    69 C    0.965
   180   1 H    0.994 --    69 C    0.969
   181   1 H    0.997 --    70 C    0.984
   182   1 H    0.995 --    70 C    0.982
   183   1 H    0.999 --    70 C    0.986
   184   1 H    0.995 --    73 C    0.960
   185   1 H    0.998 --    73 C    0.966
   186   1 H    0.994 --    74 C    0.982
   187   1 H    0.994 --    74 C    0.980
   188   1 H    0.996 --    74 C    0.984
   189   1 H    0.990 --    90 C    0.964
   190   1 H    0.994 --    90 C    0.967
   191   1 H    0.993 --    91 C    0.978
   192   1 H    0.996 --    91 C    0.984
   193   1 H    0.997 --    91 C    0.985
   194   1 H    0.995 --   106 C    0.967
   195   1 H    0.990 --   106 C    0.964
   196   1 H    0.996 --   107 C    0.984
   197   1 H    0.993 --   107 C    0.979
   198   1 H    0.997 --   107 C    0.985
   199   1 H    0.987 --   115 C    0.943
   200   1 H    0.994 --   116 C    0.963
   201   1 H    0.991 --   117 C    0.929
   202   1 H    0.994 --   122 C    0.961
   203   1 H    0.996 --   125 C    0.958
   204   1 H    0.994 --   133 C    0.956
   205   1 H    0.998 --   134 C    0.971
   206   1 H    0.999 --   135 C    0.971
   207   1 H    0.999 --   136 C    0.971
   208   1 H    0.997 --   137 C    0.971
   209   1 H    0.997 --   138 C    0.976
   210   1 H    0.995 --   138 C    0.975
   211   1 H    0.993 --   139 C    0.955
 ---------------------------------------------------------------------------

Topologies differ in bond orders
Writing corrected topology to xtbtopo.mol

molecular dipole:
                 x           y           z       tot (Debye)
 q only:        1.275      -3.143       2.239
   full:        1.015      -3.599       2.278      11.129
molecular quadrupole (traceless):
                xx          xy          yy          xz          yz          zz
 q only:      -16.825     112.955      40.840      -3.663      -6.964     -24.016
  q+dip:       -7.198     106.736      30.428       5.957     -13.519     -23.230
   full:       -6.753      97.054      29.776      15.723     -21.853     -23.023


           -------------------------------------------------
          | TOTAL ENERGY             -382.067524501019 Eh   |
          | GRADIENT NORM               0.044446156495 Eh/α |
          | HOMO-LUMO GAP               0.261182329519 eV   |
           -------------------------------------------------

------------------------------------------------------------------------
 * finished run on 2022/02/09 at 14:58:55.380     
------------------------------------------------------------------------
 total:
 * wall-time:     0 d,  0 h,  0 min,  0.949 sec
 *  cpu-time:     0 d,  0 h,  0 min,  7.444 sec
 * ratio c/w:     7.842 speedup
 SCF:
 * wall-time:     0 d,  0 h,  0 min,  0.839 sec
 *  cpu-time:     0 d,  0 h,  0 min,  6.678 sec
 * ratio c/w:     7.963 speedup

