      -----------------------------------------------------------      
     |                   =====================                   |     
     |                           x T B                           |     
     |                   =====================                   |     
     |                         S. Grimme                         |     
     |          Mulliken Center for Theoretical Chemistry        |     
     |                    University of Bonn                     |     
      -----------------------------------------------------------      

   * xtb version 6.4.1 (unknown) compiled by 'oda6@login1.crc.pitt.edu' on 2021-06-25

   xtb is free software: you can redistribute it and/or modify it under
   the terms of the GNU Lesser General Public License as published by
   the Free Software Foundation, either version 3 of the License, or
   (at your option) any later version.
   
   xtb is distributed in the hope that it will be useful,
   but WITHOUT ANY WARRANTY; without even the implied warranty of
   MERCHANTABILITY or FITNESS FOR A PARTICULAR PURPOSE.  See the
   GNU Lesser General Public License for more details.
   
   Cite this work as:
   * C. Bannwarth, E. Caldeweyher, S. Ehlert, A. Hansen, P. Pracht,
     J. Seibert, S. Spicher, S. Grimme, WIREs Comput. Mol. Sci., 2020, 11,
     e01493. DOI: 10.1002/wcms.1493
   
   for GFN2-xTB:
   * C. Bannwarth, S. Ehlert and S. Grimme., J. Chem. Theory Comput., 2019,
     15, 1652-1671. DOI: 10.1021/acs.jctc.8b01176
   for GFN1-xTB:
   * S. Grimme, C. Bannwarth, P. Shushkov, J. Chem. Theory Comput., 2017,
     13, 1989-2009. DOI: 10.1021/acs.jctc.7b00118
   for GFN0-xTB:
   * P. Pracht, E. Caldeweyher, S. Ehlert, S. Grimme, ChemRxiv, 2019, preprint.
     DOI: 10.26434/chemrxiv.8326202.v1
   for GFN-FF:
   * S. Spicher and S. Grimme, Angew. Chem. Int. Ed., 2020, 59, 15665-15673.
     DOI: 10.1002/anie.202004239
   
   for DFT-D4:
   * E. Caldeweyher, C. Bannwarth and S. Grimme, J. Chem. Phys., 2017,
     147, 034112. DOI: 10.1063/1.4993215
   * E. Caldeweyher, S. Ehlert, A. Hansen, H. Neugebauer, S. Spicher,
     C. Bannwarth and S. Grimme, J. Chem. Phys., 2019, 150, 154122.
     DOI: 10.1063/1.5090222
   * E. Caldeweyher, J.-M. Mewes, S. Ehlert and S. Grimme, Phys. Chem. Chem. Phys.
     2020, 22, 8499-8512. DOI: 10.1039/D0CP00502A
   
   for sTDA-xTB:
   * S. Grimme and C. Bannwarth, J. Chem. Phys., 2016, 145, 054103.
     DOI: 10.1063/1.4959605
   
   in the mass-spec context:
   * V. Asgeirsson, C. Bauer and S. Grimme, Chem. Sci., 2017, 8, 4879.
     DOI: 10.1039/c7sc00601b
   * J. Koopman and S. Grimme, ACS Omega 2019, 4, 12, 15120-15133.
     DOI: 10.1021/acsomega.9b02011
   
   for metadynamics refer to:
   * S. Grimme, J. Chem. Theory Comput., 2019, 155, 2847-2862
     DOI: 10.1021/acs.jctc.9b00143
   
   for SPH calculations refer to:
   * S. Spicher and S. Grimme, J. Chem. Theory Comput., 2021, 17, 1701-1714
     DOI: 10.1021/acs.jctc.0c01306
   
   with help from (in alphabetical order)
   P. Atkinson, C. Bannwarth, F. Bohle, G. Brandenburg, E. Caldeweyher
   M. Checinski, S. Dohm, S. Ehlert, S. Ehrlich, I. Gerasimov, J. Koopman
   C. Lavigne, S. Lehtola, F. März, M. Müller, F. Musil, H. Neugebauer
   J. Pisarek, C. Plett, P. Pracht, J. Seibert, P. Shushkov, S. Spicher
   M. Stahn, M. Steiner, T. Strunk, J. Stückrath, T. Rose, and J. Unsleber
   
 * started run on 2022/02/17 at 21:32:26.207     

           -------------------------------------------------
          |                Calculation Setup                |
           -------------------------------------------------

          program call               : /ihome/ghutchison/oda6/xtb/xtb-641/bin/xtb ../../GFN2_output/39_28_130_157_39.mol --sp --alpb water
          hostname                   : smp-n1
          coordinate file            : ../../GFN2_output/39_28_130_157_39.mol
          omp threads                :                     8
          number of atoms            :                   211
          number of electrons        :                   634
          charge                     :                     0
          spin                       :                   0.0
          first test random number   :      0.61320161964844

   ID    Z sym.   atoms
    1    6 C      1-3, 5-13, 15, 17-25, 27-41, 43, 44, 46-60, 62, 63, 65-68,
                  70-76, 78-81, 83, 84, 86-89, 91-97, 99-102, 104-107,
                  109-111, 113-121, 123, 125-131
    2    8 O      4, 112
    3    7 N      14, 16, 26, 45, 64, 85, 122, 124
    4   16 S      42, 61, 69, 77, 82, 90, 98, 103, 108
    5    1 H      132-211

           -------------------------------------------------
          |                 G F N 2 - x T B                 |
           -------------------------------------------------

        Reference                      10.1021/acs.jctc.8b01176
      * Hamiltonian:
        H0-scaling (s, p, d)           1.850000    2.230000    2.230000
        zeta-weighting                 0.500000
      * Dispersion:
        s8                             2.700000
        a1                             0.520000
        a2                             5.000000
        s9                             5.000000
      * Repulsion:
        kExp                           1.500000    1.000000
        rExp                           1.000000
      * Coulomb:
        alpha                          2.000000
        third order                    shell-resolved
        anisotropic                    true
        a3                             3.000000
        a5                             4.000000
        cn-shift                       1.200000
        cn-exp                         4.000000
        max-rad                        5.000000

      * Solvation model:               ALPB
        Solvent                        water
        Parameter file                 internal GFN2-xTB/ALPB
        Dielectric constant                8.0200E+01
        Reference state                gsolv [1 M gas/solution]
        Free energy shift                  1.0808E-03 Eh       6.7819E-01 kcal/mol
        Temperature                        2.9815E+02 K
        Density                            1.0000E+00 kg/L
        Solvent mass                       1.8000E+01 g/mol
        Interaction kernel             P16
        Born radius scaling (c1)           1.4744E+00
        Born radii integrator          GBOBC
        Born offset                        0.0000E+00 a0       0.0000E+00 AA
        H-bond correction              true
        Ion screening                  false
        Surface tension                    1.0000E-05 Eh       1.5569E+01 dyn/cm
        Grid points                               230 per atom

          ...................................................
          :                      SETUP                      :
          :.................................................:
          :  # basis functions                 658          :
          :  # atomic orbitals                 649          :
          :  # shells                          351          :
          :  # electrons                       634          :
          :  max. iterations                   250          :
          :  Hamiltonian                  GFN2-xTB          :
          :  restarted?                      false          :
          :  GBSA solvation                   true          :
          :  PC potential                    false          :
          :  electronic temp.          300.0000000     K    :
          :  accuracy                    1.0000000          :
          :  -> integral cutoff          0.2500000E+02      :
          :  -> integral neglect         0.1000000E-07      :
          :  -> SCF convergence          0.1000000E-05 Eh   :
          :  -> wf. convergence          0.1000000E-03 e    :
          :  Broyden damping             0.4000000          :
          ...................................................

 iter      E             dE          RMSdq      gap      omega  full diag
   1   -346.7385333 -0.346739E+03  0.432E+00    0.40       0.0  T
   2   -346.9384941 -0.199961E+00  0.251E+00    0.69       1.0  T
   3   -346.7853339  0.153160E+00  0.120E+00    0.30       1.0  T
   4   -346.9767611 -0.191427E+00  0.464E-01    0.47       1.0  T
   5   -347.0046340 -0.278729E-01  0.152E-01    0.39       1.0  T
   6   -347.0056144 -0.980347E-03  0.672E-02    0.41       1.0  T
   7   -347.0059198 -0.305485E-03  0.254E-02    0.40       1.0  T
   8   -347.0059501 -0.302754E-04  0.148E-02    0.41       1.0  T
   9   -347.0059636 -0.134670E-04  0.764E-03    0.41       1.0  T
  10   -347.0059658 -0.218254E-05  0.395E-03    0.41       1.7  T
  11   -347.0059668 -0.107349E-05  0.224E-03    0.41       3.1  T
  12   -347.0059670 -0.161585E-06  0.119E-03    0.41       5.8  T
  13   -347.0059671 -0.100720E-06  0.511E-04    0.41      13.5  T
  14   -347.0059671 -0.147020E-07  0.280E-04    0.41      24.6  T

   *** convergence criteria satisfied after 14 iterations ***

         #    Occupation            Energy/Eh            Energy/eV
      -------------------------------------------------------------
         1        2.0000           -0.7444292             -20.2569
       ...           ...                  ...                  ...
       311        2.0000           -0.3735280             -10.1642
       312        2.0000           -0.3678502             -10.0097
       313        2.0000           -0.3626051              -9.8670
       314        2.0000           -0.3598179              -9.7911
       315        2.0000           -0.3556901              -9.6788
       316        2.0000           -0.3512000              -9.5566
       317        1.9993           -0.3454865              -9.4012 (HOMO)
       318        0.0007           -0.3304496              -8.9920 (LUMO)
       319        0.0000           -0.3241866              -8.8216
       320                         -0.3191405              -8.6843
       321                         -0.3138482              -8.5402
       322                         -0.2866643              -7.8005
       ...                                ...                  ...
       649                          1.1548769              31.4258
      -------------------------------------------------------------
                  HL-Gap            0.0150368 Eh            0.4092 eV
             Fermi-level           -0.3379675 Eh           -9.1966 eV

 SCC (total)                   0 d,  0 h,  0 min,  0.757 sec
 SCC setup                      ...        0 min,  0.006 sec (  0.800%)
 Dispersion                     ...        0 min,  0.011 sec (  1.471%)
 classical contributions        ...        0 min,  0.000 sec (  0.056%)
 integral evaluation            ...        0 min,  0.039 sec (  5.163%)
 iterations                     ...        0 min,  0.562 sec ( 74.277%)
 molecular gradient             ...        0 min,  0.134 sec ( 17.745%)
 printout                       ...        0 min,  0.004 sec (  0.478%)

         :::::::::::::::::::::::::::::::::::::::::::::::::::::
         ::                     SUMMARY                     ::
         :::::::::::::::::::::::::::::::::::::::::::::::::::::
         :: total energy            -341.281889419443 Eh    ::
         :: total w/o Gsasa/hb      -341.259349763210 Eh    ::
         :: gradient norm              0.034618679392 Eh/a0 ::
         :: HOMO-LUMO gap              0.409173469526 eV    ::
         ::.................................................::
         :: SCC energy              -347.005967120282 Eh    ::
         :: -> isotropic ES            0.148858127682 Eh    ::
         :: -> anisotropic ES          0.020026314519 Eh    ::
         :: -> anisotropic XC          0.218169984769 Eh    ::
         :: -> dispersion             -0.384145447905 Eh    ::
         :: -> Gsolv                  -0.056248383370 Eh    ::
         ::    -> Gelec               -0.033708727138 Eh    ::
         ::    -> Gsasa               -0.016940817935 Eh    ::
         ::    -> Ghb                 -0.006679597996 Eh    ::
         ::    -> Gshift               0.001080759698 Eh    ::
         :: repulsion energy           5.709981467892 Eh    ::
         :: add. restraining           0.000000000000 Eh    ::
         :: total charge               0.000000000000 e     ::
         :::::::::::::::::::::::::::::::::::::::::::::::::::::

           -------------------------------------------------
          |                Property Printout                |
           -------------------------------------------------

    * Orbital Energies and Occupations

         #    Occupation            Energy/Eh            Energy/eV
      -------------------------------------------------------------
         1        2.0000           -0.7444292             -20.2569
       ...           ...                  ...                  ...
       305        2.0000           -0.3942597             -10.7284
       306        2.0000           -0.3929162             -10.6918
       307        2.0000           -0.3922802             -10.6745
       308        2.0000           -0.3884528             -10.5703
       309        2.0000           -0.3831640             -10.4264
       310        2.0000           -0.3818652             -10.3911
       311        2.0000           -0.3735280             -10.1642
       312        2.0000           -0.3678502             -10.0097
       313        2.0000           -0.3626051              -9.8670
       314        2.0000           -0.3598179              -9.7911
       315        2.0000           -0.3556901              -9.6788
       316        2.0000           -0.3512000              -9.5566
       317        1.9993           -0.3454865              -9.4012 (HOMO)
       318        0.0007           -0.3304496              -8.9920 (LUMO)
       319        0.0000           -0.3241866              -8.8216
       320                         -0.3191405              -8.6843
       321                         -0.3138482              -8.5402
       322                         -0.2866643              -7.8005
       323                         -0.2673129              -7.2740
       324                         -0.2557885              -6.9604
       325                         -0.2507142              -6.8223
       326                         -0.2477266              -6.7410
       327                         -0.2462692              -6.7013
       328                         -0.2437645              -6.6332
       ...                                ...                  ...
       649                          1.1548769              31.4258
      -------------------------------------------------------------
                  HL-Gap            0.0150368 Eh            0.4092 eV
             Fermi-level           -0.3379675 Eh           -9.1966 eV

     #   Z          covCN         q      C6AA      α(0)
     1   6 C        2.921    -0.020    28.513     8.757
     2   6 C        3.008    -0.051    29.249     8.872
     3   6 C        2.876     0.226    23.266     7.907
     4   8 O        0.949    -0.422    22.079     6.302
     5   6 C        3.062    -0.026    28.579     8.767
     6   6 C        2.904    -0.024    28.610     8.770
     7   6 C        3.259     0.011    26.618     8.338
     8   6 C        3.256     0.012    26.633     8.345
     9   6 C        2.904    -0.035    28.873     8.811
    10   6 C        3.050     0.002    27.931     8.668
    11   6 C        3.024     0.030    27.305     8.571
    12   6 C        2.947    -0.010    28.268     8.720
    13   6 C        1.947     0.125    28.019     8.548
    14   7 N        0.911    -0.298    27.666     7.607
    15   6 C        1.948     0.132    27.853     8.523
    16   7 N        0.911    -0.300    27.727     7.616
    17   6 C        4.163    -0.024    20.922     6.496
    18   6 C        4.013    -0.016    20.783     6.476
    19   6 C        2.995    -0.044    29.081     8.846
    20   6 C        2.995    -0.045    29.095     8.848
    21   6 C        4.013    -0.016    20.786     6.477
    22   6 C        3.915    -0.062    21.621     6.609
    23   6 C        4.160    -0.024    20.918     6.496
    24   6 C        2.985     0.004    27.919     8.667
    25   6 C        3.043     0.058    26.649     8.467
    26   7 N        2.748    -0.051    22.218     7.001
    27   6 C        2.931     0.057    26.720     8.477
    28   6 C        2.920    -0.045    29.115     8.848
    29   6 C        2.926    -0.042    29.032     8.836
    30   6 C        2.966     0.021    27.526     8.606
    31   6 C        3.758    -0.123    22.902     6.823
    32   6 C        2.925    -0.038    28.946     8.823
    33   6 C        2.921    -0.044    29.089     8.845
    34   6 C        2.924     0.057    26.733     8.479
    35   6 C        2.920    -0.051    29.267     8.872
    36   6 C        2.925    -0.044    29.092     8.845
    37   6 C        2.965     0.012    27.733     8.638
    38   6 C        3.758    -0.121    22.871     6.818
    39   6 C        2.926    -0.040    28.999     8.831
    40   6 C        2.920    -0.042    29.055     8.839
    41   6 C        3.150    -0.001    27.761     8.618
    42  16 S        2.229    -0.053   143.271    20.146
    43   6 C        3.038     0.009    27.779     8.645
    44   6 C        3.070     0.047    26.875     8.500
    45   7 N        2.759    -0.068    22.555     7.054
    46   6 C        2.932     0.060    26.662     8.468
    47   6 C        2.920    -0.044    29.084     8.844
    48   6 C        2.926    -0.038    28.955     8.824
    49   6 C        2.966     0.015    27.684     8.630
    50   6 C        3.758    -0.116    22.781     6.805
    51   6 C        2.925    -0.041    29.020     8.834
    52   6 C        2.923    -0.046    29.136     8.852
    53   6 C        2.924     0.058    26.695     8.473
    54   6 C        2.922    -0.048    29.181     8.859
    55   6 C        2.926    -0.040    28.988     8.830
    56   6 C        2.965     0.010    27.791     8.647
    57   6 C        3.757    -0.121    22.881     6.820
    58   6 C        2.926    -0.042    29.044     8.838
    59   6 C        2.920    -0.053    29.313     8.879
    60   6 C        3.154    -0.001    27.762     8.616
    61  16 S        2.298    -0.041   142.748    20.109
    62   6 C        3.018    -0.001    28.023     8.683
    63   6 C        3.052     0.048    26.866     8.501
    64   7 N        2.749    -0.053    22.263     7.008
    65   6 C        2.922     0.058    26.705     8.474
    66   6 C        2.923    -0.050    29.230     8.866
    67   6 C        2.943    -0.044    29.082     8.845
    68   6 C        2.966     0.044    27.004     8.524
    69  16 S        2.033    -0.190   149.116    20.553
    70   6 C        3.744    -0.063    21.778     6.657
    71   6 C        2.984    -0.042    29.024     8.837
    72   6 C        2.923    -0.046    29.135     8.852
    73   6 C        2.935     0.057    26.714     8.477
    74   6 C        2.926    -0.042    29.055     8.840
    75   6 C        2.945    -0.042    29.040     8.838
    76   6 C        2.966     0.050    26.885     8.505
    77  16 S        2.034    -0.192   149.213    20.559
    78   6 C        3.744    -0.055    21.643     6.637
    79   6 C        2.982    -0.041    29.011     8.835
    80   6 C        2.921    -0.042    29.044     8.838
    81   6 C        3.172     0.003    27.574     8.577
    82  16 S        2.260    -0.052   143.216    20.142
    83   6 C        3.036    -0.005    28.124     8.698
    84   6 C        3.063     0.051    26.792     8.488
    85   7 N        2.749    -0.063    22.453     7.038
    86   6 C        2.927     0.059    26.684     8.471
    87   6 C        2.923    -0.047    29.175     8.858
    88   6 C        2.943    -0.045    29.107     8.848
    89   6 C        2.966     0.045    26.985     8.521
    90  16 S        2.034    -0.187   148.999    20.545
    91   6 C        3.745    -0.059    21.713     6.647
    92   6 C        2.985    -0.039    28.952     8.826
    93   6 C        2.923    -0.045    29.117     8.849
    94   6 C        2.926     0.057    26.713     8.476
    95   6 C        2.925    -0.046    29.148     8.854
    96   6 C        2.944    -0.043    29.065     8.842
    97   6 C        2.966     0.044    27.000     8.523
    98  16 S        2.030    -0.201   149.624    20.588
    99   6 C        3.744    -0.050    21.542     6.621
   100   6 C        2.980    -0.042    29.031     8.838
   101   6 C        2.922    -0.045    29.111     8.848
   102   6 C        3.171     0.002    27.595     8.581
   103  16 S        2.278    -0.058   143.456    20.159
   104   6 C        3.030     0.024    27.449     8.594
   105   6 C        3.075    -0.047    29.081     8.842
   106   6 C        3.100    -0.037    28.797     8.794
   107   6 C        2.983     0.026    27.412     8.588
   108  16 S        2.402     0.022   140.140    19.924
   109   6 C        2.919    -0.011    28.288     8.722
   110   6 C        3.006    -0.041    28.994     8.833
   111   6 C        2.876     0.225    23.280     7.910
   112   8 O        0.952    -0.417    21.979     6.288
   113   6 C        3.060    -0.024    28.537     8.760
   114   6 C        2.904    -0.024    28.593     8.768
   115   6 C        3.261     0.014    26.537     8.322
   116   6 C        3.257     0.014    26.573     8.334
   117   6 C        2.905    -0.033    28.824     8.803
   118   6 C        3.049     0.003    27.904     8.663
   119   6 C        3.020     0.037    27.147     8.547
   120   6 C        2.947     0.001    28.003     8.679
   121   6 C        1.949     0.135    27.786     8.513
   122   7 N        0.911    -0.288    27.425     7.574
   123   6 C        1.948     0.133    27.832     8.520
   124   7 N        0.911    -0.290    27.467     7.580
   125   6 C        4.164    -0.028    20.978     6.505
   126   6 C        4.012    -0.016    20.787     6.477
   127   6 C        2.987    -0.042    29.030     8.838
   128   6 C        2.987    -0.043    29.061     8.843
   129   6 C        4.012    -0.016    20.790     6.477
   130   6 C        3.926    -0.066    21.691     6.619
   131   6 C        4.162    -0.027    20.976     6.505
   132   1 H        0.925     0.055     2.254     2.348
   133   1 H        0.926     0.058     2.227     2.334
   134   1 H        0.926     0.051     2.312     2.378
   135   1 H        0.925     0.052     2.297     2.370
   136   1 H        0.925     0.040     2.447     2.446
   137   1 H        0.926     0.044     2.401     2.423
   138   1 H        0.926     0.045     2.383     2.414
   139   1 H        0.925     0.043     2.406     2.425
   140   1 H        0.925     0.044     2.394     2.420
   141   1 H        0.925     0.032     2.552     2.498
   142   1 H        0.925     0.054     2.275     2.359
   143   1 H        0.926     0.043     2.408     2.426
   144   1 H        0.926     0.052     2.290     2.366
   145   1 H        0.924     0.065     2.142     2.289
   146   1 H        0.925     0.056     2.247     2.344
   147   1 H        0.925     0.057     2.234     2.337
   148   1 H        0.926     0.049     2.327     2.385
   149   1 H        0.926     0.026     2.641     2.541
   150   1 H        0.926     0.029     2.607     2.525
   151   1 H        0.926     0.042     2.427     2.436
   152   1 H        0.924     0.051     2.312     2.378
   153   1 H        0.925     0.061     2.185     2.311
   154   1 H        0.925     0.053     2.282     2.362
   155   1 H        0.926     0.046     2.367     2.406
   156   1 H        0.926     0.050     2.317     2.381
   157   1 H        0.926     0.039     2.464     2.455
   158   1 H        0.926     0.044     2.403     2.424
   159   1 H        0.925     0.054     2.276     2.359
   160   1 H        0.925     0.052     2.295     2.369
   161   1 H        0.925     0.051     2.310     2.377
   162   1 H        0.926     0.037     2.490     2.468
   163   1 H        0.926     0.026     2.643     2.542
   164   1 H        0.926     0.039     2.456     2.450
   165   1 H        0.926     0.040     2.452     2.449
   166   1 H        0.925     0.051     2.313     2.379
   167   1 H        0.925     0.051     2.305     2.374
   168   1 H        0.924     0.058     2.217     2.329
   169   1 H        0.926     0.035     2.512     2.478
   170   1 H        0.926     0.022     2.705     2.572
   171   1 H        0.926     0.035     2.511     2.478
   172   1 H        0.926     0.046     2.365     2.405
   173   1 H        0.925     0.066     2.132     2.283
   174   1 H        0.925     0.079     1.988     2.205
   175   1 H        0.925     0.070     2.090     2.260
   176   1 H        0.926     0.059     2.213     2.326
   177   1 H        0.926     0.047     2.353     2.399
   178   1 H        0.926     0.040     2.455     2.450
   179   1 H        0.926     0.052     2.294     2.368
   180   1 H        0.925     0.071     2.070     2.250
   181   1 H        0.925     0.067     2.118     2.276
   182   1 H        0.925     0.072     2.067     2.248
   183   1 H        0.926     0.055     2.252     2.347
   184   1 H        0.926     0.053     2.288     2.366
   185   1 H        0.926     0.043     2.405     2.425
   186   1 H        0.926     0.051     2.301     2.372
   187   1 H        0.925     0.071     2.076     2.253
   188   1 H        0.925     0.077     2.011     2.218
   189   1 H        0.925     0.064     2.147     2.292
   190   1 H        0.926     0.053     2.278     2.360
   191   1 H        0.926     0.045     2.380     2.413
   192   1 H        0.926     0.040     2.452     2.449
   193   1 H        0.926     0.045     2.386     2.416
   194   1 H        0.925     0.069     2.095     2.263
   195   1 H        0.925     0.078     1.995     2.209
   196   1 H        0.925     0.047     2.353     2.399
   197   1 H        0.926     0.055     2.262     2.352
   198   1 H        0.926     0.057     2.237     2.339
   199   1 H        0.926     0.064     2.147     2.292
   200   1 H        0.926     0.067     2.122     2.278
   201   1 H        0.925     0.066     2.126     2.280
   202   1 H        0.926     0.063     2.167     2.302
   203   1 H        0.926     0.054     2.275     2.359
   204   1 H        0.925     0.059     2.205     2.322
   205   1 H        0.925     0.043     2.412     2.429
   206   1 H        0.926     0.028     2.614     2.528
   207   1 H        0.926     0.032     2.560     2.502
   208   1 H        0.925     0.046     2.371     2.408
   209   1 H        0.925     0.048     2.339     2.392
   210   1 H        0.925     0.050     2.323     2.383
   211   1 H        0.925     0.062     2.177     2.307

 Mol. C6AA /au·bohr⁶  :     739543.886080
 Mol. C8AA /au·bohr⁸  :   20559249.478096
 Mol. α(0) /au        :       1378.492974


Wiberg/Mayer (AO) data.
largest (>0.10) Wiberg bond orders for each atom

 ---------------------------------------------------------------------------
     #   Z sym  total        # sym  WBO       # sym  WBO       # sym  WBO
 ---------------------------------------------------------------------------
     1   6 C    3.939 --     2 C    1.427    24 C    1.368   132 H    0.932
     2   6 C    3.945 --     1 C    1.427    11 C    1.173     3 C    1.079
     3   6 C    3.903 --     4 O    1.667     2 C    1.079     5 C    1.027
     4   8 O    2.056 --     3 C    1.667    61 S    0.118
     5   6 C    3.967 --     6 C    1.383    10 C    1.311     3 C    1.027
     6   6 C    3.978 --     7 C    1.437     5 C    1.383   133 H    0.964
     7   6 C    3.953 --     6 C    1.437     8 C    1.329    23 C    0.993
     8   6 C    3.965 --     9 C    1.442     7 C    1.329    17 C    0.994
     9   6 C    3.973 --     8 C    1.442    10 C    1.371   134 H    0.959
    10   6 C    3.976 --     9 C    1.371     5 C    1.311    11 C    1.081
    11   6 C    3.963 --    12 C    1.433     2 C    1.173    10 C    1.081
    12   6 C    3.943 --    11 C    1.433    13 C    1.112    15 C    1.111
    13   6 C    3.940 --    14 N    2.720    12 C    1.112
    14   7 N    2.946 --    13 C    2.720
    15   6 C    3.937 --    16 N    2.732    12 C    1.111
    16   7 N    2.942 --    15 C    2.732
    17   6 C    3.983 --     8 C    0.994    23 C    0.975   135 H    0.960
                            18 C    0.951
    18   6 C    3.989 --    19 C    1.004    22 C    0.989   136 H    0.971
                            17 C    0.951
    19   6 C    3.981 --    20 C    1.924    18 C    1.004   137 H    0.970
    20   6 C    3.981 --    19 C    1.924    21 C    1.003   138 H    0.970
    21   6 C    3.988 --    20 C    1.003    22 C    0.989   139 H    0.970
                            23 C    0.950
    22   6 C    3.994 --    21 C    0.989    18 C    0.989   140 H    0.978
                           141 H    0.974
    23   6 C    3.982 --     7 C    0.993    17 C    0.975   142 H    0.960
                            21 C    0.950
    24   6 C    3.920 --     1 C    1.368    25 C    1.252    61 S    1.071
    25   6 C    3.944 --    41 C    1.290    24 C    1.252    26 N    1.147
    26   7 N    3.520 --    25 C    1.147    34 C    1.040    27 C    1.030
    27   6 C    3.955 --    33 C    1.370    28 C    1.366    26 N    1.030
    28   6 C    3.974 --    29 C    1.463    27 C    1.366   143 H    0.967
                            32 C    0.103
    29   6 C    3.988 --    28 C    1.463    30 C    1.396   144 H    0.968
                            33 C    0.103
    30   6 C    3.970 --    32 C    1.401    29 C    1.396    31 C    1.030
    31   6 C    3.992 --    30 C    1.030   146 H    0.980   147 H    0.976
                           145 H    0.962
    32   6 C    3.988 --    33 C    1.457    30 C    1.401   148 H    0.966
                            28 C    0.103
    33   6 C    3.981 --    32 C    1.457    27 C    1.370   149 H    0.968
                            29 C    0.103
    34   6 C    3.960 --    40 C    1.365    35 C    1.364    26 N    1.040
    35   6 C    3.984 --    36 C    1.461    34 C    1.364   150 H    0.968
                            39 C    0.105
    36   6 C    3.988 --    35 C    1.461    37 C    1.397   151 H    0.968
    37   6 C    3.978 --    39 C    1.403    36 C    1.397    38 C    1.028
    38   6 C    3.994 --    37 C    1.028   154 H    0.984   153 H    0.974
                           152 H    0.967
    39   6 C    3.990 --    40 C    1.456    37 C    1.403   155 H    0.968
                            35 C    0.105
    40   6 C    3.980 --    39 C    1.456    34 C    1.365   156 H    0.965
    41   6 C    3.927 --    60 C    1.322    25 C    1.290    42 S    1.088
    42  16 S    2.522 --    41 C    1.088    43 C    1.087
    43   6 C    3.902 --    44 C    1.364    62 C    1.225    42 S    1.087
    44   6 C    3.939 --    43 C    1.364    60 C    1.255    45 N    1.075
    45   7 N    3.487 --    44 C    1.075    53 C    1.052    46 C    1.034
    46   6 C    3.963 --    47 C    1.373    52 C    1.370    45 N    1.034
    47   6 C    3.983 --    48 C    1.457    46 C    1.373   157 H    0.967
                            51 C    0.104
    48   6 C    3.989 --    47 C    1.457    49 C    1.400   158 H    0.968
                            52 C    0.104
    49   6 C    3.976 --    51 C    1.401    48 C    1.400    50 C    1.027
    50   6 C    3.995 --    49 C    1.027   159 H    0.982   160 H    0.980
                           161 H    0.966
    51   6 C    3.990 --    52 C    1.457    49 C    1.401   162 H    0.969
                            47 C    0.104
    52   6 C    3.984 --    51 C    1.457    46 C    1.370   163 H    0.968
                            48 C    0.104
    53   6 C    3.960 --    59 C    1.365    54 C    1.361    45 N    1.052
    54   6 C    3.983 --    55 C    1.460    53 C    1.361   164 H    0.962
                            58 C    0.103
    55   6 C    3.989 --    54 C    1.460    56 C    1.400   165 H    0.967
                            59 C    0.103
    56   6 C    3.977 --    58 C    1.401    55 C    1.400    57 C    1.027
    57   6 C    3.994 --    56 C    1.027   166 H    0.982   167 H    0.980
                           168 H    0.966
    58   6 C    3.989 --    59 C    1.459    56 C    1.401   169 H    0.968
                            54 C    0.103
    59   6 C    3.983 --    58 C    1.459    53 C    1.365   170 H    0.966
                            55 C    0.103
    60   6 C    3.938 --    41 C    1.322    44 C    1.255    61 S    1.128
    61  16 S    2.656 --    60 C    1.128    24 C    1.071     4 O    0.118
    62   6 C    3.907 --    63 C    1.369    43 C    1.225   103 S    1.069
    63   6 C    3.934 --    62 C    1.369    81 C    1.223    64 N    1.107
    64   7 N    3.498 --    63 C    1.107    65 C    1.063    73 C    1.032
    65   6 C    3.960 --    66 C    1.364    72 C    1.340    64 N    1.063
    66   6 C    3.981 --    67 C    1.452    65 C    1.364   171 H    0.965
    67   6 C    3.988 --    66 C    1.452    68 C    1.388   172 H    0.963
    68   6 C    3.950 --    67 C    1.388    71 C    1.364    69 S    1.046
    69  16 S    2.251 --    68 C    1.046    70 C    1.009
    70   6 C    3.969 --    69 S    1.009   173 H    0.980   175 H    0.980
                           174 H    0.975
    71   6 C    3.988 --    72 C    1.482    68 C    1.364   176 H    0.963
    72   6 C    3.979 --    71 C    1.482    65 C    1.340   177 H    0.965
    73   6 C    3.960 --    74 C    1.369    80 C    1.358    64 N    1.032
    74   6 C    3.982 --    75 C    1.452    73 C    1.369   178 H    0.967
                            79 C    0.100
    75   6 C    3.988 --    74 C    1.452    76 C    1.386   179 H    0.964
    76   6 C    3.952 --    75 C    1.386    79 C    1.367    77 S    1.052
    77  16 S    2.250 --    76 C    1.052    78 C    1.006
    78   6 C    3.967 --    77 S    1.006   181 H    0.980   182 H    0.977
                           180 H    0.976
    79   6 C    3.988 --    80 C    1.476    76 C    1.367   183 H    0.966
                            74 C    0.100
    80   6 C    3.980 --    79 C    1.476    73 C    1.358   184 H    0.965
    81   6 C    3.929 --   102 C    1.370    63 C    1.223    82 S    1.110
    82  16 S    2.540 --    81 C    1.110    83 C    1.090
    83   6 C    3.898 --    84 C    1.389   104 C    1.166    82 S    1.090
    84   6 C    3.942 --    83 C    1.389   102 C    1.225    85 N    1.095
    85   7 N    3.480 --    84 C    1.095    86 C    1.051    94 C    1.038
    86   6 C    3.960 --    87 C    1.367    93 C    1.346    85 N    1.051
    87   6 C    3.978 --    88 C    1.454    86 C    1.367   185 H    0.966
                            92 C    0.101
    88   6 C    3.987 --    87 C    1.454    89 C    1.385   186 H    0.963
    89   6 C    3.949 --    88 C    1.385    92 C    1.365    90 S    1.051
    90  16 S    2.255 --    89 C    1.051    91 C    1.008
    91   6 C    3.969 --    90 S    1.008   187 H    0.979   189 H    0.977
                           188 H    0.976
    92   6 C    3.988 --    93 C    1.475    89 C    1.365   190 H    0.965
                            87 C    0.101
    93   6 C    3.982 --    92 C    1.475    86 C    1.346   191 H    0.966
    94   6 C    3.963 --    95 C    1.371   101 C    1.360    85 N    1.038
    95   6 C    3.987 --    96 C    1.453    94 C    1.371   192 H    0.966
                           100 C    0.102
    96   6 C    3.989 --    95 C    1.453    97 C    1.386   193 H    0.964
    97   6 C    3.956 --    96 C    1.386   100 C    1.369    98 S    1.043
    98  16 S    2.248 --    97 C    1.043    99 C    1.009
    99   6 C    3.972 --    98 S    1.009   195 H    0.979   196 H    0.978
                           194 H    0.977
   100   6 C    3.988 --   101 C    1.471    97 C    1.369   197 H    0.966
                            95 C    0.102
   101   6 C    3.983 --   100 C    1.471    94 C    1.360   198 H    0.965
   102   6 C    3.930 --    81 C    1.370    84 C    1.225   103 S    1.110
   103  16 S    2.566 --   102 C    1.110    62 C    1.069
   104   6 C    3.932 --   105 C    1.391   108 S    1.181    83 C    1.166
   105   6 C    3.963 --   106 C    1.441   104 C    1.391   199 H    0.962
   106   6 C    3.959 --   105 C    1.441   107 C    1.349   200 H    0.961
   107   6 C    3.940 --   106 C    1.349   109 C    1.312   108 S    1.107
   108  16 S    2.745 --   104 C    1.181   107 C    1.107   112 O    0.124
   109   6 C    3.942 --   110 C    1.474   107 C    1.312   201 H    0.939
   110   6 C    3.958 --   109 C    1.474   119 C    1.145   111 C    1.076
   111   6 C    3.910 --   112 O    1.661   110 C    1.076   113 C    1.035
   112   8 O    2.069 --   111 C    1.661   108 S    0.124
   113   6 C    3.970 --   114 C    1.381   118 C    1.304   111 C    1.035
   114   6 C    3.978 --   115 C    1.438   113 C    1.381   202 H    0.963
   115   6 C    3.952 --   114 C    1.438   116 C    1.326   131 C    0.997
   116   6 C    3.963 --   117 C    1.444   115 C    1.326   125 C    0.999
   117   6 C    3.977 --   116 C    1.444   118 C    1.370   203 H    0.958
   118   6 C    3.976 --   117 C    1.370   113 C    1.304   119 C    1.088
   119   6 C    3.961 --   120 C    1.464   110 C    1.145   118 C    1.088
   120   6 C    3.942 --   119 C    1.464   121 C    1.103   123 C    1.102
   121   6 C    3.938 --   122 N    2.743   120 C    1.103
   122   7 N    2.952 --   121 C    2.743
   123   6 C    3.939 --   124 N    2.736   120 C    1.102
   124   7 N    2.949 --   123 C    2.736
   125   6 C    3.983 --   116 C    0.999   131 C    0.977   204 H    0.957
                           126 C    0.946
   126   6 C    3.989 --   127 C    1.010   130 C    0.985   205 H    0.972
                           125 C    0.946
   127   6 C    3.987 --   128 C    1.923   126 C    1.010   206 H    0.972
   128   6 C    3.987 --   127 C    1.923   129 C    1.010   207 H    0.971
   129   6 C    3.987 --   128 C    1.010   130 C    0.985   208 H    0.971
                           131 C    0.945
   130   6 C    3.991 --   126 C    0.985   129 C    0.985   210 H    0.977
                           209 H    0.976
   131   6 C    3.982 --   115 C    0.997   125 C    0.977   211 H    0.957
                           129 C    0.945
   132   1 H    0.996 --     1 C    0.932
   133   1 H    0.996 --     6 C    0.964
   134   1 H    0.997 --     9 C    0.959
   135   1 H    0.996 --    17 C    0.960
   136   1 H    0.998 --    18 C    0.971
   137   1 H    0.998 --    19 C    0.970
   138   1 H    0.998 --    20 C    0.970
   139   1 H    0.998 --    21 C    0.970
   140   1 H    0.998 --    22 C    0.978
   141   1 H    0.999 --    22 C    0.974
   142   1 H    0.995 --    23 C    0.960
   143   1 H    0.998 --    28 C    0.967
   144   1 H    0.997 --    29 C    0.968
   145   1 H    0.994 --    31 C    0.962
   146   1 H    0.996 --    31 C    0.980
   147   1 H    0.996 --    31 C    0.976
   148   1 H    0.997 --    32 C    0.966
   149   1 H    0.999 --    33 C    0.968
   150   1 H    0.999 --    35 C    0.968
   151   1 H    0.998 --    36 C    0.968
   152   1 H    0.996 --    38 C    0.967
   153   1 H    0.995 --    38 C    0.974
   154   1 H    0.997 --    38 C    0.984
   155   1 H    0.997 --    39 C    0.968
   156   1 H    0.997 --    40 C    0.965
   157   1 H    0.998 --    47 C    0.967
   158   1 H    0.998 --    48 C    0.968
   159   1 H    0.997 --    50 C    0.982
   160   1 H    0.997 --    50 C    0.980
   161   1 H    0.996 --    50 C    0.966
   162   1 H    0.998 --    51 C    0.969
   163   1 H    0.999 --    52 C    0.968
   164   1 H    0.998 --    54 C    0.962
   165   1 H    0.998 --    55 C    0.967
   166   1 H    0.997 --    57 C    0.982
   167   1 H    0.996 --    57 C    0.980
   168   1 H    0.995 --    57 C    0.966
   169   1 H    0.998 --    58 C    0.968
   170   1 H    0.999 --    59 C    0.966
   171   1 H    0.999 --    66 C    0.965
   172   1 H    0.997 --    67 C    0.963
   173   1 H    0.995 --    70 C    0.980
   174   1 H    0.993 --    70 C    0.975
   175   1 H    0.995 --    70 C    0.980
   176   1 H    0.996 --    71 C    0.963
   177   1 H    0.997 --    72 C    0.965
   178   1 H    0.998 --    74 C    0.967
   179   1 H    0.997 --    75 C    0.964
   180   1 H    0.994 --    78 C    0.976
   181   1 H    0.995 --    78 C    0.980
   182   1 H    0.995 --    78 C    0.977
   183   1 H    0.996 --    79 C    0.966
   184   1 H    0.997 --    80 C    0.965
   185   1 H    0.998 --    87 C    0.966
   186   1 H    0.997 --    88 C    0.963
   187   1 H    0.994 --    91 C    0.979
   188   1 H    0.994 --    91 C    0.976
   189   1 H    0.996 --    91 C    0.977
   190   1 H    0.997 --    92 C    0.965
   191   1 H    0.998 --    93 C    0.966
   192   1 H    0.998 --    95 C    0.966
   193   1 H    0.998 --    96 C    0.964
   194   1 H    0.995 --    99 C    0.977
   195   1 H    0.993 --    99 C    0.979
   196   1 H    0.998 --    99 C    0.978
   197   1 H    0.997 --   100 C    0.966
   198   1 H    0.996 --   101 C    0.965
   199   1 H    0.995 --   105 C    0.962
   200   1 H    0.995 --   106 C    0.961
   201   1 H    0.995 --   109 C    0.939
   202   1 H    0.996 --   114 C    0.963
   203   1 H    0.997 --   117 C    0.958
   204   1 H    0.995 --   125 C    0.957
   205   1 H    0.998 --   126 C    0.972
   206   1 H    0.999 --   127 C    0.972
   207   1 H    0.999 --   128 C    0.971
   208   1 H    0.998 --   129 C    0.971
   209   1 H    0.995 --   130 C    0.976
   210   1 H    0.997 --   130 C    0.977
   211   1 H    0.994 --   131 C    0.957
 ---------------------------------------------------------------------------

Topologies differ in bond orders
Writing corrected topology to xtbtopo.mol

molecular dipole:
                 x           y           z       tot (Debye)
 q only:       -0.257      -0.538       0.258
   full:       -0.644      -0.820      -0.308       2.764
molecular quadrupole (traceless):
                xx          xy          yy          xz          yz          zz
 q only:       65.680    -110.622     -61.087      67.211     160.485      -4.594
  q+dip:       77.237    -119.188     -59.201      73.977     166.106     -18.036
   full:       77.097    -115.320     -53.198      76.594     165.318     -23.899


           -------------------------------------------------
          | TOTAL ENERGY             -341.281889419443 Eh   |
          | GRADIENT NORM               0.034618679392 Eh/α |
          | HOMO-LUMO GAP               0.409173469526 eV   |
           -------------------------------------------------

------------------------------------------------------------------------
 * finished run on 2022/02/17 at 21:32:27.103     
------------------------------------------------------------------------
 total:
 * wall-time:     0 d,  0 h,  0 min,  0.896 sec
 *  cpu-time:     0 d,  0 h,  0 min,  7.000 sec
 * ratio c/w:     7.813 speedup
 SCF:
 * wall-time:     0 d,  0 h,  0 min,  0.760 sec
 *  cpu-time:     0 d,  0 h,  0 min,  6.055 sec
 * ratio c/w:     7.968 speedup

