      -----------------------------------------------------------      
     |                   =====================                   |     
     |                           x T B                           |     
     |                   =====================                   |     
     |                         S. Grimme                         |     
     |          Mulliken Center for Theoretical Chemistry        |     
     |                    University of Bonn                     |     
      -----------------------------------------------------------      

   * xtb version 6.4.1 (unknown) compiled by 'oda6@login1.crc.pitt.edu' on 2021-06-25

   xtb is free software: you can redistribute it and/or modify it under
   the terms of the GNU Lesser General Public License as published by
   the Free Software Foundation, either version 3 of the License, or
   (at your option) any later version.
   
   xtb is distributed in the hope that it will be useful,
   but WITHOUT ANY WARRANTY; without even the implied warranty of
   MERCHANTABILITY or FITNESS FOR A PARTICULAR PURPOSE.  See the
   GNU Lesser General Public License for more details.
   
   Cite this work as:
   * C. Bannwarth, E. Caldeweyher, S. Ehlert, A. Hansen, P. Pracht,
     J. Seibert, S. Spicher, S. Grimme, WIREs Comput. Mol. Sci., 2020, 11,
     e01493. DOI: 10.1002/wcms.1493
   
   for GFN2-xTB:
   * C. Bannwarth, S. Ehlert and S. Grimme., J. Chem. Theory Comput., 2019,
     15, 1652-1671. DOI: 10.1021/acs.jctc.8b01176
   for GFN1-xTB:
   * S. Grimme, C. Bannwarth, P. Shushkov, J. Chem. Theory Comput., 2017,
     13, 1989-2009. DOI: 10.1021/acs.jctc.7b00118
   for GFN0-xTB:
   * P. Pracht, E. Caldeweyher, S. Ehlert, S. Grimme, ChemRxiv, 2019, preprint.
     DOI: 10.26434/chemrxiv.8326202.v1
   for GFN-FF:
   * S. Spicher and S. Grimme, Angew. Chem. Int. Ed., 2020, 59, 15665-15673.
     DOI: 10.1002/anie.202004239
   
   for DFT-D4:
   * E. Caldeweyher, C. Bannwarth and S. Grimme, J. Chem. Phys., 2017,
     147, 034112. DOI: 10.1063/1.4993215
   * E. Caldeweyher, S. Ehlert, A. Hansen, H. Neugebauer, S. Spicher,
     C. Bannwarth and S. Grimme, J. Chem. Phys., 2019, 150, 154122.
     DOI: 10.1063/1.5090222
   * E. Caldeweyher, J.-M. Mewes, S. Ehlert and S. Grimme, Phys. Chem. Chem. Phys.
     2020, 22, 8499-8512. DOI: 10.1039/D0CP00502A
   
   for sTDA-xTB:
   * S. Grimme and C. Bannwarth, J. Chem. Phys., 2016, 145, 054103.
     DOI: 10.1063/1.4959605
   
   in the mass-spec context:
   * V. Asgeirsson, C. Bauer and S. Grimme, Chem. Sci., 2017, 8, 4879.
     DOI: 10.1039/c7sc00601b
   * J. Koopman and S. Grimme, ACS Omega 2019, 4, 12, 15120-15133.
     DOI: 10.1021/acsomega.9b02011
   
   for metadynamics refer to:
   * S. Grimme, J. Chem. Theory Comput., 2019, 155, 2847-2862
     DOI: 10.1021/acs.jctc.9b00143
   
   for SPH calculations refer to:
   * S. Spicher and S. Grimme, J. Chem. Theory Comput., 2021, 17, 1701-1714
     DOI: 10.1021/acs.jctc.0c01306
   
   with help from (in alphabetical order)
   P. Atkinson, C. Bannwarth, F. Bohle, G. Brandenburg, E. Caldeweyher
   M. Checinski, S. Dohm, S. Ehlert, S. Ehrlich, I. Gerasimov, J. Koopman
   C. Lavigne, S. Lehtola, F. März, M. Müller, F. Musil, H. Neugebauer
   J. Pisarek, C. Plett, P. Pracht, J. Seibert, P. Shushkov, S. Spicher
   M. Stahn, M. Steiner, T. Strunk, J. Stückrath, T. Rose, and J. Unsleber
   
 * started run on 2022/02/16 at 03:26:04.134     

           -------------------------------------------------
          |                Calculation Setup                |
           -------------------------------------------------

          program call               : /ihome/ghutchison/oda6/xtb/xtb-641/bin/xtb ../../GFN2_output/39_28_127_122_10.mol --sp --alpb water
          hostname                   : smp-n25
          coordinate file            : ../../GFN2_output/39_28_127_122_10.mol
          omp threads                :                     8
          number of atoms            :                   203
          number of electrons        :                   602
          charge                     :                     0
          spin                       :                   0.0
          first test random number   :      0.86583295492260

   ID    Z sym.   atoms
    1    6 C      1-3, 5-13, 15, 17-25, 27-41, 43, 44, 46-60, 62, 63, 65, 67,
                  68, 70-73, 75-78, 80-108, 110-122, 124
    2    8 O      4, 109
    3    7 N      14, 16, 26, 45, 69, 74, 123, 125
    4   16 S      42, 61, 79
    5    9 F      64, 66
    6    1 H      126-203

           -------------------------------------------------
          |                 G F N 2 - x T B                 |
           -------------------------------------------------

        Reference                      10.1021/acs.jctc.8b01176
      * Hamiltonian:
        H0-scaling (s, p, d)           1.850000    2.230000    2.230000
        zeta-weighting                 0.500000
      * Dispersion:
        s8                             2.700000
        a1                             0.520000
        a2                             5.000000
        s9                             5.000000
      * Repulsion:
        kExp                           1.500000    1.000000
        rExp                           1.000000
      * Coulomb:
        alpha                          2.000000
        third order                    shell-resolved
        anisotropic                    true
        a3                             3.000000
        a5                             4.000000
        cn-shift                       1.200000
        cn-exp                         4.000000
        max-rad                        5.000000

      * Solvation model:               ALPB
        Solvent                        water
        Parameter file                 internal GFN2-xTB/ALPB
        Dielectric constant                8.0200E+01
        Reference state                gsolv [1 M gas/solution]
        Free energy shift                  1.0808E-03 Eh       6.7819E-01 kcal/mol
        Temperature                        2.9815E+02 K
        Density                            1.0000E+00 kg/L
        Solvent mass                       1.8000E+01 g/mol
        Interaction kernel             P16
        Born radius scaling (c1)           1.4744E+00
        Born radii integrator          GBOBC
        Born offset                        0.0000E+00 a0       0.0000E+00 AA
        H-bond correction              true
        Ion screening                  false
        Surface tension                    1.0000E-05 Eh       1.5569E+01 dyn/cm
        Grid points                               230 per atom

          ...................................................
          :                      SETUP                      :
          :.................................................:
          :  # basis functions                 596          :
          :  # atomic orbitals                 593          :
          :  # shells                          331          :
          :  # electrons                       602          :
          :  max. iterations                   250          :
          :  Hamiltonian                  GFN2-xTB          :
          :  restarted?                      false          :
          :  GBSA solvation                   true          :
          :  PC potential                    false          :
          :  electronic temp.          300.0000000     K    :
          :  accuracy                    1.0000000          :
          :  -> integral cutoff          0.2500000E+02      :
          :  -> integral neglect         0.1000000E-07      :
          :  -> SCF convergence          0.1000000E-05 Eh   :
          :  -> wf. convergence          0.1000000E-03 e    :
          :  Broyden damping             0.4000000          :
          ...................................................

 iter      E             dE          RMSdq      gap      omega  full diag
   1   -331.3753976 -0.331375E+03  0.450E+00    0.54       0.0  T
   2   -331.5521146 -0.176717E+00  0.268E+00    0.74       1.0  T
   3   -331.3529951  0.199119E+00  0.132E+00    0.55       1.0  T
   4   -331.6067669 -0.253772E+00  0.392E-01    0.54       1.0  T
   5   -331.6272326 -0.204657E-01  0.125E-01    0.52       1.0  T
   6   -331.6284457 -0.121316E-02  0.566E-02    0.54       1.0  T
   7   -331.6285815 -0.135782E-03  0.252E-02    0.55       1.0  T
   8   -331.6286227 -0.412143E-04  0.114E-02    0.55       1.0  T
   9   -331.6286315 -0.879693E-05  0.552E-03    0.56       1.3  T
  10   -331.6286329 -0.135917E-05  0.311E-03    0.56       2.3  T
  11   -331.6286334 -0.508015E-06  0.162E-03    0.56       4.3  T
  12   -331.6286335 -0.118094E-06  0.869E-04    0.56       8.1  T
  13   -331.6286336 -0.456693E-07  0.390E-04    0.56      18.0  T

   *** convergence criteria satisfied after 13 iterations ***

         #    Occupation            Energy/Eh            Energy/eV
      -------------------------------------------------------------
         1        2.0000           -0.8496107             -23.1191
       ...           ...                  ...                  ...
       295        2.0000           -0.3909259             -10.6376
       296        2.0000           -0.3891468             -10.5892
       297        2.0000           -0.3856029             -10.4928
       298        2.0000           -0.3728066             -10.1446
       299        2.0000           -0.3682294             -10.0200
       300        2.0000           -0.3618681              -9.8469
       301        2.0000           -0.3530566              -9.6072 (HOMO)
       302        0.0000           -0.3325350              -9.0487 (LUMO)
       303                         -0.3247659              -8.8373
       304                         -0.3170088              -8.6262
       305                         -0.3165234              -8.6130
       306                         -0.3086427              -8.3986
       ...                                ...                  ...
       593                          1.1536903              31.3935
      -------------------------------------------------------------
                  HL-Gap            0.0205216 Eh            0.5584 eV
             Fermi-level           -0.3427959 Eh           -9.3280 eV

 SCC (total)                   0 d,  0 h,  0 min,  3.378 sec
 SCC setup                      ...        0 min,  0.010 sec (  0.283%)
 Dispersion                     ...        0 min,  0.016 sec (  0.479%)
 classical contributions        ...        0 min,  0.001 sec (  0.015%)
 integral evaluation            ...        0 min,  0.112 sec (  3.309%)
 iterations                     ...        0 min,  3.020 sec ( 89.394%)
 molecular gradient             ...        0 min,  0.214 sec (  6.326%)
 printout                       ...        0 min,  0.006 sec (  0.191%)

         :::::::::::::::::::::::::::::::::::::::::::::::::::::
         ::                     SUMMARY                     ::
         :::::::::::::::::::::::::::::::::::::::::::::::::::::
         :: total energy            -326.023280930404 Eh    ::
         :: total w/o Gsasa/hb      -325.995339106303 Eh    ::
         :: gradient norm              0.034883041867 Eh/a0 ::
         :: HOMO-LUMO gap              0.558421435641 eV    ::
         ::.................................................::
         :: SCC energy              -331.628633562014 Eh    ::
         :: -> isotropic ES            0.177464794481 Eh    ::
         :: -> anisotropic ES          0.019664211199 Eh    ::
         :: -> anisotropic XC          0.205514502950 Eh    ::
         :: -> dispersion             -0.332598984088 Eh    ::
         :: -> Gsolv                  -0.063164591386 Eh    ::
         ::    -> Gelec               -0.035222767285 Eh    ::
         ::    -> Gsasa               -0.021817214839 Eh    ::
         ::    -> Ghb                 -0.007205368961 Eh    ::
         ::    -> Gshift               0.001080759698 Eh    ::
         :: repulsion energy           5.598127861507 Eh    ::
         :: add. restraining           0.000000000000 Eh    ::
         :: total charge               0.000000000000 e     ::
         :::::::::::::::::::::::::::::::::::::::::::::::::::::

           -------------------------------------------------
          |                Property Printout                |
           -------------------------------------------------

    * Orbital Energies and Occupations

         #    Occupation            Energy/Eh            Energy/eV
      -------------------------------------------------------------
         1        2.0000           -0.8496107             -23.1191
       ...           ...                  ...                  ...
       289        2.0000           -0.3999250             -10.8825
       290        2.0000           -0.3987336             -10.8501
       291        2.0000           -0.3983758             -10.8404
       292        2.0000           -0.3942436             -10.7279
       293        2.0000           -0.3927662             -10.6877
       294        2.0000           -0.3920119             -10.6672
       295        2.0000           -0.3909259             -10.6376
       296        2.0000           -0.3891468             -10.5892
       297        2.0000           -0.3856029             -10.4928
       298        2.0000           -0.3728066             -10.1446
       299        2.0000           -0.3682294             -10.0200
       300        2.0000           -0.3618681              -9.8469
       301        2.0000           -0.3530566              -9.6072 (HOMO)
       302        0.0000           -0.3325350              -9.0487 (LUMO)
       303                         -0.3247659              -8.8373
       304                         -0.3170088              -8.6262
       305                         -0.3165234              -8.6130
       306                         -0.3086427              -8.3986
       307                         -0.2736059              -7.4452
       308                         -0.2661314              -7.2418
       309                         -0.2642979              -7.1919
       310                         -0.2632717              -7.1640
       311                         -0.2517315              -6.8500
       312                         -0.2469862              -6.7208
       ...                                ...                  ...
       593                          1.1536903              31.3935
      -------------------------------------------------------------
                  HL-Gap            0.0205216 Eh            0.5584 eV
             Fermi-level           -0.3427959 Eh           -9.3280 eV

     #   Z          covCN         q      C6AA      α(0)
     1   6 C        2.920    -0.017    28.442     8.746
     2   6 C        3.007    -0.050    29.224     8.868
     3   6 C        2.876     0.226    23.266     7.907
     4   8 O        0.954    -0.419    22.010     6.292
     5   6 C        3.061    -0.025    28.566     8.765
     6   6 C        2.904    -0.025    28.634     8.774
     7   6 C        3.261     0.011    26.596     8.332
     8   6 C        3.258     0.012    26.615     8.339
     9   6 C        2.905    -0.035    28.861     8.809
    10   6 C        3.051     0.002    27.938     8.669
    11   6 C        3.023     0.032    27.265     8.565
    12   6 C        2.947    -0.009    28.242     8.716
    13   6 C        1.951     0.125    28.021     8.548
    14   7 N        0.911    -0.296    27.619     7.601
    15   6 C        1.952     0.133    27.834     8.520
    16   7 N        0.911    -0.299    27.692     7.611
    17   6 C        4.163    -0.028    20.980     6.505
    18   6 C        4.012    -0.016    20.790     6.477
    19   6 C        2.988    -0.042    29.038     8.839
    20   6 C        2.988    -0.043    29.050     8.841
    21   6 C        4.012    -0.017    20.793     6.478
    22   6 C        3.926    -0.066    21.693     6.619
    23   6 C        4.162    -0.027    20.976     6.505
    24   6 C        2.985     0.006    27.886     8.662
    25   6 C        3.044     0.061    26.590     8.457
    26   7 N        2.748    -0.040    22.011     6.968
    27   6 C        2.925     0.055    26.769     8.485
    28   6 C        2.920    -0.039    28.973     8.827
    29   6 C        2.926    -0.039    28.977     8.828
    30   6 C        2.966     0.016    27.662     8.627
    31   6 C        3.758    -0.125    22.941     6.829
    32   6 C        2.925    -0.043    29.079     8.843
    33   6 C        2.920    -0.050    29.247     8.869
    34   6 C        2.935     0.057    26.730     8.479
    35   6 C        2.920    -0.043    29.069     8.841
    36   6 C        2.925    -0.041    29.025     8.835
    37   6 C        2.966     0.022    27.520     8.605
    38   6 C        3.758    -0.127    22.989     6.836
    39   6 C        2.926    -0.040    28.987     8.829
    40   6 C        2.922    -0.042    29.036     8.837
    41   6 C        3.149    -0.001    27.765     8.619
    42  16 S        2.243    -0.040   142.691    20.105
    43   6 C        3.001     0.009    27.796     8.648
    44   6 C        3.056     0.055    26.724     8.478
    45   7 N        2.748    -0.064    22.472     7.041
    46   6 C        2.932     0.058    26.697     8.474
    47   6 C        2.921    -0.048    29.199     8.861
    48   6 C        2.926    -0.042    29.044     8.838
    49   6 C        2.966     0.015    27.666     8.628
    50   6 C        3.758    -0.122    22.884     6.820
    51   6 C        2.925    -0.040    29.004     8.832
    52   6 C        2.922    -0.045    29.129     8.851
    53   6 C        2.923     0.056    26.742     8.480
    54   6 C        2.922    -0.051    29.275     8.873
    55   6 C        2.926    -0.045    29.113     8.848
    56   6 C        2.966     0.007    27.851     8.656
    57   6 C        3.758    -0.111    22.678     6.790
    58   6 C        2.925    -0.046    29.147     8.854
    59   6 C        2.921    -0.056    29.392     8.890
    60   6 C        3.169    -0.001    27.674     8.595
    61  16 S        2.304    -0.026   142.148    20.067
    62   6 C        2.996    -0.021    28.514     8.759
    63   6 C        2.782     0.144    24.861     8.167
    64   9 F        0.787    -0.228    11.530     4.011
    65   6 C        2.782     0.137    24.995     8.189
    66   9 F        0.787    -0.231    11.561     4.016
    67   6 C        3.002    -0.017    28.429     8.746
    68   6 C        2.969     0.065    26.551     8.452
    69   7 N        1.981    -0.210    26.373     7.616
    70   6 C        2.940     0.095    25.893     8.346
    71   6 C        3.810    -0.072    21.868     6.657
    72   6 C        3.755    -0.110    22.657     6.787
    73   6 C        2.941     0.097    25.850     8.339
    74   7 N        1.850    -0.240    27.119     7.718
    75   6 C        2.967     0.069    26.451     8.436
    76   6 C        3.809    -0.070    21.841     6.653
    77   6 C        3.752    -0.105    22.569     6.775
    78   6 C        3.006     0.021    27.513     8.604
    79  16 S        2.397     0.007   140.766    19.969
    80   6 C        3.071     0.009    27.755     8.638
    81   6 C        3.037     0.009    27.776     8.644
    82   6 C        3.080     0.013    27.638     8.619
    83   6 C        3.950     0.014    20.270     6.398
    84   6 C        2.980     0.011    27.770     8.644
    85   6 C        2.921    -0.041    29.018     8.834
    86   6 C        2.925    -0.043    29.066     8.841
    87   6 C        2.971     0.011    27.771     8.644
    88   6 C        3.806    -0.063    21.712     6.633
    89   6 C        3.754    -0.107    22.595     6.778
    90   6 C        2.925    -0.042    29.046     8.838
    91   6 C        2.923    -0.037    28.920     8.819
    92   6 C        2.982     0.011    27.774     8.645
    93   6 C        2.923    -0.041    29.018     8.834
    94   6 C        2.925    -0.042    29.044     8.838
    95   6 C        2.971     0.011    27.758     8.642
    96   6 C        3.806    -0.064    21.725     6.635
    97   6 C        3.754    -0.106    22.586     6.777
    98   6 C        2.925    -0.042    29.055     8.840
    99   6 C        2.922    -0.038    28.955     8.824
   100   6 C        3.241    -0.010    27.321     8.474
   101   6 C        3.066    -0.046    29.072     8.841
   102   6 C        2.911    -0.032    28.792     8.799
   103   6 C        2.930    -0.034    28.838     8.807
   104   6 C        2.973     0.021    27.539     8.608
   105   6 C        2.915    -0.021    28.532     8.759
   106   6 C        2.905    -0.002    28.083     8.689
   107   6 C        3.003    -0.031    28.756     8.797
   108   6 C        2.867     0.235    23.083     7.875
   109   8 O        0.856    -0.410    21.879     6.271
   110   6 C        3.037    -0.023    28.544     8.763
   111   6 C        3.033     0.011    27.745     8.640
   112   6 C        2.909    -0.031    28.774     8.796
   113   6 C        2.921    -0.025    28.629     8.774
   114   6 C        2.985     0.022    27.519     8.605
   115   6 C        2.918    -0.034    28.844     8.807
   116   6 C        2.915    -0.025    28.625     8.773
   117   6 C        2.917    -0.025    28.629     8.774
   118   6 C        2.915    -0.032    28.802     8.801
   119   6 C        2.982     0.024    27.452     8.594
   120   6 C        3.020     0.039    27.103     8.540
   121   6 C        2.947     0.007    27.862     8.657
   122   6 C        1.940     0.132    27.851     8.523
   123   7 N        0.911    -0.277    27.159     7.537
   124   6 C        1.941     0.136    27.766     8.510
   125   7 N        0.911    -0.277    27.146     7.535
   126   1 H        0.925     0.059     2.207     2.323
   127   1 H        0.926     0.062     2.172     2.305
   128   1 H        0.926     0.051     2.304     2.374
   129   1 H        0.925     0.059     2.209     2.325
   130   1 H        0.925     0.043     2.413     2.429
   131   1 H        0.926     0.027     2.634     2.538
   132   1 H        0.926     0.029     2.596     2.519
   133   1 H        0.925     0.045     2.380     2.412
   134   1 H        0.925     0.051     2.313     2.378
   135   1 H        0.925     0.048     2.339     2.392
   136   1 H        0.925     0.061     2.189     2.313
   137   1 H        0.926     0.053     2.284     2.363
   138   1 H        0.926     0.050     2.316     2.380
   139   1 H        0.925     0.056     2.243     2.342
   140   1 H        0.925     0.063     2.164     2.300
   141   1 H        0.925     0.053     2.279     2.361
   142   1 H        0.926     0.046     2.375     2.410
   143   1 H        0.926     0.034     2.534     2.489
   144   1 H        0.926     0.049     2.332     2.388
   145   1 H        0.926     0.054     2.266     2.354
   146   1 H        0.925     0.061     2.190     2.314
   147   1 H        0.925     0.064     2.158     2.297
   148   1 H        0.925     0.056     2.244     2.342
   149   1 H        0.926     0.048     2.347     2.395
   150   1 H        0.926     0.032     2.555     2.500
   151   1 H        0.926     0.032     2.553     2.499
   152   1 H        0.926     0.042     2.424     2.435
   153   1 H        0.925     0.057     2.238     2.339
   154   1 H        0.924     0.055     2.256     2.349
   155   1 H        0.925     0.052     2.291     2.367
   156   1 H        0.926     0.045     2.388     2.417
   157   1 H        0.926     0.038     2.477     2.461
   158   1 H        0.926     0.040     2.448     2.447
   159   1 H        0.926     0.047     2.360     2.402
   160   1 H        0.924     0.063     2.159     2.298
   161   1 H        0.925     0.050     2.325     2.384
   162   1 H        0.925     0.043     2.415     2.430
   163   1 H        0.926     0.030     2.583     2.513
   164   1 H        0.926     0.020     2.730     2.584
   165   1 H        0.924     0.073     2.052     2.240
   166   1 H        0.925     0.067     2.117     2.276
   167   1 H        0.925     0.043     2.414     2.430
   168   1 H        0.925     0.061     2.183     2.310
   169   1 H        0.925     0.049     2.337     2.391
   170   1 H        0.924     0.068     2.111     2.272
   171   1 H        0.924     0.067     2.122     2.278
   172   1 H        0.925     0.060     2.201     2.320
   173   1 H        0.925     0.040     2.452     2.449
   174   1 H        0.925     0.044     2.400     2.423
   175   1 H        0.926     0.030     2.589     2.516
   176   1 H        0.926     0.036     2.498     2.472
   177   1 H        0.924     0.041     2.440     2.443
   178   1 H        0.924     0.041     2.435     2.440
   179   1 H        0.925     0.039     2.462     2.454
   180   1 H        0.925     0.039     2.460     2.453
   181   1 H        0.925     0.044     2.400     2.423
   182   1 H        0.926     0.036     2.507     2.476
   183   1 H        0.926     0.032     2.561     2.503
   184   1 H        0.926     0.031     2.566     2.505
   185   1 H        0.926     0.037     2.485     2.465
   186   1 H        0.924     0.042     2.419     2.432
   187   1 H        0.924     0.043     2.414     2.430
   188   1 H        0.925     0.037     2.483     2.464
   189   1 H        0.925     0.043     2.407     2.426
   190   1 H        0.925     0.038     2.473     2.459
   191   1 H        0.926     0.039     2.468     2.457
   192   1 H        0.926     0.034     2.530     2.487
   193   1 H        0.926     0.049     2.335     2.390
   194   1 H        0.926     0.055     2.257     2.349
   195   1 H        0.926     0.057     2.237     2.339
   196   1 H        0.926     0.060     2.195     2.317
   197   1 H        0.925     0.069     2.097     2.265
   198   1 H        0.926     0.056     2.249     2.345
   199   1 H        0.926     0.072     2.064     2.247
   200   1 H        0.926     0.061     2.192     2.315
   201   1 H        0.926     0.060     2.195     2.317
   202   1 H        0.926     0.057     2.239     2.340
   203   1 H        0.926     0.064     2.155     2.296

 Mol. C6AA /au·bohr⁶  :     611074.940435
 Mol. C8AA /au·bohr⁸  :   15928608.819548
 Mol. α(0) /au        :       1244.068708


Wiberg/Mayer (AO) data.
largest (>0.10) Wiberg bond orders for each atom

 ---------------------------------------------------------------------------
     #   Z sym  total        # sym  WBO       # sym  WBO       # sym  WBO
 ---------------------------------------------------------------------------
     1   6 C    3.956 --     2 C    1.428    24 C    1.372   126 H    0.932
     2   6 C    3.952 --     1 C    1.428    11 C    1.174     3 C    1.078
     3   6 C    3.905 --     4 O    1.667     2 C    1.078     5 C    1.028
     4   8 O    2.061 --     3 C    1.667    61 S    0.122
     5   6 C    3.969 --     6 C    1.385    10 C    1.308     3 C    1.028
     6   6 C    3.979 --     7 C    1.435     5 C    1.385   127 H    0.963
     7   6 C    3.953 --     6 C    1.435     8 C    1.331    23 C    0.997
     8   6 C    3.964 --     9 C    1.441     7 C    1.331    17 C    0.998
     9   6 C    3.976 --     8 C    1.441    10 C    1.373   128 H    0.959
    10   6 C    3.977 --     9 C    1.373     5 C    1.308    11 C    1.082
    11   6 C    3.969 --    12 C    1.435     2 C    1.174    10 C    1.082
    12   6 C    3.948 --    11 C    1.435    13 C    1.112    15 C    1.109
    13   6 C    3.941 --    14 N    2.717    12 C    1.112
    14   7 N    2.951 --    13 C    2.717
    15   6 C    3.937 --    16 N    2.733    12 C    1.109
    16   7 N    2.944 --    15 C    2.733
    17   6 C    3.983 --     8 C    0.998    23 C    0.977   129 H    0.958
                            18 C    0.946
    18   6 C    3.989 --    19 C    1.010    22 C    0.985   130 H    0.972
                            17 C    0.946
    19   6 C    3.987 --    20 C    1.924    18 C    1.010   131 H    0.972
    20   6 C    3.987 --    19 C    1.924    21 C    1.010   132 H    0.971
    21   6 C    3.988 --    20 C    1.010    22 C    0.985   133 H    0.971
                            23 C    0.946
    22   6 C    3.991 --    21 C    0.985    18 C    0.985   134 H    0.977
                           135 H    0.976
    23   6 C    3.982 --     7 C    0.997    17 C    0.977   136 H    0.957
                            21 C    0.946
    24   6 C    3.927 --     1 C    1.372    25 C    1.250    61 S    1.072
    25   6 C    3.950 --    41 C    1.258    24 C    1.250    26 N    1.181
    26   7 N    3.545 --    25 C    1.181    27 C    1.034    34 C    1.021
    27   6 C    3.957 --    33 C    1.367    28 C    1.365    26 N    1.034
    28   6 C    3.980 --    29 C    1.455    27 C    1.365   137 H    0.965
    29   6 C    3.989 --    28 C    1.455    30 C    1.403   138 H    0.968
                            33 C    0.106
    30   6 C    3.975 --    29 C    1.403    32 C    1.397    31 C    1.029
    31   6 C    3.993 --    30 C    1.029   141 H    0.984   140 H    0.972
                           139 H    0.967
    32   6 C    3.988 --    33 C    1.460    30 C    1.397   142 H    0.967
    33   6 C    3.985 --    32 C    1.460    27 C    1.367   143 H    0.968
                            29 C    0.106
    34   6 C    3.956 --    35 C    1.378    40 C    1.364    26 N    1.021
    35   6 C    3.973 --    36 C    1.453    34 C    1.378   144 H    0.966
                            39 C    0.104
    36   6 C    3.988 --    35 C    1.453    37 C    1.405   145 H    0.966
                            40 C    0.102
    37   6 C    3.971 --    36 C    1.405    39 C    1.395    38 C    1.030
    38   6 C    3.993 --    37 C    1.030   148 H    0.984   147 H    0.969
                           146 H    0.968
    39   6 C    3.988 --    40 C    1.463    37 C    1.395   149 H    0.968
                            35 C    0.104
    40   6 C    3.982 --    39 C    1.463    34 C    1.364   150 H    0.968
                            36 C    0.102
    41   6 C    3.934 --    60 C    1.352    25 C    1.258    42 S    1.103
    42  16 S    2.553 --    43 C    1.107    41 C    1.103
    43   6 C    3.898 --    44 C    1.423    42 S    1.107    62 C    1.095
    44   6 C    3.959 --    43 C    1.423    60 C    1.213    45 N    1.103
    45   7 N    3.502 --    44 C    1.103    53 C    1.055    46 C    1.036
    46   6 C    3.959 --    47 C    1.373    52 C    1.363    45 N    1.036
    47   6 C    3.984 --    48 C    1.456    46 C    1.373   151 H    0.968
                            51 C    0.105
    48   6 C    3.989 --    47 C    1.456    49 C    1.402   152 H    0.968
                            52 C    0.103
    49   6 C    3.976 --    48 C    1.402    51 C    1.401    50 C    1.028
    50   6 C    3.994 --    49 C    1.028   155 H    0.983   153 H    0.978
                           154 H    0.966
    51   6 C    3.990 --    52 C    1.456    49 C    1.401   156 H    0.968
                            47 C    0.105
    52   6 C    3.985 --    51 C    1.456    46 C    1.363   157 H    0.967
                            48 C    0.103
    53   6 C    3.965 --    59 C    1.365    54 C    1.363    45 N    1.055
    54   6 C    3.985 --    55 C    1.464    53 C    1.363   158 H    0.964
                            58 C    0.101
    55   6 C    3.989 --    54 C    1.464    56 C    1.397   159 H    0.968
                            59 C    0.103
    56   6 C    3.982 --    58 C    1.403    55 C    1.397    57 C    1.027
    57   6 C    3.995 --    56 C    1.027   162 H    0.983   161 H    0.977
                           160 H    0.965
    58   6 C    3.990 --    59 C    1.456    56 C    1.403   163 H    0.969
                            54 C    0.101
    59   6 C    3.987 --    58 C    1.456    53 C    1.365   164 H    0.969
                            55 C    0.103
    60   6 C    3.943 --    41 C    1.352    44 C    1.213    61 S    1.131
    61  16 S    2.676 --    60 C    1.131    24 C    1.072     4 O    0.122
    62   6 C    3.946 --    63 C    1.399    75 C    1.198    43 C    1.095
    63   6 C    3.859 --    62 C    1.399    65 C    1.302    64 F    0.953
    64   9 F    1.081 --    63 C    0.953
    65   6 C    3.858 --    67 C    1.372    63 C    1.302    66 F    0.949
    66   9 F    1.077 --    65 C    0.949
    67   6 C    3.965 --    65 C    1.372    68 C    1.188    78 C    1.160
    68   6 C    3.979 --    69 N    1.316    75 C    1.236    67 C    1.188
    69   7 N    3.156 --    70 C    1.498    68 C    1.316
    70   6 C    3.945 --    69 N    1.498    73 C    1.220    71 C    1.014
    71   6 C    3.989 --    70 C    1.014    72 C    0.989   166 H    0.968
                           165 H    0.965
    72   6 C    3.988 --    71 C    0.989   167 H    0.987   169 H    0.987
                           168 H    0.982
    73   6 C    3.956 --    74 N    1.511    70 C    1.220    76 C    1.014
    74   7 N    3.060 --    73 C    1.511    75 C    1.306
    75   6 C    3.977 --    74 N    1.306    68 C    1.236    62 C    1.198
    76   6 C    3.989 --    73 C    1.014    77 C    0.992   170 H    0.970
                           171 H    0.963
    77   6 C    3.988 --    76 C    0.992   174 H    0.984   172 H    0.983
                           173 H    0.981
    78   6 C    3.939 --   101 C    1.452    67 C    1.160    79 S    1.127
    79  16 S    2.706 --    80 C    1.178    78 C    1.127
    80   6 C    3.924 --   100 C    1.411    79 S    1.178    81 C    1.126
    81   6 C    3.984 --   105 C    1.398    82 C    1.287    80 C    1.126
    82   6 C    3.956 --   102 C    1.428    81 C    1.287    83 C    0.973
    83   6 C    3.987 --    82 C    0.973   100 C    0.971    84 C    0.958
                            92 C    0.948
    84   6 C    3.982 --    85 C    1.416    91 C    1.399    83 C    0.958
                            87 C    0.105
    85   6 C    3.989 --    86 C    1.441    84 C    1.416   175 H    0.967
                            90 C    0.108
    86   6 C    3.991 --    85 C    1.441    87 C    1.416   176 H    0.968
                            91 C    0.109
    87   6 C    3.986 --    86 C    1.416    90 C    1.403    88 C    1.013
                            84 C    0.105
    88   6 C    3.997 --    87 C    1.013    89 C    1.001   177 H    0.975
                           178 H    0.973
    89   6 C    3.995 --    88 C    1.001   179 H    0.988   180 H    0.988
                           181 H    0.986
    90   6 C    3.990 --    91 C    1.456    87 C    1.403   182 H    0.969
                            85 C    0.108
    91   6 C    3.990 --    90 C    1.456    84 C    1.399   183 H    0.968
                            86 C    0.109
    92   6 C    3.981 --    93 C    1.410    99 C    1.405    83 C    0.948
                            95 C    0.105
    93   6 C    3.990 --    94 C    1.448    92 C    1.410   184 H    0.965
                            98 C    0.108
    94   6 C    3.990 --    93 C    1.448    95 C    1.410   185 H    0.968
                            99 C    0.108
    95   6 C    3.986 --    94 C    1.410    98 C    1.408    96 C    1.013
                            92 C    0.105
    96   6 C    3.996 --    95 C    1.013    97 C    1.000   186 H    0.974
                           187 H    0.973
    97   6 C    3.995 --    96 C    1.000   188 H    0.988   190 H    0.988
                           189 H    0.986
    98   6 C    3.989 --    99 C    1.450    95 C    1.408   191 H    0.968
                            93 C    0.108
    99   6 C    3.989 --    98 C    1.450    92 C    1.405   192 H    0.967
                            94 C    0.108
   100   6 C    3.972 --    80 C    1.411   101 C    1.348    83 C    0.971
   101   6 C    3.970 --    78 C    1.452   100 C    1.348   193 H    0.961
   102   6 C    3.987 --   103 C    1.445    82 C    1.428   194 H    0.964
   103   6 C    3.948 --   102 C    1.445   104 C    1.342   195 H    0.968
   104   6 C    3.983 --   105 C    1.356   103 C    1.342   106 C    1.130
   105   6 C    3.964 --    81 C    1.398   104 C    1.356   196 H    0.965
   106   6 C    3.944 --   107 C    1.636   104 C    1.130   197 H    0.945
   107   6 C    3.978 --   106 C    1.636   120 C    1.113   108 C    1.010
   108   6 C    3.920 --   109 O    1.742   110 C    1.039   107 C    1.010
   109   8 O    2.039 --   108 C    1.742
   110   6 C    3.971 --   111 C    1.353   119 C    1.270   108 C    1.039
   111   6 C    3.983 --   110 C    1.353   112 C    1.304   120 C    1.100
   112   6 C    3.984 --   113 C    1.537   111 C    1.304   198 H    0.961
   113   6 C    3.973 --   112 C    1.537   114 C    1.280   199 H    0.964
   114   6 C    3.979 --   115 C    1.287   113 C    1.280   119 C    1.228
   115   6 C    3.983 --   116 C    1.547   114 C    1.287   200 H    0.965
                           118 C    0.114
   116   6 C    3.970 --   115 C    1.547   117 C    1.321   201 H    0.968
   117   6 C    3.987 --   118 C    1.550   116 C    1.321   202 H    0.969
   118   6 C    3.974 --   117 C    1.550   119 C    1.282   203 H    0.963
                           115 C    0.114
   119   6 C    3.985 --   118 C    1.282   110 C    1.270   114 C    1.228
   120   6 C    3.973 --   121 C    1.489   107 C    1.113   111 C    1.100
   121   6 C    3.952 --   120 C    1.489   124 C    1.099   122 C    1.097
   122   6 C    3.942 --   123 N    2.752   121 C    1.097
   123   7 N    2.959 --   122 C    2.752
   124   6 C    3.942 --   125 N    2.754   121 C    1.099
   125   7 N    2.963 --   124 C    2.754
   126   1 H    0.995 --     1 C    0.932
   127   1 H    0.996 --     6 C    0.963
   128   1 H    0.997 --     9 C    0.959
   129   1 H    0.995 --    17 C    0.958
   130   1 H    0.998 --    18 C    0.972
   131   1 H    0.999 --    19 C    0.972
   132   1 H    0.999 --    20 C    0.971
   133   1 H    0.998 --    21 C    0.971
   134   1 H    0.997 --    22 C    0.977
   135   1 H    0.996 --    22 C    0.976
   136   1 H    0.994 --    23 C    0.957
   137   1 H    0.997 --    28 C    0.965
   138   1 H    0.997 --    29 C    0.968
   139   1 H    0.995 --    31 C    0.967
   140   1 H    0.995 --    31 C    0.972
   141   1 H    0.997 --    31 C    0.984
   142   1 H    0.997 --    32 C    0.967
   143   1 H    0.999 --    33 C    0.968
   144   1 H    0.997 --    35 C    0.966
   145   1 H    0.996 --    36 C    0.966
   146   1 H    0.995 --    38 C    0.968
   147   1 H    0.994 --    38 C    0.969
   148   1 H    0.997 --    38 C    0.984
   149   1 H    0.997 --    39 C    0.968
   150   1 H    0.999 --    40 C    0.968
   151   1 H    0.999 --    47 C    0.968
   152   1 H    0.998 --    48 C    0.968
   153   1 H    0.996 --    50 C    0.978
   154   1 H    0.995 --    50 C    0.966
   155   1 H    0.997 --    50 C    0.983
   156   1 H    0.997 --    51 C    0.968
   157   1 H    0.998 --    52 C    0.967
   158   1 H    0.998 --    54 C    0.964
   159   1 H    0.997 --    55 C    0.968
   160   1 H    0.994 --    57 C    0.965
   161   1 H    0.997 --    57 C    0.977
   162   1 H    0.998 --    57 C    0.983
   163   1 H    0.999 --    58 C    0.969
   164   1 H    0.999 --    59 C    0.969
   165   1 H    0.994 --    71 C    0.965
   166   1 H    0.994 --    71 C    0.968
   167   1 H    0.998 --    72 C    0.987
   168   1 H    0.995 --    72 C    0.982
   169   1 H    0.998 --    72 C    0.987
   170   1 H    0.995 --    76 C    0.970
   171   1 H    0.994 --    76 C    0.963
   172   1 H    0.995 --    77 C    0.983
   173   1 H    0.998 --    77 C    0.981
   174   1 H    0.998 --    77 C    0.984
   175   1 H    0.999 --    85 C    0.967
   176   1 H    0.998 --    86 C    0.968
   177   1 H    0.998 --    88 C    0.975
   178   1 H    0.998 --    88 C    0.973
   179   1 H    0.998 --    89 C    0.988
   180   1 H    0.998 --    89 C    0.988
   181   1 H    0.997 --    89 C    0.986
   182   1 H    0.998 --    90 C    0.969
   183   1 H    0.999 --    91 C    0.968
   184   1 H    0.999 --    93 C    0.965
   185   1 H    0.998 --    94 C    0.968
   186   1 H    0.998 --    96 C    0.974
   187   1 H    0.998 --    96 C    0.973
   188   1 H    0.999 --    97 C    0.988
   189   1 H    0.997 --    97 C    0.986
   190   1 H    0.999 --    97 C    0.988
   191   1 H    0.998 --    98 C    0.968
   192   1 H    0.998 --    99 C    0.967
   193   1 H    0.997 --   101 C    0.961
   194   1 H    0.995 --   102 C    0.964
   195   1 H    0.996 --   103 C    0.968
   196   1 H    0.996 --   105 C    0.965
   197   1 H    0.994 --   106 C    0.945
   198   1 H    0.996 --   112 C    0.961
   199   1 H    0.994 --   113 C    0.964
   200   1 H    0.996 --   115 C    0.965
   201   1 H    0.996 --   116 C    0.968
   202   1 H    0.996 --   117 C    0.969
   203   1 H    0.995 --   118 C    0.963
 ---------------------------------------------------------------------------

Topologies differ in bond orders
Writing corrected topology to xtbtopo.mol

molecular dipole:
                 x           y           z       tot (Debye)
 q only:       -1.216      -2.911      -1.451
   full:       -1.212      -2.431      -1.288       7.640
molecular quadrupole (traceless):
                xx          xy          yy          xz          yz          zz
 q only:      132.442      13.088    -159.386      -0.823      95.234      26.944
  q+dip:      141.641      14.784    -178.887      -4.525     111.536      37.246
   full:      145.978      16.063    -184.386      -4.329     113.187      38.408


           -------------------------------------------------
          | TOTAL ENERGY             -326.023280930404 Eh   |
          | GRADIENT NORM               0.034883041867 Eh/α |
          | HOMO-LUMO GAP               0.558421435641 eV   |
           -------------------------------------------------

------------------------------------------------------------------------
 * finished run on 2022/02/16 at 03:26:07.665     
------------------------------------------------------------------------
 total:
 * wall-time:     0 d,  0 h,  0 min,  3.531 sec
 *  cpu-time:     0 d,  0 h,  0 min, 17.585 sec
 * ratio c/w:     4.980 speedup
 SCF:
 * wall-time:     0 d,  0 h,  0 min,  3.381 sec
 *  cpu-time:     0 d,  0 h,  0 min, 16.889 sec
 * ratio c/w:     4.995 speedup

