      -----------------------------------------------------------      
     |                   =====================                   |     
     |                           x T B                           |     
     |                   =====================                   |     
     |                         S. Grimme                         |     
     |          Mulliken Center for Theoretical Chemistry        |     
     |                    University of Bonn                     |     
      -----------------------------------------------------------      

   * xtb version 6.4.1 (unknown) compiled by 'oda6@login1.crc.pitt.edu' on 2021-06-25

   xtb is free software: you can redistribute it and/or modify it under
   the terms of the GNU Lesser General Public License as published by
   the Free Software Foundation, either version 3 of the License, or
   (at your option) any later version.
   
   xtb is distributed in the hope that it will be useful,
   but WITHOUT ANY WARRANTY; without even the implied warranty of
   MERCHANTABILITY or FITNESS FOR A PARTICULAR PURPOSE.  See the
   GNU Lesser General Public License for more details.
   
   Cite this work as:
   * C. Bannwarth, E. Caldeweyher, S. Ehlert, A. Hansen, P. Pracht,
     J. Seibert, S. Spicher, S. Grimme, WIREs Comput. Mol. Sci., 2020, 11,
     e01493. DOI: 10.1002/wcms.1493
   
   for GFN2-xTB:
   * C. Bannwarth, S. Ehlert and S. Grimme., J. Chem. Theory Comput., 2019,
     15, 1652-1671. DOI: 10.1021/acs.jctc.8b01176
   for GFN1-xTB:
   * S. Grimme, C. Bannwarth, P. Shushkov, J. Chem. Theory Comput., 2017,
     13, 1989-2009. DOI: 10.1021/acs.jctc.7b00118
   for GFN0-xTB:
   * P. Pracht, E. Caldeweyher, S. Ehlert, S. Grimme, ChemRxiv, 2019, preprint.
     DOI: 10.26434/chemrxiv.8326202.v1
   for GFN-FF:
   * S. Spicher and S. Grimme, Angew. Chem. Int. Ed., 2020, 59, 15665-15673.
     DOI: 10.1002/anie.202004239
   
   for DFT-D4:
   * E. Caldeweyher, C. Bannwarth and S. Grimme, J. Chem. Phys., 2017,
     147, 034112. DOI: 10.1063/1.4993215
   * E. Caldeweyher, S. Ehlert, A. Hansen, H. Neugebauer, S. Spicher,
     C. Bannwarth and S. Grimme, J. Chem. Phys., 2019, 150, 154122.
     DOI: 10.1063/1.5090222
   * E. Caldeweyher, J.-M. Mewes, S. Ehlert and S. Grimme, Phys. Chem. Chem. Phys.
     2020, 22, 8499-8512. DOI: 10.1039/D0CP00502A
   
   for sTDA-xTB:
   * S. Grimme and C. Bannwarth, J. Chem. Phys., 2016, 145, 054103.
     DOI: 10.1063/1.4959605
   
   in the mass-spec context:
   * V. Asgeirsson, C. Bauer and S. Grimme, Chem. Sci., 2017, 8, 4879.
     DOI: 10.1039/c7sc00601b
   * J. Koopman and S. Grimme, ACS Omega 2019, 4, 12, 15120-15133.
     DOI: 10.1021/acsomega.9b02011
   
   for metadynamics refer to:
   * S. Grimme, J. Chem. Theory Comput., 2019, 155, 2847-2862
     DOI: 10.1021/acs.jctc.9b00143
   
   for SPH calculations refer to:
   * S. Spicher and S. Grimme, J. Chem. Theory Comput., 2021, 17, 1701-1714
     DOI: 10.1021/acs.jctc.0c01306
   
   with help from (in alphabetical order)
   P. Atkinson, C. Bannwarth, F. Bohle, G. Brandenburg, E. Caldeweyher
   M. Checinski, S. Dohm, S. Ehlert, S. Ehrlich, I. Gerasimov, J. Koopman
   C. Lavigne, S. Lehtola, F. März, M. Müller, F. Musil, H. Neugebauer
   J. Pisarek, C. Plett, P. Pracht, J. Seibert, P. Shushkov, S. Spicher
   M. Stahn, M. Steiner, T. Strunk, J. Stückrath, T. Rose, and J. Unsleber
   
 * started run on 2022/02/14 at 11:30:05.123     

           -------------------------------------------------
          |                Calculation Setup                |
           -------------------------------------------------

          program call               : /ihome/ghutchison/oda6/xtb/xtb-641/bin/xtb ../../GFN2_output/39_3_130_130_39.mol --sp --alpb water
          hostname                   : smp-n25
          coordinate file            : ../../GFN2_output/39_3_130_130_39.mol
          omp threads                :                     8
          number of atoms            :                   234
          number of electrons        :                   706
          charge                     :                     0
          spin                       :                   0.0
          first test random number   :      0.96975585838279

   ID    Z sym.   atoms
    1    6 C      1-3, 5-13, 15, 17-26, 28-40, 42-45, 47-53, 55-58, 60, 61,
                  63-66, 68-74, 76-79, 81, 82, 84-87, 89-95, 97-100, 102,
                  103, 105-108, 110-116, 118-121, 123-125, 127-135, 137,
                  139-145
    2    8 O      4, 126
    3    7 N      14, 16, 27, 41, 62, 83, 104, 136, 138
    4   16 S      46, 54, 59, 67, 75, 80, 88, 96, 101, 109, 117, 122
    5    1 H      146-234

           -------------------------------------------------
          |                 G F N 2 - x T B                 |
           -------------------------------------------------

        Reference                      10.1021/acs.jctc.8b01176
      * Hamiltonian:
        H0-scaling (s, p, d)           1.850000    2.230000    2.230000
        zeta-weighting                 0.500000
      * Dispersion:
        s8                             2.700000
        a1                             0.520000
        a2                             5.000000
        s9                             5.000000
      * Repulsion:
        kExp                           1.500000    1.000000
        rExp                           1.000000
      * Coulomb:
        alpha                          2.000000
        third order                    shell-resolved
        anisotropic                    true
        a3                             3.000000
        a5                             4.000000
        cn-shift                       1.200000
        cn-exp                         4.000000
        max-rad                        5.000000

      * Solvation model:               ALPB
        Solvent                        water
        Parameter file                 internal GFN2-xTB/ALPB
        Dielectric constant                8.0200E+01
        Reference state                gsolv [1 M gas/solution]
        Free energy shift                  1.0808E-03 Eh       6.7819E-01 kcal/mol
        Temperature                        2.9815E+02 K
        Density                            1.0000E+00 kg/L
        Solvent mass                       1.8000E+01 g/mol
        Interaction kernel             P16
        Born radius scaling (c1)           1.4744E+00
        Born radii integrator          GBOBC
        Born offset                        0.0000E+00 a0       0.0000E+00 AA
        H-bond correction              true
        Ion screening                  false
        Surface tension                    1.0000E-05 Eh       1.5569E+01 dyn/cm
        Grid points                               230 per atom

          ...................................................
          :                      SETUP                      :
          :.................................................:
          :  # basis functions                 741          :
          :  # atomic orbitals                 729          :
          :  # shells                          391          :
          :  # electrons                       706          :
          :  max. iterations                   250          :
          :  Hamiltonian                  GFN2-xTB          :
          :  restarted?                      false          :
          :  GBSA solvation                   true          :
          :  PC potential                    false          :
          :  electronic temp.          300.0000000     K    :
          :  accuracy                    1.0000000          :
          :  -> integral cutoff          0.2500000E+02      :
          :  -> integral neglect         0.1000000E-07      :
          :  -> SCF convergence          0.1000000E-05 Eh   :
          :  -> wf. convergence          0.1000000E-03 e    :
          :  Broyden damping             0.4000000          :
          ...................................................

 iter      E             dE          RMSdq      gap      omega  full diag
   1   -385.8941382 -0.385894E+03  0.452E+00    0.37       0.0  T
   2   -386.1517156 -0.257577E+00  0.261E+00    0.69       1.0  T
   3   -386.0039630  0.147753E+00  0.118E+00    0.32       1.0  T
   4   -386.1874924 -0.183529E+00  0.494E-01    0.46       1.0  T
   5   -386.2208353 -0.333429E-01  0.174E-01    0.41       1.0  T
   6   -386.2218834 -0.104809E-02  0.766E-02    0.44       1.0  T
   7   -386.2224515 -0.568123E-03  0.290E-02    0.44       1.0  T
   8   -386.2224872 -0.356348E-04  0.171E-02    0.45       1.0  T
   9   -386.2225064 -0.192193E-04  0.912E-03    0.45       1.0  T
  10   -386.2225098 -0.338311E-05  0.431E-03    0.45       1.5  T
  11   -386.2225114 -0.157666E-05  0.242E-03    0.45       2.7  T
  12   -386.2225115 -0.195101E-06  0.136E-03    0.45       4.8  T
  13   -386.2225117 -0.123198E-06  0.648E-04    0.45      10.1  T
  14   -386.2225117 -0.211834E-07  0.368E-04    0.45      17.7  T

   *** convergence criteria satisfied after 14 iterations ***

         #    Occupation            Energy/Eh            Energy/eV
      -------------------------------------------------------------
         1        2.0000           -0.7471194             -20.3302
       ...           ...                  ...                  ...
       347        2.0000           -0.3637017              -9.8968
       348        2.0000           -0.3624798              -9.8636
       349        2.0000           -0.3619378              -9.8488
       350        2.0000           -0.3576613              -9.7325
       351        2.0000           -0.3521820              -9.5834
       352        2.0000           -0.3470054              -9.4425
       353        1.9996           -0.3434795              -9.3466 (HOMO)
       354        0.0003           -0.3267619              -8.8916 (LUMO)
       355        0.0001           -0.3259971              -8.8708
       356                         -0.3162601              -8.6059
       357                         -0.3124492              -8.5022
       358                         -0.2849870              -7.7549
       ...                                ...                  ...
       729                          1.1525463              31.3624
      -------------------------------------------------------------
                  HL-Gap            0.0167175 Eh            0.4549 eV
             Fermi-level           -0.3352848 Eh           -9.1236 eV

 SCC (total)                   0 d,  0 h,  0 min,  3.601 sec
 SCC setup                      ...        0 min,  0.012 sec (  0.344%)
 Dispersion                     ...        0 min,  0.016 sec (  0.433%)
 classical contributions        ...        0 min,  0.001 sec (  0.032%)
 integral evaluation            ...        0 min,  0.067 sec (  1.874%)
 iterations                     ...        0 min,  3.250 sec ( 90.270%)
 molecular gradient             ...        0 min,  0.246 sec (  6.846%)
 printout                       ...        0 min,  0.007 sec (  0.200%)

         :::::::::::::::::::::::::::::::::::::::::::::::::::::
         ::                     SUMMARY                     ::
         :::::::::::::::::::::::::::::::::::::::::::::::::::::
         :: total energy            -379.975092489813 Eh    ::
         :: total w/o Gsasa/hb      -379.956368459571 Eh    ::
         :: gradient norm              0.037750711120 Eh/a0 ::
         :: HOMO-LUMO gap              0.454907640308 eV    ::
         ::.................................................::
         :: SCC energy              -386.222511689593 Eh    ::
         :: -> isotropic ES            0.162145084053 Eh    ::
         :: -> anisotropic ES          0.017149022980 Eh    ::
         :: -> anisotropic XC          0.242528786204 Eh    ::
         :: -> dispersion             -0.427250566002 Eh    ::
         :: -> Gsolv                  -0.058714691651 Eh    ::
         ::    -> Gelec               -0.039990661409 Eh    ::
         ::    -> Gsasa               -0.011562088249 Eh    ::
         ::    -> Ghb                 -0.008242701691 Eh    ::
         ::    -> Gshift               0.001080759698 Eh    ::
         :: repulsion energy           6.229420583875 Eh    ::
         :: add. restraining           0.000000000000 Eh    ::
         :: total charge              -0.000000000001 e     ::
         :::::::::::::::::::::::::::::::::::::::::::::::::::::

           -------------------------------------------------
          |                Property Printout                |
           -------------------------------------------------

    * Orbital Energies and Occupations

         #    Occupation            Energy/Eh            Energy/eV
      -------------------------------------------------------------
         1        2.0000           -0.7471194             -20.3302
       ...           ...                  ...                  ...
       341        2.0000           -0.3826544             -10.4126
       342        2.0000           -0.3797771             -10.3343
       343        2.0000           -0.3759823             -10.2310
       344        2.0000           -0.3695086             -10.0548
       345        2.0000           -0.3689713             -10.0402
       346        2.0000           -0.3681412             -10.0176
       347        2.0000           -0.3637017              -9.8968
       348        2.0000           -0.3624798              -9.8636
       349        2.0000           -0.3619378              -9.8488
       350        2.0000           -0.3576613              -9.7325
       351        2.0000           -0.3521820              -9.5834
       352        2.0000           -0.3470054              -9.4425
       353        1.9996           -0.3434795              -9.3466 (HOMO)
       354        0.0003           -0.3267619              -8.8916 (LUMO)
       355        0.0001           -0.3259971              -8.8708
       356                         -0.3162601              -8.6059
       357                         -0.3124492              -8.5022
       358                         -0.2849870              -7.7549
       359                         -0.2619097              -7.1269
       360                         -0.2546083              -6.9282
       361                         -0.2507816              -6.8241
       362                         -0.2488792              -6.7723
       363                         -0.2487222              -6.7681
       364                         -0.2469095              -6.7187
       ...                                ...                  ...
       729                          1.1525463              31.3624
      -------------------------------------------------------------
                  HL-Gap            0.0167175 Eh            0.4549 eV
             Fermi-level           -0.3352848 Eh           -9.1236 eV

     #   Z          covCN         q      C6AA      α(0)
     1   6 C        2.907    -0.003    28.110     8.694
     2   6 C        2.999    -0.037    28.911     8.820
     3   6 C        2.865     0.233    23.120     7.882
     4   8 O        0.856    -0.418    22.039     6.294
     5   6 C        3.061    -0.022    28.490     8.753
     6   6 C        2.904    -0.025    28.620     8.772
     7   6 C        3.260     0.015    26.528     8.323
     8   6 C        3.257     0.015    26.564     8.333
     9   6 C        2.904    -0.033    28.820     8.803
    10   6 C        3.043     0.005    27.873     8.659
    11   6 C        3.023     0.038    27.131     8.544
    12   6 C        2.947    -0.000    28.029     8.683
    13   6 C        1.940     0.131    27.880     8.527
    14   7 N        0.911    -0.288    27.426     7.574
    15   6 C        1.941     0.134    27.802     8.515
    16   7 N        0.911    -0.286    27.385     7.569
    17   6 C        4.163    -0.028    20.980     6.505
    18   6 C        4.012    -0.016    20.787     6.477
    19   6 C        2.987    -0.042    29.043     8.840
    20   6 C        2.987    -0.043    29.060     8.843
    21   6 C        4.012    -0.016    20.789     6.477
    22   6 C        3.926    -0.066    21.692     6.619
    23   6 C        4.161    -0.028    20.978     6.505
    24   6 C        2.973     0.016    27.659     8.627
    25   6 C        2.913    -0.033    28.813     8.802
    26   6 C        3.090     0.055    26.667     8.464
    27   7 N        2.799    -0.028    21.785     6.932
    28   6 C        3.739    -0.003    20.704     6.493
    29   6 C        3.752    -0.121    22.884     6.822
    30   6 C        3.087     0.053    26.719     8.473
    31   6 C        3.076    -0.018    28.371     8.733
    32   6 C        3.072    -0.008    28.142     8.698
    33   6 C        2.908    -0.034    28.858     8.809
    34   6 C        2.928    -0.043    29.074     8.843
    35   6 C        2.910    -0.033    28.833     8.805
    36   6 C        2.928    -0.046    29.144     8.853
    37   6 C        2.996     0.010    27.789     8.647
    38   6 C        2.914    -0.054    29.329     8.881
    39   6 C        3.007    -0.002    28.049     8.688
    40   6 C        3.066     0.044    26.953     8.513
    41   7 N        2.748    -0.070    22.601     7.061
    42   6 C        2.926     0.060    26.647     8.465
    43   6 C        2.923    -0.047    29.178     8.858
    44   6 C        2.943    -0.044    29.089     8.846
    45   6 C        2.966     0.042    27.060     8.533
    46  16 S        2.034    -0.203   149.716    20.594
    47   6 C        3.745    -0.051    21.560     6.624
    48   6 C        2.983    -0.041    29.006     8.835
    49   6 C        2.926    -0.045    29.128     8.851
    50   6 C        2.925     0.057    26.721     8.477
    51   6 C        2.923    -0.045    29.105     8.847
    52   6 C        2.987    -0.042    29.027     8.838
    53   6 C        2.966     0.045    26.997     8.523
    54  16 S        2.035    -0.197   149.425    20.574
    55   6 C        3.745    -0.057    21.665     6.640
    56   6 C        2.942    -0.046    29.145     8.854
    57   6 C        2.924    -0.047    29.169     8.857
    58   6 C        3.184     0.003    27.508     8.560
    59  16 S        2.277    -0.073   144.108    20.204
    60   6 C        3.033    -0.006    28.135     8.700
    61   6 C        3.050     0.048    26.885     8.504
    62   7 N        2.748    -0.055    22.298     7.013
    63   6 C        2.932     0.060    26.664     8.468
    64   6 C        2.924    -0.044    29.100     8.846
    65   6 C        2.942    -0.043    29.070     8.843
    66   6 C        2.965     0.044    27.004     8.524
    67  16 S        2.032    -0.197   149.441    20.575
    68   6 C        3.745    -0.054    21.624     6.634
    69   6 C        2.983    -0.040    28.978     8.830
    70   6 C        2.921    -0.046    29.143     8.853
    71   6 C        2.930     0.059    26.672     8.470
    72   6 C        2.923    -0.041    29.030     8.836
    73   6 C        2.946    -0.038    28.940     8.823
    74   6 C        2.967     0.050    26.871     8.503
    75  16 S        2.031    -0.202   149.647    20.589
    76   6 C        3.744    -0.061    21.754     6.653
    77   6 C        2.979    -0.039    28.973     8.829
    78   6 C        2.922    -0.043    29.060     8.840
    79   6 C        3.171    -0.002    27.698     8.597
    80  16 S        2.250    -0.055   143.322    20.149
    81   6 C        3.035     0.008    27.808     8.650
    82   6 C        3.064     0.043    26.983     8.518
    83   7 N        2.750    -0.069    22.574     7.057
    84   6 C        2.927     0.060    26.653     8.466
    85   6 C        2.923    -0.041    29.029     8.836
    86   6 C        2.982    -0.040    28.994     8.833
    87   6 C        2.965     0.042    27.051     8.531
    88  16 S        2.031    -0.201   149.601    20.586
    89   6 C        3.744    -0.062    21.772     6.656
    90   6 C        2.942    -0.044    29.099     8.847
    91   6 C        2.924    -0.050    29.240     8.868
    92   6 C        2.928     0.060    26.655     8.467
    93   6 C        2.922    -0.046    29.131     8.851
    94   6 C        2.982    -0.040    28.999     8.833
    95   6 C        2.966     0.047    26.938     8.513
    96  16 S        2.032    -0.206   149.810    20.600
    97   6 C        3.744    -0.060    21.726     6.649
    98   6 C        2.944    -0.040    28.999     8.832
    99   6 C        2.925    -0.045    29.130     8.851
   100   6 C        3.158     0.000    27.710     8.607
   101  16 S        2.311    -0.051   143.153    20.137
   102   6 C        2.986     0.006    27.871     8.660
   103   6 C        3.050     0.057    26.676     8.471
   104   7 N        2.748    -0.049    22.178     6.994
   105   6 C        2.936     0.057    26.723     8.478
   106   6 C        2.927    -0.042    29.041     8.838
   107   6 C        2.944    -0.043    29.075     8.844
   108   6 C        2.966     0.049    26.907     8.508
   109  16 S        2.034    -0.173   148.393    20.503
   110   6 C        3.744    -0.064    21.801     6.661
   111   6 C        2.983    -0.039    28.973     8.829
   112   6 C        2.921    -0.038    28.957     8.824
   113   6 C        2.923     0.056    26.738     8.480
   114   6 C        2.921    -0.045    29.110     8.848
   115   6 C        2.977    -0.041    29.012     8.835
   116   6 C        2.966     0.044    27.000     8.523
   117  16 S        2.031    -0.194   149.286    20.564
   118   6 C        3.744    -0.058    21.681     6.642
   119   6 C        2.947    -0.039    28.966     8.827
   120   6 C        2.923    -0.039    28.964     8.826
   121   6 C        3.164    -0.001    27.712     8.603
   122  16 S        2.271    -0.059   143.516    20.163
   123   6 C        2.917    -0.020    28.514     8.757
   124   6 C        3.008    -0.051    29.242     8.871
   125   6 C        2.876     0.227    23.239     7.903
   126   8 O        0.957    -0.425    22.135     6.310
   127   6 C        3.061    -0.026    28.587     8.768
   128   6 C        2.904    -0.025    28.628     8.773
   129   6 C        3.261     0.011    26.591     8.331
   130   6 C        3.258     0.013    26.604     8.337
   131   6 C        2.904    -0.034    28.852     8.807
   132   6 C        3.051     0.002    27.931     8.668
   133   6 C        3.022     0.031    27.290     8.569
   134   6 C        2.947    -0.011    28.302     8.725
   135   6 C        1.954     0.124    28.026     8.549
   136   7 N        0.911    -0.304    27.812     7.627
   137   6 C        1.955     0.132    27.855     8.523
   138   7 N        0.911    -0.300    27.723     7.615
   139   6 C        4.163    -0.027    20.973     6.504
   140   6 C        4.012    -0.016    20.789     6.477
   141   6 C        2.988    -0.042    29.036     8.839
   142   6 C        2.987    -0.042    29.040     8.840
   143   6 C        4.012    -0.016    20.789     6.477
   144   6 C        3.926    -0.066    21.692     6.619
   145   6 C        4.162    -0.027    20.970     6.504
   146   1 H        0.925     0.061     2.187     2.313
   147   1 H        0.926     0.069     2.092     2.262
   148   1 H        0.926     0.054     2.270     2.356
   149   1 H        0.925     0.060     2.200     2.319
   150   1 H        0.925     0.043     2.412     2.428
   151   1 H        0.926     0.029     2.607     2.525
   152   1 H        0.926     0.032     2.554     2.499
   153   1 H        0.925     0.046     2.370     2.408
   154   1 H        0.925     0.048     2.340     2.392
   155   1 H        0.925     0.050     2.322     2.383
   156   1 H        0.925     0.062     2.173     2.305
   157   1 H        0.926     0.060     2.196     2.317
   158   1 H        0.924     0.064     2.153     2.295
   159   1 H        0.924     0.060     2.200     2.319
   160   1 H        0.925     0.050     2.317     2.380
   161   1 H        0.925     0.056     2.242     2.342
   162   1 H        0.925     0.057     2.231     2.336
   163   1 H        0.926     0.046     2.364     2.404
   164   1 H        0.926     0.043     2.406     2.426
   165   1 H        0.926     0.046     2.367     2.406
   166   1 H        0.926     0.036     2.499     2.472
   167   1 H        0.926     0.044     2.399     2.422
   168   1 H        0.926     0.039     2.460     2.453
   169   1 H        0.926     0.045     2.379     2.412
   170   1 H        0.925     0.068     2.112     2.272
   171   1 H        0.925     0.055     2.257     2.349
   172   1 H        0.925     0.077     2.014     2.219
   173   1 H        0.926     0.046     2.376     2.410
   174   1 H        0.926     0.042     2.420     2.433
   175   1 H        0.926     0.038     2.475     2.460
   176   1 H        0.926     0.048     2.341     2.393
   177   1 H        0.925     0.071     2.074     2.252
   178   1 H        0.925     0.070     2.083     2.257
   179   1 H        0.925     0.065     2.145     2.290
   180   1 H        0.926     0.051     2.304     2.374
   181   1 H        0.926     0.046     2.374     2.409
   182   1 H        0.926     0.048     2.349     2.397
   183   1 H        0.926     0.052     2.297     2.370
   184   1 H        0.925     0.075     2.031     2.228
   185   1 H        0.925     0.075     2.028     2.227
   186   1 H        0.925     0.056     2.241     2.341
   187   1 H        0.926     0.042     2.425     2.435
   188   1 H        0.926     0.036     2.508     2.477
   189   1 H        0.926     0.037     2.492     2.469
   190   1 H        0.926     0.057     2.240     2.340
   191   1 H        0.925     0.079     1.990     2.206
   192   1 H        0.925     0.072     2.065     2.247
   193   1 H        0.925     0.068     2.105     2.269
   194   1 H        0.926     0.054     2.271     2.357
   195   1 H        0.926     0.048     2.347     2.396
   196   1 H        0.926     0.035     2.523     2.484
   197   1 H        0.926     0.045     2.381     2.413
   198   1 H        0.925     0.082     1.960     2.189
   199   1 H        0.925     0.069     2.092     2.262
   200   1 H        0.925     0.070     2.090     2.261
   201   1 H        0.926     0.047     2.362     2.403
   202   1 H        0.926     0.031     2.578     2.511
   203   1 H        0.926     0.038     2.470     2.458
   204   1 H        0.926     0.046     2.372     2.408
   205   1 H        0.925     0.074     2.038     2.233
   206   1 H        0.925     0.064     2.157     2.297
   207   1 H        0.925     0.081     1.967     2.193
   208   1 H        0.926     0.049     2.329     2.387
   209   1 H        0.926     0.033     2.548     2.496
   210   1 H        0.926     0.042     2.425     2.435
   211   1 H        0.926     0.060     2.200     2.319
   212   1 H        0.925     0.074     2.041     2.234
   213   1 H        0.925     0.071     2.075     2.253
   214   1 H        0.925     0.083     1.947     2.182
   215   1 H        0.926     0.057     2.234     2.338
   216   1 H        0.926     0.044     2.390     2.418
   217   1 H        0.926     0.036     2.505     2.475
   218   1 H        0.926     0.051     2.311     2.377
   219   1 H        0.925     0.054     2.268     2.355
   220   1 H        0.925     0.074     2.037     2.232
   221   1 H        0.925     0.081     1.968     2.194
   222   1 H        0.926     0.058     2.218     2.329
   223   1 H        0.926     0.061     2.192     2.315
   224   1 H        0.925     0.055     2.260     2.351
   225   1 H        0.926     0.060     2.198     2.318
   226   1 H        0.926     0.051     2.307     2.375
   227   1 H        0.925     0.059     2.207     2.323
   228   1 H        0.925     0.044     2.402     2.424
   229   1 H        0.926     0.027     2.622     2.532
   230   1 H        0.926     0.029     2.595     2.519
   231   1 H        0.925     0.045     2.386     2.416
   232   1 H        0.925     0.051     2.313     2.379
   233   1 H        0.925     0.049     2.329     2.386
   234   1 H        0.925     0.060     2.201     2.320

 Mol. C6AA /au·bohr⁶  :     931860.363383
 Mol. C8AA /au·bohr⁸  :   26356291.651620
 Mol. α(0) /au        :       1549.558676


Wiberg/Mayer (AO) data.
largest (>0.10) Wiberg bond orders for each atom

 ---------------------------------------------------------------------------
     #   Z sym  total        # sym  WBO       # sym  WBO       # sym  WBO
 ---------------------------------------------------------------------------
     1   6 C    3.938 --     2 C    1.584    24 C    1.178   146 H    0.946
     2   6 C    3.964 --     1 C    1.584    11 C    1.125     3 C    1.024
     3   6 C    3.914 --     4 O    1.733     5 C    1.032     2 C    1.024
     4   8 O    2.023 --     3 C    1.733
     5   6 C    3.973 --     6 C    1.379    10 C    1.302     3 C    1.032
     6   6 C    3.980 --     7 C    1.442     5 C    1.379   147 H    0.962
     7   6 C    3.953 --     6 C    1.442     8 C    1.320    23 C    0.998
     8   6 C    3.965 --     9 C    1.451     7 C    1.320    17 C    0.998
     9   6 C    3.979 --     8 C    1.451    10 C    1.361   148 H    0.959
    10   6 C    3.979 --     9 C    1.361     5 C    1.302    11 C    1.099
    11   6 C    3.969 --    12 C    1.474     2 C    1.125    10 C    1.099
    12   6 C    3.954 --    11 C    1.474    15 C    1.102    13 C    1.100
    13   6 C    3.941 --    14 N    2.744    12 C    1.100
    14   7 N    2.953 --    13 C    2.744
    15   6 C    3.940 --    16 N    2.748    12 C    1.102
    16   7 N    2.958 --    15 C    2.748
    17   6 C    3.983 --     8 C    0.998    23 C    0.977   149 H    0.957
                            18 C    0.946
    18   6 C    3.988 --    19 C    1.010    22 C    0.985   150 H    0.972
                            17 C    0.946
    19   6 C    3.987 --    20 C    1.924    18 C    1.010   151 H    0.972
    20   6 C    3.987 --    19 C    1.924    21 C    1.010   152 H    0.971
    21   6 C    3.987 --    20 C    1.010    22 C    0.985   153 H    0.971
                            23 C    0.945
    22   6 C    3.991 --    21 C    0.985    18 C    0.985   155 H    0.977
                           154 H    0.976
    23   6 C    3.982 --     7 C    0.998    17 C    0.977   156 H    0.957
                            21 C    0.945
    24   6 C    3.965 --    25 C    1.357    34 C    1.280     1 C    1.178
    25   6 C    3.963 --    26 C    1.384    24 C    1.357   157 H    0.960
    26   6 C    3.963 --    25 C    1.384    32 C    1.224    27 N    1.159
    27   7 N    3.585 --    30 C    1.173    26 C    1.159    28 C    0.986
    28   6 C    3.965 --    29 C    1.006    27 N    0.986   158 H    0.968
                           159 H    0.966
    29   6 C    3.987 --    28 C    1.006   160 H    0.987   161 H    0.984
                           162 H    0.983
    30   6 C    3.952 --    38 C    1.352    31 C    1.229    27 N    1.173
    31   6 C    3.967 --    35 C    1.339    30 C    1.229    32 C    1.187
    32   6 C    3.970 --    33 C    1.327    26 C    1.224    31 C    1.187
    33   6 C    3.976 --    34 C    1.524    32 C    1.327   163 H    0.967
    34   6 C    3.967 --    33 C    1.524    24 C    1.280   164 H    0.968
    35   6 C    3.975 --    36 C    1.505    31 C    1.339   165 H    0.967
    36   6 C    3.970 --    35 C    1.505    37 C    1.313   166 H    0.970
    37   6 C    3.951 --    38 C    1.418    36 C    1.313    39 C    1.070
    38   6 C    3.974 --    37 C    1.418    30 C    1.352   167 H    0.962
    39   6 C    3.897 --    40 C    1.455    80 S    1.105    37 C    1.070
    40   6 C    3.955 --    39 C    1.455    58 C    1.209    41 N    1.079
    41   7 N    3.479 --    40 C    1.079    42 C    1.062    50 C    1.038
    42   6 C    3.965 --    43 C    1.364    49 C    1.344    41 N    1.062
    43   6 C    3.984 --    44 C    1.455    42 C    1.364   168 H    0.966
                            48 C    0.101
    44   6 C    3.988 --    43 C    1.455    45 C    1.385   169 H    0.964
    45   6 C    3.950 --    44 C    1.385    48 C    1.373    46 S    1.040
    46  16 S    2.239 --    45 C    1.040    47 C    1.008
    47   6 C    3.970 --    46 S    1.008   171 H    0.981   170 H    0.980
                           172 H    0.974
    48   6 C    3.989 --    49 C    1.470    45 C    1.373   173 H    0.968
                            43 C    0.101
    49   6 C    3.985 --    48 C    1.470    42 C    1.344   174 H    0.966
    50   6 C    3.964 --    57 C    1.378    51 C    1.356    41 N    1.038
    51   6 C    3.987 --    52 C    1.476    50 C    1.356   175 H    0.967
    52   6 C    3.989 --    51 C    1.476    53 C    1.367   176 H    0.967
                            57 C    0.102
    53   6 C    3.958 --    56 C    1.388    52 C    1.367    54 S    1.047
    54  16 S    2.251 --    53 C    1.047    55 C    1.008
    55   6 C    3.970 --    54 S    1.008   177 H    0.980   179 H    0.977
                           178 H    0.977
    56   6 C    3.988 --    57 C    1.449    53 C    1.388   180 H    0.964
    57   6 C    3.986 --    56 C    1.449    50 C    1.378   181 H    0.967
                            52 C    0.102
    58   6 C    3.925 --    79 C    1.375    40 C    1.209    59 S    1.116
    59  16 S    2.577 --    58 C    1.116    60 C    1.076
    60   6 C    3.909 --    61 C    1.374    81 C    1.212    59 S    1.076
    61   6 C    3.933 --    60 C    1.374    79 C    1.229    62 N    1.095
    62   7 N    3.497 --    61 C    1.095    63 C    1.065    71 C    1.039
    63   6 C    3.963 --    64 C    1.353    70 C    1.346    62 N    1.065
    64   6 C    3.980 --    65 C    1.457    63 C    1.353   182 H    0.963
    65   6 C    3.988 --    64 C    1.457    66 C    1.384   183 H    0.962
    66   6 C    3.952 --    65 C    1.384    69 C    1.363    67 S    1.048
    67  16 S    2.247 --    66 C    1.048    68 C    1.009
    68   6 C    3.969 --    67 S    1.009   186 H    0.979   184 H    0.978
                           185 H    0.976
    69   6 C    3.988 --    70 C    1.480    66 C    1.363   187 H    0.967
    70   6 C    3.982 --    69 C    1.480    63 C    1.346   188 H    0.965
    71   6 C    3.958 --    72 C    1.371    78 C    1.356    62 N    1.039
    72   6 C    3.981 --    73 C    1.453    71 C    1.371   189 H    0.967
                            77 C    0.100
    73   6 C    3.988 --    72 C    1.453    74 C    1.389   190 H    0.964
    74   6 C    3.952 --    73 C    1.389    77 C    1.372    75 S    1.043
    75  16 S    2.226 --    74 C    1.043    76 C    1.003
    76   6 C    3.965 --    75 S    1.003   193 H    0.980   192 H    0.977
                           191 H    0.976
    77   6 C    3.988 --    78 C    1.474    74 C    1.372   194 H    0.967
                            72 C    0.100
    78   6 C    3.980 --    77 C    1.474    71 C    1.356   195 H    0.966
    79   6 C    3.936 --    58 C    1.375    61 C    1.229    80 S    1.107
    80  16 S    2.530 --    79 C    1.107    39 C    1.105
    81   6 C    3.905 --    82 C    1.376    60 C    1.212   122 S    1.093
    82   6 C    3.940 --    81 C    1.376   100 C    1.257    83 N    1.059
    83   7 N    3.483 --    84 C    1.063    82 C    1.059    92 C    1.053
    84   6 C    3.963 --    91 C    1.369    85 C    1.337    83 N    1.063
    85   6 C    3.985 --    86 C    1.483    84 C    1.337   196 H    0.965
    86   6 C    3.989 --    85 C    1.483    87 C    1.363   197 H    0.967
    87   6 C    3.954 --    90 C    1.390    86 C    1.363    88 S    1.045
    88  16 S    2.243 --    87 C    1.045    89 C    1.009
    89   6 C    3.967 --    88 S    1.009   199 H    0.980   200 H    0.980
                           198 H    0.975
    90   6 C    3.988 --    91 C    1.447    87 C    1.390   201 H    0.964
    91   6 C    3.984 --    90 C    1.447    84 C    1.369   202 H    0.965
    92   6 C    3.962 --    99 C    1.368    93 C    1.351    83 N    1.053
    93   6 C    3.984 --    94 C    1.475    92 C    1.351   203 H    0.966
    94   6 C    3.989 --    93 C    1.475    95 C    1.369   204 H    0.967
                            99 C    0.100
    95   6 C    3.952 --    98 C    1.390    94 C    1.369    96 S    1.041
    96  16 S    2.238 --    95 C    1.041    97 C    1.007
    97   6 C    3.966 --    96 S    1.007   206 H    0.981   205 H    0.977
                           207 H    0.975
    98   6 C    3.989 --    99 C    1.451    95 C    1.390   208 H    0.964
    99   6 C    3.983 --    98 C    1.451    92 C    1.368   209 H    0.967
                            94 C    0.100
   100   6 C    3.941 --   121 C    1.324    82 C    1.257   101 S    1.121
   101  16 S    2.631 --   100 C    1.121   102 C    1.067   126 O    0.122
   102   6 C    3.921 --   123 C    1.367   103 C    1.257   101 S    1.067
   103   6 C    3.937 --   121 C    1.286   102 C    1.257   104 N    1.143
   104   7 N    3.518 --   103 C    1.143   113 C    1.042   105 C    1.033
   105   6 C    3.956 --   106 C    1.363   112 C    1.353   104 N    1.033
   106   6 C    3.980 --   107 C    1.453   105 C    1.363   210 H    0.966
   107   6 C    3.986 --   106 C    1.453   108 C    1.384   211 H    0.962
   108   6 C    3.952 --   107 C    1.384   111 C    1.363   109 S    1.059
   109  16 S    2.270 --   108 C    1.059   110 C    1.009
   110   6 C    3.966 --   109 S    1.009   213 H    0.979   212 H    0.978
                           214 H    0.973
   111   6 C    3.988 --   112 C    1.478   108 C    1.363   215 H    0.966
   112   6 C    3.977 --   111 C    1.478   105 C    1.353   216 H    0.964
   113   6 C    3.960 --   120 C    1.370   114 C    1.349   104 N    1.042
   114   6 C    3.985 --   115 C    1.478   113 C    1.349   217 H    0.967
   115   6 C    3.988 --   114 C    1.478   116 C    1.366   218 H    0.967
   116   6 C    3.956 --   119 C    1.392   115 C    1.366   117 S    1.047
   117  16 S    2.237 --   116 C    1.047   118 C    1.005
   118   6 C    3.968 --   117 S    1.005   219 H    0.982   220 H    0.980
                           221 H    0.976
   119   6 C    3.988 --   120 C    1.446   116 C    1.392   222 H    0.964
   120   6 C    3.980 --   119 C    1.446   113 C    1.370   223 H    0.964
   121   6 C    3.928 --   100 C    1.324   103 C    1.286   122 S    1.093
   122  16 S    2.563 --    81 C    1.093   121 C    1.093
   123   6 C    3.935 --   124 C    1.429   102 C    1.367   224 H    0.933
   124   6 C    3.945 --   123 C    1.429   133 C    1.175   125 C    1.076
   125   6 C    3.902 --   126 O    1.666   124 C    1.076   127 C    1.029
   126   8 O    2.058 --   125 C    1.666   101 S    0.122
   127   6 C    3.968 --   128 C    1.386   132 C    1.307   125 C    1.029
   128   6 C    3.979 --   129 C    1.435   127 C    1.386   225 H    0.964
   129   6 C    3.952 --   128 C    1.435   130 C    1.331   145 C    0.997
   130   6 C    3.964 --   131 C    1.440   129 C    1.331   139 C    0.998
   131   6 C    3.974 --   130 C    1.440   132 C    1.373   226 H    0.959
   132   6 C    3.977 --   131 C    1.373   127 C    1.307   133 C    1.083
   133   6 C    3.960 --   134 C    1.429   124 C    1.175   132 C    1.083
   134   6 C    3.941 --   133 C    1.429   135 C    1.115   137 C    1.110
   135   6 C    3.939 --   136 N    2.711   134 C    1.115
   136   7 N    2.942 --   135 C    2.711
   137   6 C    3.937 --   138 N    2.731   134 C    1.110
   138   7 N    2.943 --   137 C    2.731
   139   6 C    3.983 --   130 C    0.998   145 C    0.977   227 H    0.957
                           140 C    0.946
   140   6 C    3.989 --   141 C    1.010   144 C    0.985   228 H    0.972
                           139 C    0.946
   141   6 C    3.987 --   142 C    1.924   140 C    1.010   229 H    0.972
   142   6 C    3.987 --   141 C    1.924   143 C    1.010   230 H    0.972
   143   6 C    3.988 --   142 C    1.010   144 C    0.985   231 H    0.971
                           145 C    0.946
   144   6 C    3.991 --   140 C    0.985   143 C    0.985   232 H    0.977
                           233 H    0.976
   145   6 C    3.982 --   129 C    0.997   139 C    0.977   234 H    0.957
                           143 C    0.946
   146   1 H    0.995 --     1 C    0.946
   147   1 H    0.995 --     6 C    0.962
   148   1 H    0.997 --     9 C    0.959
   149   1 H    0.995 --    17 C    0.957
   150   1 H    0.998 --    18 C    0.972
   151   1 H    0.999 --    19 C    0.972
   152   1 H    0.999 --    20 C    0.971
   153   1 H    0.998 --    21 C    0.971
   154   1 H    0.995 --    22 C    0.976
   155   1 H    0.997 --    22 C    0.977
   156   1 H    0.994 --    23 C    0.957
   157   1 H    0.996 --    25 C    0.960
   158   1 H    0.995 --    28 C    0.968
   159   1 H    0.995 --    28 C    0.966
   160   1 H    0.997 --    29 C    0.987
   161   1 H    0.997 --    29 C    0.984
   162   1 H    0.996 --    29 C    0.983
   163   1 H    0.997 --    33 C    0.967
   164   1 H    0.998 --    34 C    0.968
   165   1 H    0.996 --    35 C    0.967
   166   1 H    0.998 --    36 C    0.970
   167   1 H    0.998 --    38 C    0.962
   168   1 H    0.998 --    43 C    0.966
   169   1 H    0.997 --    44 C    0.964
   170   1 H    0.995 --    47 C    0.980
   171   1 H    0.997 --    47 C    0.981
   172   1 H    0.994 --    47 C    0.974
   173   1 H    0.997 --    48 C    0.968
   174   1 H    0.998 --    49 C    0.966
   175   1 H    0.998 --    51 C    0.967
   176   1 H    0.997 --    52 C    0.967
   177   1 H    0.994 --    55 C    0.980
   178   1 H    0.995 --    55 C    0.977
   179   1 H    0.996 --    55 C    0.977
   180   1 H    0.997 --    56 C    0.964
   181   1 H    0.998 --    57 C    0.967
   182   1 H    0.998 --    64 C    0.963
   183   1 H    0.997 --    65 C    0.962
   184   1 H    0.994 --    68 C    0.978
   185   1 H    0.994 --    68 C    0.976
   186   1 H    0.997 --    68 C    0.979
   187   1 H    0.998 --    69 C    0.967
   188   1 H    0.998 --    70 C    0.965
   189   1 H    0.999 --    72 C    0.967
   190   1 H    0.996 --    73 C    0.964
   191   1 H    0.993 --    76 C    0.976
   192   1 H    0.995 --    76 C    0.977
   193   1 H    0.995 --    76 C    0.980
   194   1 H    0.997 --    77 C    0.967
   195   1 H    0.997 --    78 C    0.966
   196   1 H    0.998 --    85 C    0.965
   197   1 H    0.997 --    86 C    0.967
   198   1 H    0.993 --    89 C    0.975
   199   1 H    0.995 --    89 C    0.980
   200   1 H    0.995 --    89 C    0.980
   201   1 H    0.997 --    90 C    0.964
   202   1 H    0.999 --    91 C    0.965
   203   1 H    0.998 --    93 C    0.966
   204   1 H    0.997 --    94 C    0.967
   205   1 H    0.994 --    97 C    0.977
   206   1 H    0.995 --    97 C    0.981
   207   1 H    0.993 --    97 C    0.975
   208   1 H    0.997 --    98 C    0.964
   209   1 H    0.999 --    99 C    0.967
   210   1 H    0.998 --   106 C    0.966
   211   1 H    0.996 --   107 C    0.962
   212   1 H    0.994 --   110 C    0.978
   213   1 H    0.994 --   110 C    0.979
   214   1 H    0.993 --   110 C    0.973
   215   1 H    0.996 --   111 C    0.966
   216   1 H    0.998 --   112 C    0.964
   217   1 H    0.998 --   114 C    0.967
   218   1 H    0.997 --   115 C    0.967
   219   1 H    0.997 --   118 C    0.982
   220   1 H    0.994 --   118 C    0.980
   221   1 H    0.993 --   118 C    0.976
   222   1 H    0.996 --   119 C    0.964
   223   1 H    0.996 --   120 C    0.964
   224   1 H    0.996 --   123 C    0.933
   225   1 H    0.996 --   128 C    0.964
   226   1 H    0.997 --   131 C    0.959
   227   1 H    0.995 --   139 C    0.957
   228   1 H    0.998 --   140 C    0.972
   229   1 H    0.999 --   141 C    0.972
   230   1 H    0.999 --   142 C    0.972
   231   1 H    0.998 --   143 C    0.971
   232   1 H    0.997 --   144 C    0.977
   233   1 H    0.996 --   144 C    0.976
   234   1 H    0.994 --   145 C    0.957
 ---------------------------------------------------------------------------

Topologies differ in bond orders
Writing corrected topology to xtbtopo.mol

molecular dipole:
                 x           y           z       tot (Debye)
 q only:       -0.305      -4.089      -1.801
   full:       -0.854      -3.322      -1.826       9.876
molecular quadrupole (traceless):
                xx          xy          yy          xz          yz          zz
 q only:       59.104      -0.848      56.795     -23.851     150.307    -115.899
  q+dip:       69.741       5.053      54.844     -23.690     140.495    -124.584
   full:       77.084       7.815      53.791     -23.629     141.977    -130.875


           -------------------------------------------------
          | TOTAL ENERGY             -379.975092489813 Eh   |
          | GRADIENT NORM               0.037750711120 Eh/α |
          | HOMO-LUMO GAP               0.454907640308 eV   |
           -------------------------------------------------

------------------------------------------------------------------------
 * finished run on 2022/02/14 at 11:30:08.894     
------------------------------------------------------------------------
 total:
 * wall-time:     0 d,  0 h,  0 min,  3.771 sec
 *  cpu-time:     0 d,  0 h,  0 min, 18.698 sec
 * ratio c/w:     4.958 speedup
 SCF:
 * wall-time:     0 d,  0 h,  0 min,  3.604 sec
 *  cpu-time:     0 d,  0 h,  0 min, 17.927 sec
 * ratio c/w:     4.973 speedup

