      -----------------------------------------------------------      
     |                   =====================                   |     
     |                           x T B                           |     
     |                   =====================                   |     
     |                         S. Grimme                         |     
     |          Mulliken Center for Theoretical Chemistry        |     
     |                    University of Bonn                     |     
      -----------------------------------------------------------      

   * xtb version 6.4.1 (unknown) compiled by 'oda6@login1.crc.pitt.edu' on 2021-06-25

   xtb is free software: you can redistribute it and/or modify it under
   the terms of the GNU Lesser General Public License as published by
   the Free Software Foundation, either version 3 of the License, or
   (at your option) any later version.
   
   xtb is distributed in the hope that it will be useful,
   but WITHOUT ANY WARRANTY; without even the implied warranty of
   MERCHANTABILITY or FITNESS FOR A PARTICULAR PURPOSE.  See the
   GNU Lesser General Public License for more details.
   
   Cite this work as:
   * C. Bannwarth, E. Caldeweyher, S. Ehlert, A. Hansen, P. Pracht,
     J. Seibert, S. Spicher, S. Grimme, WIREs Comput. Mol. Sci., 2020, 11,
     e01493. DOI: 10.1002/wcms.1493
   
   for GFN2-xTB:
   * C. Bannwarth, S. Ehlert and S. Grimme., J. Chem. Theory Comput., 2019,
     15, 1652-1671. DOI: 10.1021/acs.jctc.8b01176
   for GFN1-xTB:
   * S. Grimme, C. Bannwarth, P. Shushkov, J. Chem. Theory Comput., 2017,
     13, 1989-2009. DOI: 10.1021/acs.jctc.7b00118
   for GFN0-xTB:
   * P. Pracht, E. Caldeweyher, S. Ehlert, S. Grimme, ChemRxiv, 2019, preprint.
     DOI: 10.26434/chemrxiv.8326202.v1
   for GFN-FF:
   * S. Spicher and S. Grimme, Angew. Chem. Int. Ed., 2020, 59, 15665-15673.
     DOI: 10.1002/anie.202004239
   
   for DFT-D4:
   * E. Caldeweyher, C. Bannwarth and S. Grimme, J. Chem. Phys., 2017,
     147, 034112. DOI: 10.1063/1.4993215
   * E. Caldeweyher, S. Ehlert, A. Hansen, H. Neugebauer, S. Spicher,
     C. Bannwarth and S. Grimme, J. Chem. Phys., 2019, 150, 154122.
     DOI: 10.1063/1.5090222
   * E. Caldeweyher, J.-M. Mewes, S. Ehlert and S. Grimme, Phys. Chem. Chem. Phys.
     2020, 22, 8499-8512. DOI: 10.1039/D0CP00502A
   
   for sTDA-xTB:
   * S. Grimme and C. Bannwarth, J. Chem. Phys., 2016, 145, 054103.
     DOI: 10.1063/1.4959605
   
   in the mass-spec context:
   * V. Asgeirsson, C. Bauer and S. Grimme, Chem. Sci., 2017, 8, 4879.
     DOI: 10.1039/c7sc00601b
   * J. Koopman and S. Grimme, ACS Omega 2019, 4, 12, 15120-15133.
     DOI: 10.1021/acsomega.9b02011
   
   for metadynamics refer to:
   * S. Grimme, J. Chem. Theory Comput., 2019, 155, 2847-2862
     DOI: 10.1021/acs.jctc.9b00143
   
   for SPH calculations refer to:
   * S. Spicher and S. Grimme, J. Chem. Theory Comput., 2021, 17, 1701-1714
     DOI: 10.1021/acs.jctc.0c01306
   
   with help from (in alphabetical order)
   P. Atkinson, C. Bannwarth, F. Bohle, G. Brandenburg, E. Caldeweyher
   M. Checinski, S. Dohm, S. Ehlert, S. Ehrlich, I. Gerasimov, J. Koopman
   C. Lavigne, S. Lehtola, F. März, M. Müller, F. Musil, H. Neugebauer
   J. Pisarek, C. Plett, P. Pracht, J. Seibert, P. Shushkov, S. Spicher
   M. Stahn, M. Steiner, T. Strunk, J. Stückrath, T. Rose, and J. Unsleber
   
 * started run on 2022/02/05 at 08:29:55.380     

           -------------------------------------------------
          |                Calculation Setup                |
           -------------------------------------------------

          program call               : /ihome/ghutchison/oda6/xtb/xtb-641/bin/xtb ../../GFN2_output/39_38_29_130_39.mol --sp --alpb water
          hostname                   : smp-n57
          coordinate file            : ../../GFN2_output/39_38_29_130_39.mol
          omp threads                :                     8
          number of atoms            :                   155
          number of electrons        :                   482
          charge                     :                     0
          spin                       :                   0.0
          first test random number   :      0.37544441312215

   ID    Z sym.   atoms
    1    6 C      1-3, 5-13, 15, 17-26, 28, 30-37, 39-42, 44-50, 52-55, 57,
                  58, 60-63, 65-71, 73-76, 78-80, 82-90, 92, 94-100
    2    8 O      4, 81
    3    7 N      14, 16, 38, 59, 91, 93
    4   17 Cl     27
    5   16 S      29, 43, 51, 56, 64, 72, 77
    6    1 H      101-155

           -------------------------------------------------
          |                 G F N 2 - x T B                 |
           -------------------------------------------------

        Reference                      10.1021/acs.jctc.8b01176
      * Hamiltonian:
        H0-scaling (s, p, d)           1.850000    2.230000    2.230000
        zeta-weighting                 0.500000
      * Dispersion:
        s8                             2.700000
        a1                             0.520000
        a2                             5.000000
        s9                             5.000000
      * Repulsion:
        kExp                           1.500000    1.000000
        rExp                           1.000000
      * Coulomb:
        alpha                          2.000000
        third order                    shell-resolved
        anisotropic                    true
        a3                             3.000000
        a5                             4.000000
        cn-shift                       1.200000
        cn-exp                         4.000000
        max-rad                        5.000000

      * Solvation model:               ALPB
        Solvent                        water
        Parameter file                 internal GFN2-xTB/ALPB
        Dielectric constant                8.0200E+01
        Reference state                gsolv [1 M gas/solution]
        Free energy shift                  1.0808E-03 Eh       6.7819E-01 kcal/mol
        Temperature                        2.9815E+02 K
        Density                            1.0000E+00 kg/L
        Solvent mass                       1.8000E+01 g/mol
        Interaction kernel             P16
        Born radius scaling (c1)           1.4744E+00
        Born radii integrator          GBOBC
        Born offset                        0.0000E+00 a0       0.0000E+00 AA
        H-bond correction              true
        Ion screening                  false
        Surface tension                    1.0000E-05 Eh       1.5569E+01 dyn/cm
        Grid points                               230 per atom

          ...................................................
          :                      SETUP                      :
          :.................................................:
          :  # basis functions                 503          :
          :  # atomic orbitals                 495          :
          :  # shells                          263          :
          :  # electrons                       482          :
          :  max. iterations                   250          :
          :  Hamiltonian                  GFN2-xTB          :
          :  restarted?                      false          :
          :  GBSA solvation                   true          :
          :  PC potential                    false          :
          :  electronic temp.          300.0000000     K    :
          :  accuracy                    1.0000000          :
          :  -> integral cutoff          0.2500000E+02      :
          :  -> integral neglect         0.1000000E-07      :
          :  -> SCF convergence          0.1000000E-05 Eh   :
          :  -> wf. convergence          0.1000000E-03 e    :
          :  Broyden damping             0.4000000          :
          ...................................................

 iter      E             dE          RMSdq      gap      omega  full diag
   1   -264.7701518 -0.264770E+03  0.474E+00    0.57       0.0  T
   2   -264.9119446 -0.141793E+00  0.275E+00    0.79       1.0  T
   3   -264.7428121  0.169133E+00  0.141E+00    0.45       1.0  T
   4   -264.9574692 -0.214657E+00  0.456E-01    0.51       1.0  T
   5   -264.9716734 -0.142042E-01  0.167E-01    0.50       1.0  T
   6   -264.9722880 -0.614506E-03  0.813E-02    0.53       1.0  T
   7   -264.9727102 -0.422254E-03  0.362E-02    0.53       1.0  T
   8   -264.9727646 -0.543602E-04  0.241E-02    0.54       1.0  T
   9   -264.9727907 -0.261544E-04  0.157E-02    0.54       1.0  T
  10   -264.9728004 -0.970313E-05  0.111E-02    0.54       1.0  T
  11   -264.9728073 -0.689309E-05  0.783E-03    0.54       1.0  T
  12   -264.9728112 -0.392432E-05  0.423E-03    0.54       1.9  T
  13   -264.9728126 -0.131596E-05  0.236E-03    0.54       3.4  T
  14   -264.9728129 -0.304425E-06  0.134E-03    0.54       6.0  T
  15   -264.9728129 -0.640442E-07  0.703E-04    0.54      11.4  T
  16   -264.9728129 -0.242883E-07  0.343E-04    0.54      23.4  T

   *** convergence criteria satisfied after 16 iterations ***

         #    Occupation            Energy/Eh            Energy/eV
      -------------------------------------------------------------
         1        2.0000           -1.0739085             -29.2225
       ...           ...                  ...                  ...
       235        2.0000           -0.3892462             -10.5919
       236        2.0000           -0.3887896             -10.5795
       237        2.0000           -0.3771287             -10.2622
       238        2.0000           -0.3659678              -9.9585
       239        2.0000           -0.3648309              -9.9276
       240        2.0000           -0.3552259              -9.6662
       241        1.9999           -0.3507334              -9.5439 (HOMO)
       242        0.0001           -0.3309811              -9.0065 (LUMO)
       243        0.0000           -0.3291760              -8.9573
       244                         -0.3207638              -8.7284
       245                         -0.3171216              -8.6293
       246                         -0.2832881              -7.7087
       ...                                ...                  ...
       495                          1.1560551              31.4579
      -------------------------------------------------------------
                  HL-Gap            0.0197523 Eh            0.5375 eV
             Fermi-level           -0.3409193 Eh           -9.2769 eV

 SCC (total)                   0 d,  0 h,  0 min,  0.567 sec
 SCC setup                      ...        0 min,  0.004 sec (  0.760%)
 Dispersion                     ...        0 min,  0.005 sec (  0.969%)
 classical contributions        ...        0 min,  0.000 sec (  0.044%)
 integral evaluation            ...        0 min,  0.025 sec (  4.389%)
 iterations                     ...        0 min,  0.455 sec ( 80.340%)
 molecular gradient             ...        0 min,  0.074 sec ( 13.115%)
 printout                       ...        0 min,  0.002 sec (  0.367%)

         :::::::::::::::::::::::::::::::::::::::::::::::::::::
         ::                     SUMMARY                     ::
         :::::::::::::::::::::::::::::::::::::::::::::::::::::
         :: total energy            -260.681413871476 Eh    ::
         :: total w/o Gsasa/hb      -260.667948297237 Eh    ::
         :: gradient norm              0.034228345582 Eh/a0 ::
         :: HOMO-LUMO gap              0.537487927530 eV    ::
         ::.................................................::
         :: SCC energy              -264.972812948331 Eh    ::
         :: -> isotropic ES            0.144069843538 Eh    ::
         :: -> anisotropic ES          0.006800993668 Eh    ::
         :: -> anisotropic XC          0.178132899003 Eh    ::
         :: -> dispersion             -0.284783234043 Eh    ::
         :: -> Gsolv                  -0.046332755010 Eh    ::
         ::    -> Gelec               -0.032867180772 Eh    ::
         ::    -> Gsasa               -0.007817068525 Eh    ::
         ::    -> Ghb                 -0.006729265412 Eh    ::
         ::    -> Gshift               0.001080759698 Eh    ::
         :: repulsion energy           4.280847327194 Eh    ::
         :: add. restraining           0.000000000000 Eh    ::
         :: total charge              -0.000000000000 e     ::
         :::::::::::::::::::::::::::::::::::::::::::::::::::::

           -------------------------------------------------
          |                Property Printout                |
           -------------------------------------------------

    * Orbital Energies and Occupations

         #    Occupation            Energy/Eh            Energy/eV
      -------------------------------------------------------------
         1        2.0000           -1.0739085             -29.2225
       ...           ...                  ...                  ...
       229        2.0000           -0.4090544             -11.1309
       230        2.0000           -0.4072518             -11.0819
       231        2.0000           -0.4027885             -10.9604
       232        2.0000           -0.3978788             -10.8268
       233        2.0000           -0.3933567             -10.7038
       234        2.0000           -0.3897154             -10.6047
       235        2.0000           -0.3892462             -10.5919
       236        2.0000           -0.3887896             -10.5795
       237        2.0000           -0.3771287             -10.2622
       238        2.0000           -0.3659678              -9.9585
       239        2.0000           -0.3648309              -9.9276
       240        2.0000           -0.3552259              -9.6662
       241        1.9999           -0.3507334              -9.5439 (HOMO)
       242        0.0001           -0.3309811              -9.0065 (LUMO)
       243        0.0000           -0.3291760              -8.9573
       244                         -0.3207638              -8.7284
       245                         -0.3171216              -8.6293
       246                         -0.2832881              -7.7087
       247                         -0.2682167              -7.2985
       248                         -0.2544701              -6.9245
       249                         -0.2493852              -6.7861
       250                         -0.2483004              -6.7566
       251                         -0.2480199              -6.7490
       252                         -0.2441255              -6.6430
       ...                                ...                  ...
       495                          1.1560551              31.4579
      -------------------------------------------------------------
                  HL-Gap            0.0197523 Eh            0.5375 eV
             Fermi-level           -0.3409193 Eh           -9.2769 eV

     #   Z          covCN         q      C6AA      α(0)
     1   6 C        2.929    -0.010    28.276     8.721
     2   6 C        3.008    -0.026    28.637     8.778
     3   6 C        2.871     0.236    23.069     7.873
     4   8 O        0.856    -0.419    22.067     6.298
     5   6 C        3.056    -0.021    28.476     8.751
     6   6 C        2.904    -0.024    28.592     8.768
     7   6 C        3.259     0.016    26.511     8.321
     8   6 C        3.257     0.019    26.475     8.318
     9   6 C        2.904    -0.028    28.702     8.785
    10   6 C        3.052     0.009    27.758     8.641
    11   6 C        3.018     0.046    26.946     8.515
    12   6 C        2.948     0.013    27.717     8.635
    13   6 C        1.936     0.134    27.812     8.517
    14   7 N        0.911    -0.284    27.327     7.560
    15   6 C        1.935     0.138    27.723     8.503
    16   7 N        0.911    -0.271    27.005     7.516
    17   6 C        4.162    -0.028    20.978     6.505
    18   6 C        4.011    -0.016    20.787     6.477
    19   6 C        2.988    -0.042    29.038     8.839
    20   6 C        2.987    -0.044    29.077     8.845
    21   6 C        4.012    -0.017    20.791     6.478
    22   6 C        3.927    -0.066    21.693     6.619
    23   6 C        4.161    -0.028    20.981     6.506
    24   6 C        2.990     0.029    27.348     8.578
    25   6 C        3.119    -0.054    29.167     8.845
    26   6 C        3.087     0.087    25.974     8.354
    27  17 Cl       0.944    -0.183   104.889    15.668
    28   6 C        3.017     0.017    27.609     8.619
    29  16 S        2.375     0.023   140.137    19.924
    30   6 C        3.011     0.016    27.635     8.623
    31   6 C        2.923    -0.032    28.793     8.800
    32   6 C        2.923    -0.032    28.794     8.800
    33   6 C        3.007     0.015    27.656     8.627
    34   6 C        2.926    -0.032    28.791     8.799
    35   6 C        2.923    -0.028    28.698     8.785
    36   6 C        3.002     0.001    27.989     8.678
    37   6 C        3.051     0.048    26.869     8.501
    38   7 N        2.748    -0.063    22.460     7.039
    39   6 C        2.919     0.060    26.659     8.467
    40   6 C        2.922    -0.047    29.168     8.857
    41   6 C        2.977    -0.039    28.966     8.828
    42   6 C        2.966     0.046    26.967     8.518
    43  16 S        2.031    -0.207   149.880    20.605
    44   6 C        3.744    -0.057    21.664     6.640
    45   6 C        2.945    -0.044    29.100     8.848
    46   6 C        2.925    -0.049    29.206     8.863
    47   6 C        2.933     0.056    26.752     8.483
    48   6 C        2.921    -0.045    29.112     8.848
    49   6 C        2.983    -0.042    29.036     8.839
    50   6 C        2.966     0.047    26.934     8.513
    51  16 S        2.034    -0.193   149.273    20.563
    52   6 C        3.744    -0.062    21.763     6.655
    53   6 C        2.944    -0.043    29.069     8.843
    54   6 C        2.924    -0.045    29.114     8.849
    55   6 C        3.177     0.004    27.514     8.565
    56  16 S        2.290    -0.009   141.438    20.016
    57   6 C        2.996     0.010    27.771     8.645
    58   6 C        3.064     0.055    26.707     8.474
    59   7 N        2.744    -0.100    23.203     7.154
    60   6 C        2.921     0.063    26.586     8.455
    61   6 C        2.922    -0.052    29.295     8.876
    62   6 C        2.973    -0.042    29.043     8.840
    63   6 C        2.965     0.043    27.027     8.527
    64  16 S        2.028    -0.208   149.900    20.606
    65   6 C        3.744    -0.063    21.781     6.658
    66   6 C        2.948    -0.040    28.995     8.832
    67   6 C        2.924    -0.052    29.295     8.876
    68   6 C        2.924     0.058    26.695     8.473
    69   6 C        2.925    -0.050    29.236     8.867
    70   6 C        2.943    -0.045    29.127     8.852
    71   6 C        2.965     0.047    26.949     8.515
    72  16 S        2.034    -0.179   148.660    20.521
    73   6 C        3.744    -0.064    21.809     6.662
    74   6 C        2.985    -0.041    29.021     8.837
    75   6 C        2.922    -0.044    29.103     8.847
    76   6 C        3.187     0.003    27.494     8.555
    77  16 S        2.261    -0.047   142.987    20.126
    78   6 C        2.942    -0.014    28.352     8.733
    79   6 C        3.020    -0.031    28.743     8.794
    80   6 C        2.871     0.236    23.072     7.874
    81   8 O        0.856    -0.422    22.132     6.307
    82   6 C        3.065    -0.023    28.501     8.754
    83   6 C        2.904    -0.024    28.600     8.769
    84   6 C        3.261     0.014    26.521     8.320
    85   6 C        3.259     0.017    26.490     8.318
    86   6 C        2.904    -0.031    28.765     8.794
    87   6 C        3.057     0.007    27.813     8.649
    88   6 C        3.026     0.038    27.121     8.542
    89   6 C        2.948    -0.001    28.052     8.687
    90   6 C        1.927     0.130    27.908     8.531
    91   7 N        0.911    -0.288    27.421     7.573
    92   6 C        1.924     0.133    27.849     8.522
    93   7 N        0.911    -0.286    27.370     7.566
    94   6 C        4.162    -0.028    20.981     6.506
    95   6 C        4.012    -0.015    20.770     6.474
    96   6 C        2.987    -0.039    28.955     8.827
    97   6 C        2.988    -0.038    28.931     8.823
    98   6 C        4.012    -0.016    20.782     6.476
    99   6 C        3.927    -0.066    21.703     6.621
   100   6 C        4.161    -0.028    20.980     6.505
   101   1 H        0.925     0.097     1.809     2.104
   102   1 H        0.926     0.069     2.092     2.262
   103   1 H        0.926     0.064     2.157     2.297
   104   1 H        0.925     0.062     2.173     2.305
   105   1 H        0.925     0.046     2.374     2.410
   106   1 H        0.926     0.034     2.529     2.487
   107   1 H        0.926     0.033     2.542     2.493
   108   1 H        0.925     0.044     2.390     2.418
   109   1 H        0.925     0.049     2.333     2.389
   110   1 H        0.925     0.049     2.335     2.390
   111   1 H        0.925     0.062     2.178     2.308
   112   1 H        0.926     0.087     1.908     2.160
   113   1 H        0.926     0.056     2.247     2.344
   114   1 H        0.926     0.052     2.290     2.367
   115   1 H        0.926     0.053     2.282     2.362
   116   1 H        0.926     0.049     2.329     2.387
   117   1 H        0.926     0.036     2.501     2.473
   118   1 H        0.926     0.036     2.500     2.473
   119   1 H        0.925     0.074     2.043     2.235
   120   1 H        0.925     0.068     2.108     2.271
   121   1 H        0.925     0.075     2.028     2.227
   122   1 H        0.926     0.061     2.183     2.311
   123   1 H        0.926     0.051     2.305     2.374
   124   1 H        0.926     0.052     2.301     2.372
   125   1 H        0.926     0.055     2.262     2.352
   126   1 H        0.925     0.070     2.090     2.261
   127   1 H        0.925     0.079     1.992     2.207
   128   1 H        0.925     0.068     2.109     2.271
   129   1 H        0.926     0.052     2.296     2.370
   130   1 H        0.926     0.036     2.501     2.473
   131   1 H        0.926     0.027     2.636     2.539
   132   1 H        0.926     0.044     2.400     2.423
   133   1 H        0.925     0.068     2.102     2.268
   134   1 H        0.925     0.079     1.988     2.205
   135   1 H        0.925     0.079     1.989     2.205
   136   1 H        0.926     0.056     2.247     2.344
   137   1 H        0.926     0.043     2.414     2.430
   138   1 H        0.926     0.024     2.677     2.559
   139   1 H        0.926     0.050     2.323     2.383
   140   1 H        0.925     0.085     1.925     2.170
   141   1 H        0.925     0.068     2.111     2.272
   142   1 H        0.925     0.071     2.078     2.254
   143   1 H        0.926     0.055     2.256     2.349
   144   1 H        0.926     0.048     2.350     2.397
   145   1 H        0.925     0.082     1.954     2.186
   146   1 H        0.926     0.068     2.109     2.271
   147   1 H        0.926     0.055     2.264     2.353
   148   1 H        0.925     0.064     2.154     2.295
   149   1 H        0.925     0.046     2.377     2.411
   150   1 H        0.926     0.021     2.721     2.580
   151   1 H        0.926     0.025     2.654     2.548
   152   1 H        0.925     0.047     2.356     2.400
   153   1 H        0.925     0.051     2.304     2.374
   154   1 H        0.925     0.052     2.297     2.370
   155   1 H        0.925     0.064     2.152     2.294

 Mol. C6AA /au·bohr⁶  :     423471.776014
 Mol. C8AA /au·bohr⁸  :   11985194.543575
 Mol. α(0) /au        :       1041.399535


Wiberg/Mayer (AO) data.
largest (>0.10) Wiberg bond orders for each atom

 ---------------------------------------------------------------------------
     #   Z sym  total        # sym  WBO       # sym  WBO       # sym  WBO
 ---------------------------------------------------------------------------
     1   6 C    3.952 --     2 C    1.620    24 C    1.178   101 H    0.941
     2   6 C    3.974 --     1 C    1.620    11 C    1.111     3 C    1.000
     3   6 C    3.915 --     4 O    1.746     5 C    1.038     2 C    1.000
     4   8 O    2.016 --     3 C    1.746
     5   6 C    3.971 --     6 C    1.373    10 C    1.295     3 C    1.038
     6   6 C    3.981 --     7 C    1.446     5 C    1.373   102 H    0.962
     7   6 C    3.953 --     6 C    1.446     8 C    1.317    23 C    0.998
     8   6 C    3.964 --     9 C    1.449     7 C    1.317    17 C    0.999
     9   6 C    3.978 --     8 C    1.449    10 C    1.364   103 H    0.958
    10   6 C    3.980 --     9 C    1.364     5 C    1.295    11 C    1.092
    11   6 C    3.975 --    12 C    1.491     2 C    1.111    10 C    1.092
    12   6 C    3.975 --    11 C    1.491    13 C    1.099    15 C    1.095
    13   6 C    3.942 --    14 N    2.755    12 C    1.099
    14   7 N    2.967 --    13 C    2.755
    15   6 C    3.942 --    16 N    2.761    12 C    1.095
    16   7 N    2.966 --    15 C    2.761
    17   6 C    3.983 --     8 C    0.999    23 C    0.977   104 H    0.956
                            18 C    0.945
    18   6 C    3.988 --    19 C    1.010    22 C    0.985   105 H    0.971
                            17 C    0.945
    19   6 C    3.987 --    20 C    1.924    18 C    1.010   106 H    0.970
    20   6 C    3.987 --    19 C    1.924    21 C    1.010   107 H    0.971
    21   6 C    3.987 --    20 C    1.010    22 C    0.985   108 H    0.971
                            23 C    0.945
    22   6 C    3.991 --    18 C    0.985    21 C    0.985   110 H    0.977
                           109 H    0.975
    23   6 C    3.982 --     7 C    0.998    17 C    0.977   111 H    0.957
                            21 C    0.945
    24   6 C    3.946 --    25 C    1.478     1 C    1.178    29 S    1.118
    25   6 C    3.960 --    24 C    1.478    26 C    1.303   112 H    0.957
    26   6 C    3.894 --    28 C    1.465    25 C    1.303    27 Cl   0.966
    27  17 Cl   1.106 --    26 C    0.966
    28   6 C    3.938 --    26 C    1.465    29 S    1.162    30 C    1.081
    29  16 S    2.629 --    28 C    1.162    24 C    1.118
    30   6 C    3.967 --    31 C    1.363    35 C    1.359    28 C    1.081
    31   6 C    3.984 --    32 C    1.477    30 C    1.363   113 H    0.965
    32   6 C    3.977 --    31 C    1.477    33 C    1.344   114 H    0.966
    33   6 C    3.975 --    34 C    1.359    32 C    1.344    36 C    1.107
    34   6 C    3.975 --    35 C    1.473    33 C    1.359   115 H    0.962
    35   6 C    3.981 --    34 C    1.473    30 C    1.359   116 H    0.967
    36   6 C    3.895 --    37 C    1.426    33 C    1.107    77 S    1.098
    37   6 C    3.958 --    36 C    1.426    55 C    1.215    38 N    1.095
    38   7 N    3.493 --    37 C    1.095    39 C    1.060    47 C    1.035
    39   6 C    3.962 --    46 C    1.359    40 C    1.352    38 N    1.060
    40   6 C    3.987 --    41 C    1.472    39 C    1.352   117 H    0.967
    41   6 C    3.990 --    40 C    1.472    42 C    1.373   118 H    0.969
                            46 C    0.100
    42   6 C    3.955 --    45 C    1.384    41 C    1.373    43 S    1.039
    43  16 S    2.253 --    42 C    1.039    44 C    1.007
    44   6 C    3.966 --    43 S    1.007   119 H    0.978   121 H    0.977
                           120 H    0.974
    45   6 C    3.987 --    46 C    1.459    42 C    1.384   122 H    0.962
    46   6 C    3.983 --    45 C    1.459    39 C    1.359   123 H    0.964
                            41 C    0.100
    47   6 C    3.961 --    54 C    1.373    48 C    1.355    38 N    1.035
    48   6 C    3.983 --    49 C    1.478    47 C    1.355   124 H    0.966
    49   6 C    3.988 --    48 C    1.478    50 C    1.365   125 H    0.967
                            54 C    0.100
    50   6 C    3.953 --    53 C    1.390    49 C    1.365    51 S    1.050
    51  16 S    2.252 --    50 C    1.050    52 C    1.008
    52   6 C    3.968 --    51 S    1.008   126 H    0.980   128 H    0.980
                           127 H    0.976
    53   6 C    3.989 --    54 C    1.447    50 C    1.390   129 H    0.964
    54   6 C    3.985 --    53 C    1.447    47 C    1.373   130 H    0.967
                            49 C    0.100
    55   6 C    3.929 --    76 C    1.349    37 C    1.215    56 S    1.130
    56  16 S    2.575 --    55 C    1.130    57 C    1.105
    57   6 C    3.935 --    58 C    1.416    78 C    1.200    56 S    1.105
    58   6 C    3.960 --    57 C    1.416    76 C    1.266    59 N    1.005
    59   7 N    3.421 --    60 C    1.086    68 C    1.025    58 C    1.005
    60   6 C    3.964 --    61 C    1.343    67 C    1.336    59 N    1.086
    61   6 C    3.983 --    62 C    1.462    60 C    1.343   131 H    0.963
    62   6 C    3.990 --    61 C    1.462    63 C    1.386   132 H    0.969
    63   6 C    3.955 --    62 C    1.386    66 C    1.372    64 S    1.040
    64  16 S    2.206 --    63 C    1.040    65 C    1.000
    65   6 C    3.962 --    64 S    1.000   133 H    0.981   135 H    0.976
                           134 H    0.974
    66   6 C    3.984 --    67 C    1.474    63 C    1.372   136 H    0.964
    67   6 C    3.985 --    66 C    1.474    60 C    1.336   137 H    0.961
    68   6 C    3.961 --    69 C    1.382    75 C    1.353    59 N    1.025
    69   6 C    3.986 --    70 C    1.445    68 C    1.382   138 H    0.964
                            74 C    0.101
    70   6 C    3.988 --    69 C    1.445    71 C    1.390   139 H    0.964
    71   6 C    3.957 --    70 C    1.390    74 C    1.361    72 S    1.056
    72  16 S    2.263 --    71 C    1.056    73 C    1.009
    73   6 C    3.967 --    72 S    1.009   141 H    0.979   142 H    0.979
                           140 H    0.974
    74   6 C    3.988 --    75 C    1.479    71 C    1.361   143 H    0.966
                            69 C    0.101
    75   6 C    3.986 --    74 C    1.479    68 C    1.353   144 H    0.964
    76   6 C    3.939 --    55 C    1.349    58 C    1.266    77 S    1.110
    77  16 S    2.531 --    76 C    1.110    36 C    1.098
    78   6 C    3.944 --    79 C    1.577    57 C    1.200   145 H    0.947
    79   6 C    3.958 --    78 C    1.577    88 C    1.128    80 C    0.998
    80   6 C    3.911 --    81 O    1.742    82 C    1.032    79 C    0.998
    81   8 O    2.020 --    80 C    1.742
    82   6 C    3.968 --    83 C    1.376    87 C    1.295    80 C    1.032
    83   6 C    3.980 --    84 C    1.443    82 C    1.376   146 H    0.962
    84   6 C    3.950 --    83 C    1.443    85 C    1.320   100 C    0.997
    85   6 C    3.963 --    86 C    1.446    84 C    1.320    94 C    0.999
    86   6 C    3.979 --    85 C    1.446    87 C    1.365   147 H    0.959
    87   6 C    3.981 --    86 C    1.365    82 C    1.295    88 C    1.093
    88   6 C    3.969 --    89 C    1.451    79 C    1.128    87 C    1.093
    89   6 C    3.963 --    88 C    1.451    92 C    1.112    90 C    1.103
    90   6 C    3.942 --    91 N    2.752    89 C    1.103
    91   7 N    2.962 --    90 C    2.752
    92   6 C    3.942 --    93 N    2.742    89 C    1.112
    93   7 N    2.962 --    92 C    2.742
    94   6 C    3.982 --    85 C    0.999   100 C    0.977   148 H    0.957
                            95 C    0.944
    95   6 C    3.988 --    96 C    1.011    99 C    0.985   149 H    0.971
                            94 C    0.944
    96   6 C    3.988 --    97 C    1.923    95 C    1.011   150 H    0.970
    97   6 C    3.987 --    96 C    1.923    98 C    1.010   151 H    0.971
    98   6 C    3.987 --    97 C    1.010    99 C    0.985   152 H    0.971
                           100 C    0.945
    99   6 C    3.991 --    98 C    0.985    95 C    0.985   154 H    0.976
                           153 H    0.975
   100   6 C    3.981 --    84 C    0.997    94 C    0.977   155 H    0.957
                            98 C    0.945
   101   1 H    0.988 --     1 C    0.941
   102   1 H    0.994 --     6 C    0.962
   103   1 H    0.995 --     9 C    0.958
   104   1 H    0.994 --    17 C    0.956
   105   1 H    0.998 --    18 C    0.971
   106   1 H    0.999 --    19 C    0.970
   107   1 H    0.999 --    20 C    0.971
   108   1 H    0.998 --    21 C    0.971
   109   1 H    0.995 --    22 C    0.975
   110   1 H    0.997 --    22 C    0.977
   111   1 H    0.994 --    23 C    0.957
   112   1 H    0.992 --    25 C    0.957
   113   1 H    0.996 --    31 C    0.965
   114   1 H    0.996 --    32 C    0.966
   115   1 H    0.996 --    34 C    0.962
   116   1 H    0.997 --    35 C    0.967
   117   1 H    0.998 --    40 C    0.967
   118   1 H    0.998 --    41 C    0.969
   119   1 H    0.994 --    44 C    0.978
   120   1 H    0.995 --    44 C    0.974
   121   1 H    0.994 --    44 C    0.977
   122   1 H    0.996 --    45 C    0.962
   123   1 H    0.997 --    46 C    0.964
   124   1 H    0.997 --    48 C    0.966
   125   1 H    0.996 --    49 C    0.967
   126   1 H    0.995 --    52 C    0.980
   127   1 H    0.993 --    52 C    0.976
   128   1 H    0.995 --    52 C    0.980
   129   1 H    0.997 --    53 C    0.964
   130   1 H    0.999 --    54 C    0.967
   131   1 H    0.999 --    61 C    0.963
   132   1 H    0.998 --    62 C    0.969
   133   1 H    0.995 --    65 C    0.981
   134   1 H    0.993 --    65 C    0.974
   135   1 H    0.993 --    65 C    0.976
   136   1 H    0.996 --    66 C    0.964
   137   1 H    0.998 --    67 C    0.961
   138   1 H    0.999 --    69 C    0.964
   139   1 H    0.997 --    70 C    0.964
   140   1 H    0.992 --    73 C    0.974
   141   1 H    0.995 --    73 C    0.979
   142   1 H    0.995 --    73 C    0.979
   143   1 H    0.996 --    74 C    0.966
   144   1 H    0.997 --    75 C    0.964
   145   1 H    0.990 --    78 C    0.947
   146   1 H    0.995 --    83 C    0.962
   147   1 H    0.997 --    86 C    0.959
   148   1 H    0.994 --    94 C    0.957
   149   1 H    0.998 --    95 C    0.971
   150   1 H    1.000 --    96 C    0.970
   151   1 H    0.999 --    97 C    0.971
   152   1 H    0.998 --    98 C    0.971
   153   1 H    0.995 --    99 C    0.975
   154   1 H    0.997 --    99 C    0.976
   155   1 H    0.994 --   100 C    0.957
 ---------------------------------------------------------------------------

Topologies differ in bond orders
Writing corrected topology to xtbtopo.mol

molecular dipole:
                 x           y           z       tot (Debye)
 q only:        1.197       0.099      -1.529
   full:        1.190      -0.177      -1.026       4.021
molecular quadrupole (traceless):
                xx          xy          yy          xz          yz          zz
 q only:     -139.226     -33.990      96.012       0.718    -127.140      43.214
  q+dip:     -119.290     -50.770      91.601       5.891    -121.433      27.689
   full:     -116.145     -47.314      88.825      12.709    -117.129      27.320


           -------------------------------------------------
          | TOTAL ENERGY             -260.681413871476 Eh   |
          | GRADIENT NORM               0.034228345582 Eh/α |
          | HOMO-LUMO GAP               0.537487927530 eV   |
           -------------------------------------------------

------------------------------------------------------------------------
 * finished run on 2022/02/05 at 08:29:56.031     
------------------------------------------------------------------------
 total:
 * wall-time:     0 d,  0 h,  0 min,  0.651 sec
 *  cpu-time:     0 d,  0 h,  0 min,  5.081 sec
 * ratio c/w:     7.800 speedup
 SCF:
 * wall-time:     0 d,  0 h,  0 min,  0.570 sec
 *  cpu-time:     0 d,  0 h,  0 min,  4.538 sec
 * ratio c/w:     7.963 speedup

