      -----------------------------------------------------------      
     |                   =====================                   |     
     |                           x T B                           |     
     |                   =====================                   |     
     |                         S. Grimme                         |     
     |          Mulliken Center for Theoretical Chemistry        |     
     |                    University of Bonn                     |     
      -----------------------------------------------------------      

   * xtb version 6.4.1 (unknown) compiled by 'oda6@login1.crc.pitt.edu' on 2021-06-25

   xtb is free software: you can redistribute it and/or modify it under
   the terms of the GNU Lesser General Public License as published by
   the Free Software Foundation, either version 3 of the License, or
   (at your option) any later version.
   
   xtb is distributed in the hope that it will be useful,
   but WITHOUT ANY WARRANTY; without even the implied warranty of
   MERCHANTABILITY or FITNESS FOR A PARTICULAR PURPOSE.  See the
   GNU Lesser General Public License for more details.
   
   Cite this work as:
   * C. Bannwarth, E. Caldeweyher, S. Ehlert, A. Hansen, P. Pracht,
     J. Seibert, S. Spicher, S. Grimme, WIREs Comput. Mol. Sci., 2020, 11,
     e01493. DOI: 10.1002/wcms.1493
   
   for GFN2-xTB:
   * C. Bannwarth, S. Ehlert and S. Grimme., J. Chem. Theory Comput., 2019,
     15, 1652-1671. DOI: 10.1021/acs.jctc.8b01176
   for GFN1-xTB:
   * S. Grimme, C. Bannwarth, P. Shushkov, J. Chem. Theory Comput., 2017,
     13, 1989-2009. DOI: 10.1021/acs.jctc.7b00118
   for GFN0-xTB:
   * P. Pracht, E. Caldeweyher, S. Ehlert, S. Grimme, ChemRxiv, 2019, preprint.
     DOI: 10.26434/chemrxiv.8326202.v1
   for GFN-FF:
   * S. Spicher and S. Grimme, Angew. Chem. Int. Ed., 2020, 59, 15665-15673.
     DOI: 10.1002/anie.202004239
   
   for DFT-D4:
   * E. Caldeweyher, C. Bannwarth and S. Grimme, J. Chem. Phys., 2017,
     147, 034112. DOI: 10.1063/1.4993215
   * E. Caldeweyher, S. Ehlert, A. Hansen, H. Neugebauer, S. Spicher,
     C. Bannwarth and S. Grimme, J. Chem. Phys., 2019, 150, 154122.
     DOI: 10.1063/1.5090222
   * E. Caldeweyher, J.-M. Mewes, S. Ehlert and S. Grimme, Phys. Chem. Chem. Phys.
     2020, 22, 8499-8512. DOI: 10.1039/D0CP00502A
   
   for sTDA-xTB:
   * S. Grimme and C. Bannwarth, J. Chem. Phys., 2016, 145, 054103.
     DOI: 10.1063/1.4959605
   
   in the mass-spec context:
   * V. Asgeirsson, C. Bauer and S. Grimme, Chem. Sci., 2017, 8, 4879.
     DOI: 10.1039/c7sc00601b
   * J. Koopman and S. Grimme, ACS Omega 2019, 4, 12, 15120-15133.
     DOI: 10.1021/acsomega.9b02011
   
   for metadynamics refer to:
   * S. Grimme, J. Chem. Theory Comput., 2019, 155, 2847-2862
     DOI: 10.1021/acs.jctc.9b00143
   
   for SPH calculations refer to:
   * S. Spicher and S. Grimme, J. Chem. Theory Comput., 2021, 17, 1701-1714
     DOI: 10.1021/acs.jctc.0c01306
   
   with help from (in alphabetical order)
   P. Atkinson, C. Bannwarth, F. Bohle, G. Brandenburg, E. Caldeweyher
   M. Checinski, S. Dohm, S. Ehlert, S. Ehrlich, I. Gerasimov, J. Koopman
   C. Lavigne, S. Lehtola, F. März, M. Müller, F. Musil, H. Neugebauer
   J. Pisarek, C. Plett, P. Pracht, J. Seibert, P. Shushkov, S. Spicher
   M. Stahn, M. Steiner, T. Strunk, J. Stückrath, T. Rose, and J. Unsleber
   
 * started run on 2022/02/09 at 13:39:19.721     

           -------------------------------------------------
          |                Calculation Setup                |
           -------------------------------------------------

          program call               : /ihome/ghutchison/oda6/xtb/xtb-641/bin/xtb ../../GFN2_output/39_50_125_50_39.mol --sp --alpb water
          hostname                   : smp-n26
          coordinate file            : ../../GFN2_output/39_50_125_50_39.mol
          omp threads                :                     8
          number of atoms            :                   121
          number of electrons        :                   376
          charge                     :                     0
          spin                       :                   0.0
          first test random number   :      0.47421578239107

   ID    Z sym.   atoms
    1    6 C      1-3, 5-13, 15, 17-26, 28-30, 32, 33, 35-37, 39-43, 47-49,
                  51-53, 55-57, 59-67, 69, 71-77
    2    8 O      4, 34, 38, 58
    3    7 N      14, 16, 44, 46, 68, 70
    4   16 S      27, 31, 45, 50, 54
    5    1 H      78-121

           -------------------------------------------------
          |                 G F N 2 - x T B                 |
           -------------------------------------------------

        Reference                      10.1021/acs.jctc.8b01176
      * Hamiltonian:
        H0-scaling (s, p, d)           1.850000    2.230000    2.230000
        zeta-weighting                 0.500000
      * Dispersion:
        s8                             2.700000
        a1                             0.520000
        a2                             5.000000
        s9                             5.000000
      * Repulsion:
        kExp                           1.500000    1.000000
        rExp                           1.000000
      * Coulomb:
        alpha                          2.000000
        third order                    shell-resolved
        anisotropic                    true
        a3                             3.000000
        a5                             4.000000
        cn-shift                       1.200000
        cn-exp                         4.000000
        max-rad                        5.000000

      * Solvation model:               ALPB
        Solvent                        water
        Parameter file                 internal GFN2-xTB/ALPB
        Dielectric constant                8.0200E+01
        Reference state                gsolv [1 M gas/solution]
        Free energy shift                  1.0808E-03 Eh       6.7819E-01 kcal/mol
        Temperature                        2.9815E+02 K
        Density                            1.0000E+00 kg/L
        Solvent mass                       1.8000E+01 g/mol
        Interaction kernel             P16
        Born radius scaling (c1)           1.4744E+00
        Born radii integrator          GBOBC
        Born offset                        0.0000E+00 a0       0.0000E+00 AA
        H-bond correction              true
        Ion screening                  false
        Surface tension                    1.0000E-05 Eh       1.5569E+01 dyn/cm
        Grid points                               230 per atom

          ...................................................
          :                      SETUP                      :
          :.................................................:
          :  # basis functions                 382          :
          :  # atomic orbitals                 377          :
          :  # shells                          203          :
          :  # electrons                       376          :
          :  max. iterations                   250          :
          :  Hamiltonian                  GFN2-xTB          :
          :  restarted?                      false          :
          :  GBSA solvation                   true          :
          :  PC potential                    false          :
          :  electronic temp.          300.0000000     K    :
          :  accuracy                    1.0000000          :
          :  -> integral cutoff          0.2500000E+02      :
          :  -> integral neglect         0.1000000E-07      :
          :  -> SCF convergence          0.1000000E-05 Eh   :
          :  -> wf. convergence          0.1000000E-03 e    :
          :  Broyden damping             0.4000000          :
          ...................................................

 iter      E             dE          RMSdq      gap      omega  full diag
   1   -207.8842699 -0.207884E+03  0.488E+00    1.01       0.0  T
   2   -207.8813036  0.296624E-02  0.310E+00    0.32       1.0  T
   3   -207.6856571  0.195647E+00  0.217E+00    0.54       1.0  T
   4   -208.1060555 -0.420398E+00  0.823E-01    0.58       1.0  T
   5   -208.1278166 -0.217610E-01  0.487E-01    0.54       1.0  T
   6   -208.1365985 -0.878197E-02  0.243E-01    0.31       1.0  T
   7   -208.1385157 -0.191720E-02  0.142E-01    0.34       1.0  T
   8   -208.1392562 -0.740438E-03  0.727E-02    0.28       1.0  T
   9   -208.1392494  0.679046E-05  0.702E-02    0.33       1.0  T
  10   -208.1396656 -0.416230E-03  0.247E-02    0.30       1.0  T
  11   -208.1396958 -0.301995E-04  0.180E-02    0.31       1.0  T
  12   -208.1397294 -0.335420E-04  0.609E-03    0.31       1.5  T
  13   -208.1397298 -0.401447E-06  0.368E-03    0.31       2.5  T
  14   -208.1397309 -0.117537E-05  0.150E-03    0.31       6.1  T
  15   -208.1397310 -0.791334E-07  0.774E-04    0.31      11.7  T
  16   -208.1397310 -0.211192E-07  0.401E-04    0.31      22.7  T

   *** convergence criteria satisfied after 16 iterations ***

         #    Occupation            Energy/Eh            Energy/eV
      -------------------------------------------------------------
         1        2.0000           -0.7810930             -21.2546
       ...           ...                  ...                  ...
       182        2.0000           -0.4005426             -10.8993
       183        2.0000           -0.3935696             -10.7096
       184        2.0000           -0.3918404             -10.6625
       185        2.0000           -0.3895429             -10.6000
       186        2.0000           -0.3736475             -10.1675
       187        2.0000           -0.3721883             -10.1278
       188        1.9948           -0.3634306              -9.8895 (HOMO)
       189        0.0052           -0.3521349              -9.5821 (LUMO)
       190                         -0.3341440              -9.0925
       191                         -0.3218649              -8.7584
       192                         -0.3170651              -8.6278
       193                         -0.3102377              -8.4420
       ...                                ...                  ...
       377                          1.1606416              31.5827
      -------------------------------------------------------------
                  HL-Gap            0.0112957 Eh            0.3074 eV
             Fermi-level           -0.3577827 Eh           -9.7358 eV

 SCC (total)                   0 d,  0 h,  0 min,  0.352 sec
 SCC setup                      ...        0 min,  0.003 sec (  0.915%)
 Dispersion                     ...        0 min,  0.004 sec (  1.202%)
 classical contributions        ...        0 min,  0.000 sec (  0.050%)
 integral evaluation            ...        0 min,  0.017 sec (  4.703%)
 iterations                     ...        0 min,  0.280 sec ( 79.358%)
 molecular gradient             ...        0 min,  0.047 sec ( 13.388%)
 printout                       ...        0 min,  0.001 sec (  0.353%)

         :::::::::::::::::::::::::::::::::::::::::::::::::::::
         ::                     SUMMARY                     ::
         :::::::::::::::::::::::::::::::::::::::::::::::::::::
         :: total energy            -204.954941876061 Eh    ::
         :: total w/o Gsasa/hb      -204.932491470394 Eh    ::
         :: gradient norm              0.041883200617 Eh/a0 ::
         :: HOMO-LUMO gap              0.307372435961 eV    ::
         ::.................................................::
         :: SCC energy              -208.139731038389 Eh    ::
         :: -> isotropic ES            0.203018495037 Eh    ::
         :: -> anisotropic ES          0.005200789571 Eh    ::
         :: -> anisotropic XC          0.140538818005 Eh    ::
         :: -> dispersion             -0.198513110296 Eh    ::
         :: -> Gsolv                  -0.067582390575 Eh    ::
         ::    -> Gelec               -0.045131984908 Eh    ::
         ::    -> Gsasa               -0.018240000440 Eh    ::
         ::    -> Ghb                 -0.005291164925 Eh    ::
         ::    -> Gshift               0.001080759698 Eh    ::
         :: repulsion energy           3.180115081179 Eh    ::
         :: add. restraining           0.000000000000 Eh    ::
         :: total charge               0.000000000001 e     ::
         :::::::::::::::::::::::::::::::::::::::::::::::::::::

           -------------------------------------------------
          |                Property Printout                |
           -------------------------------------------------

    * Orbital Energies and Occupations

         #    Occupation            Energy/Eh            Energy/eV
      -------------------------------------------------------------
         1        2.0000           -0.7810930             -21.2546
       ...           ...                  ...                  ...
       176        2.0000           -0.4160155             -11.3204
       177        2.0000           -0.4153850             -11.3032
       178        2.0000           -0.4130968             -11.2409
       179        2.0000           -0.4125418             -11.2258
       180        2.0000           -0.4092829             -11.1372
       181        2.0000           -0.4025878             -10.9550
       182        2.0000           -0.4005426             -10.8993
       183        2.0000           -0.3935696             -10.7096
       184        2.0000           -0.3918404             -10.6625
       185        2.0000           -0.3895429             -10.6000
       186        2.0000           -0.3736475             -10.1675
       187        2.0000           -0.3721883             -10.1278
       188        1.9948           -0.3634306              -9.8895 (HOMO)
       189        0.0052           -0.3521349              -9.5821 (LUMO)
       190                         -0.3341440              -9.0925
       191                         -0.3218649              -8.7584
       192                         -0.3170651              -8.6278
       193                         -0.3102377              -8.4420
       194                         -0.2707241              -7.3668
       195                         -0.2660962              -7.2408
       196                         -0.2628568              -7.1527
       197                         -0.2553900              -6.9495
       198                         -0.2483302              -6.7574
       199                         -0.2445434              -6.6544
       ...                                ...                  ...
       377                          1.1606416              31.5827
      -------------------------------------------------------------
                  HL-Gap            0.0112957 Eh            0.3074 eV
             Fermi-level           -0.3577827 Eh           -9.7358 eV

     #   Z          covCN         q      C6AA      α(0)
     1   6 C        2.918    -0.011    28.279     8.720
     2   6 C        3.005    -0.030    28.734     8.793
     3   6 C        2.873     0.231    23.171     7.891
     4   8 O        0.952    -0.398    21.590     6.232
     5   6 C        3.058    -0.019    28.431     8.744
     6   6 C        2.904    -0.023    28.586     8.767
     7   6 C        3.260     0.017    26.476     8.315
     8   6 C        3.257     0.017    26.507     8.323
     9   6 C        2.904    -0.031    28.782     8.797
    10   6 C        3.049     0.006    27.841     8.654
    11   6 C        3.018     0.040    27.080     8.536
    12   6 C        2.947     0.007    27.875     8.659
    13   6 C        1.948     0.137    27.747     8.507
    14   7 N        0.911    -0.276    27.127     7.533
    15   6 C        1.947     0.133    27.828     8.519
    16   7 N        0.911    -0.278    27.179     7.540
    17   6 C        4.163    -0.028    20.987     6.506
    18   6 C        4.011    -0.016    20.788     6.477
    19   6 C        2.987    -0.043    29.052     8.842
    20   6 C        2.987    -0.043    29.068     8.844
    21   6 C        4.011    -0.016    20.789     6.477
    22   6 C        3.927    -0.066    21.701     6.620
    23   6 C        4.162    -0.028    20.985     6.506
    24   6 C        2.981     0.030    27.330     8.575
    25   6 C        3.116    -0.051    29.100     8.836
    26   6 C        3.111     0.047    26.797     8.481
    27  16 S        2.039    -0.156   147.630    20.450
    28   6 C        3.794    -0.007    20.704     6.480
    29   6 C        3.783    -0.117    22.760     6.796
    30   6 C        3.043     0.016    27.613     8.619
    31  16 S        2.392     0.075   138.036    19.774
    32   6 C        3.004     0.001    27.999     8.680
    33   6 C        2.875     0.118    25.412     8.264
    34   8 O        1.702    -0.308    19.135     5.906
    35   6 C        3.704     0.078    19.430     6.302
    36   6 C        3.750    -0.117    22.810     6.811
    37   6 C        2.856     0.149    24.768     8.157
    38   8 O        1.705    -0.228    17.775     5.692
    39   6 C        3.684     0.068    19.644     6.346
    40   6 C        3.750    -0.129    23.039     6.845
    41   6 C        2.967    -0.014    28.363     8.736
    42   6 C        3.357     0.088    23.330     7.593
    43   6 C        3.344     0.072    23.904     7.722
    44   7 N        1.856    -0.266    27.773     7.811
    45  16 S        2.689     0.419   125.121    18.826
    46   7 N        1.854    -0.302    28.670     7.936
    47   6 C        2.963     0.069    26.448     8.435
    48   6 C        3.887     0.035    19.943     6.349
    49   6 C        2.960     0.031    27.307     8.571
    50  16 S        2.035    -0.206   149.848    20.603
    51   6 C        3.792    -0.008    20.725     6.483
    52   6 C        3.775    -0.118    22.789     6.802
    53   6 C        2.040    -0.028    31.731     9.098
    54  16 S        1.980    -0.001   141.113    19.993
    55   6 C        2.891    -0.018    28.450     8.745
    56   6 C        3.026    -0.057    29.396     8.893
    57   6 C        2.877     0.215    23.461     7.940
    58   8 O        0.856    -0.494    23.658     6.521
    59   6 C        3.060    -0.034    28.791     8.799
    60   6 C        2.905    -0.031    28.774     8.796
    61   6 C        3.259     0.006    26.741     8.358
    62   6 C        3.258     0.007    26.714     8.354
    63   6 C        2.905    -0.037    28.923     8.818
    64   6 C        3.058    -0.003    28.041     8.684
    65   6 C        3.022     0.027    27.368     8.581
    66   6 C        2.947    -0.021    28.531     8.761
    67   6 C        1.946     0.128    27.942     8.536
    68   7 N        0.911    -0.320    28.223     7.683
    69   6 C        1.946     0.128    27.956     8.539
    70   7 N        0.911    -0.323    28.307     7.695
    71   6 C        4.164    -0.028    20.981     6.506
    72   6 C        4.012    -0.016    20.788     6.477
    73   6 C        2.989    -0.041    29.013     8.836
    74   6 C        2.987    -0.042    29.044     8.840
    75   6 C        4.014    -0.015    20.758     6.472
    76   6 C        3.926    -0.067    21.709     6.622
    77   6 C        4.161    -0.027    20.971     6.504
    78   1 H        0.925     0.082     1.957     2.188
    79   1 H        0.926     0.074     2.047     2.237
    80   1 H        0.926     0.059     2.206     2.323
    81   1 H        0.925     0.063     2.163     2.300
    82   1 H        0.925     0.044     2.393     2.419
    83   1 H        0.926     0.030     2.586     2.515
    84   1 H        0.926     0.033     2.544     2.494
    85   1 H        0.925     0.047     2.358     2.401
    86   1 H        0.925     0.051     2.312     2.378
    87   1 H        0.925     0.049     2.331     2.387
    88   1 H        0.925     0.065     2.142     2.288
    89   1 H        0.926     0.083     1.950     2.184
    90   1 H        0.925     0.073     2.050     2.239
    91   1 H        0.925     0.070     2.080     2.256
    92   1 H        0.925     0.067     2.119     2.276
    93   1 H        0.925     0.058     2.225     2.333
    94   1 H        0.925     0.051     2.308     2.376
    95   1 H        0.924     0.080     1.981     2.201
    96   1 H        0.923     0.036     2.499     2.472
    97   1 H        0.925     0.065     2.143     2.289
    98   1 H        0.925     0.033     2.540     2.492
    99   1 H        0.925     0.054     2.273     2.358
   100   1 H        0.924     0.088     1.894     2.152
   101   1 H        0.924     0.070     2.082     2.256
   102   1 H        0.925     0.060     2.199     2.319
   103   1 H        0.925     0.078     2.004     2.214
   104   1 H        0.925     0.053     2.288     2.365
   105   1 H        0.925     0.117     1.641     2.003
   106   1 H        0.925     0.066     2.135     2.285
   107   1 H        0.925     0.057     2.235     2.338
   108   1 H        0.925     0.064     2.156     2.296
   109   1 H        0.925     0.053     2.287     2.365
   110   1 H        0.925     0.061     2.191     2.314
   111   1 H        0.925     0.068     2.111     2.272
   112   1 H        0.926     0.046     2.367     2.406
   113   1 H        0.926     0.044     2.400     2.423
   114   1 H        0.925     0.056     2.246     2.343
   115   1 H        0.925     0.040     2.449     2.447
   116   1 H        0.926     0.023     2.681     2.561
   117   1 H        0.926     0.029     2.604     2.523
   118   1 H        0.925     0.045     2.380     2.413
   119   1 H        0.925     0.049     2.333     2.388
   120   1 H        0.925     0.052     2.297     2.370
   121   1 H        0.925     0.060     2.195     2.317

 Mol. C6AA /au·bohr⁶  :     236937.941545
 Mol. C8AA /au·bohr⁸  :    6508987.242921
 Mol. α(0) /au        :        765.512451


Wiberg/Mayer (AO) data.
largest (>0.10) Wiberg bond orders for each atom

 ---------------------------------------------------------------------------
     #   Z sym  total        # sym  WBO       # sym  WBO       # sym  WBO
 ---------------------------------------------------------------------------
     1   6 C    3.950 --     2 C    1.530    24 C    1.267    78 H    0.937
     2   6 C    3.958 --     1 C    1.530    11 C    1.129     3 C    1.054
     3   6 C    3.910 --     4 O    1.688     2 C    1.054     5 C    1.039
     4   8 O    2.093 --     3 C    1.688    31 S    0.130
     5   6 C    3.969 --     6 C    1.379    10 C    1.296     3 C    1.039
     6   6 C    3.978 --     7 C    1.439     5 C    1.379    79 H    0.962
     7   6 C    3.950 --     6 C    1.439     8 C    1.320    23 C    0.998
     8   6 C    3.961 --     9 C    1.447     7 C    1.320    17 C    0.999
     9   6 C    3.978 --     8 C    1.447    10 C    1.365    80 H    0.958
    10   6 C    3.974 --     9 C    1.365     5 C    1.296    11 C    1.096
    11   6 C    3.970 --    12 C    1.478     2 C    1.129    10 C    1.096
    12   6 C    3.947 --    11 C    1.478    15 C    1.101    13 C    1.099
    13   6 C    3.941 --    14 N    2.752    12 C    1.099
    14   7 N    2.960 --    13 C    2.752
    15   6 C    3.941 --    16 N    2.742    12 C    1.101
    16   7 N    2.954 --    15 C    2.742
    17   6 C    3.983 --     8 C    0.999    23 C    0.977    81 H    0.956
                            18 C    0.945
    18   6 C    3.988 --    19 C    1.010    22 C    0.985    82 H    0.971
                            17 C    0.945
    19   6 C    3.987 --    20 C    1.924    18 C    1.010    83 H    0.972
    20   6 C    3.987 --    19 C    1.924    21 C    1.010    84 H    0.971
    21   6 C    3.987 --    20 C    1.010    22 C    0.985    85 H    0.971
                            23 C    0.945
    22   6 C    3.991 --    21 C    0.985    18 C    0.985    86 H    0.977
                            87 H    0.975
    23   6 C    3.981 --     7 C    0.998    17 C    0.977    88 H    0.956
                            21 C    0.945
    24   6 C    3.935 --    25 C    1.380     1 C    1.267    31 S    1.131
    25   6 C    3.958 --    24 C    1.380    26 C    1.363    89 H    0.955
                            31 S    0.106
    26   6 C    3.941 --    25 C    1.363    30 C    1.354    27 S    1.066
    27  16 S    2.286 --    26 C    1.066    28 C    0.971
    28   6 C    3.956 --    29 C    1.026    27 S    0.971    91 H    0.967
                            90 H    0.961
    29   6 C    3.988 --    28 C    1.026    93 H    0.985    94 H    0.984
                            92 H    0.975
    30   6 C    3.930 --    26 C    1.354    31 S    1.177    32 C    1.145
    31  16 S    2.796 --    30 C    1.177    24 C    1.131     4 O    0.130
                            25 C    0.106
    32   6 C    3.912 --    33 C    1.356    43 C    1.180    30 C    1.145
    33   6 C    3.933 --    32 C    1.356    37 C    1.293    34 O    1.023
    34   8 O    2.114 --    33 C    1.023    35 C    0.928
    35   6 C    3.925 --    36 C    1.016    96 H    0.970    95 H    0.966
                            34 O    0.928
    36   6 C    3.992 --    35 C    1.016    99 H    0.985    98 H    0.985
                            97 H    0.980
    37   6 C    3.906 --    33 C    1.293    41 C    1.191    38 O    1.162
    38   8 O    2.295 --    37 C    1.162    39 C    0.924
    39   6 C    3.900 --    40 C    1.010   100 H    0.964   101 H    0.960
                            38 O    0.924
    40   6 C    3.982 --    39 C    1.010   102 H    0.985   104 H    0.983
                           103 H    0.978
    41   6 C    3.966 --    47 C    1.389    37 C    1.191    42 C    1.138
    42   6 C    3.970 --    46 N    1.433    43 C    1.170    41 C    1.138
    43   6 C    3.970 --    44 N    1.400    32 C    1.180    42 C    1.170
    44   7 N    3.067 --    45 S    1.430    43 C    1.400    46 N    0.144
    45  16 S    3.147 --    44 N    1.430    46 N    1.386
    46   7 N    3.067 --    42 C    1.433    45 S    1.386    44 N    0.144
    47   6 C    3.879 --    41 C    1.389    54 S    1.200    48 C    1.045
    48   6 C    3.906 --    47 C    1.045    49 C    0.956   105 H    0.939
                            54 S    0.868
    49   6 C    3.947 --    53 C    1.891    48 C    0.956    50 S    0.954
    50  16 S    2.135 --    51 C    0.959    49 C    0.954
    51   6 C    3.965 --    52 C    1.027   107 H    0.972   106 H    0.971
                            50 S    0.959
    52   6 C    3.990 --    51 C    1.027   110 H    0.985   109 H    0.982
                           108 H    0.976
    53   6 C    3.908 --    49 C    1.891    55 C    1.671
    54  16 S    2.408 --    47 C    1.200    48 C    0.868
    55   6 C    3.975 --    53 C    1.671    56 C    1.221   111 H    0.917
    56   6 C    3.905 --    65 C    1.257    55 C    1.221    57 C    1.110
    57   6 C    3.911 --    58 O    1.643    56 C    1.110    59 C    1.013
    58   8 O    1.939 --    57 C    1.643
    59   6 C    3.976 --    60 C    1.397    64 C    1.319    57 C    1.013
    60   6 C    3.978 --    61 C    1.426    59 C    1.397   112 H    0.956
    61   6 C    3.957 --    60 C    1.426    62 C    1.344    77 C    0.994
    62   6 C    3.965 --    63 C    1.428    61 C    1.344    71 C    0.998
    63   6 C    3.977 --    62 C    1.428    64 C    1.389   113 H    0.959
    64   6 C    3.972 --    63 C    1.389    59 C    1.319    65 C    1.060
    65   6 C    3.968 --    66 C    1.381    56 C    1.257    64 C    1.060
    66   6 C    3.914 --    65 C    1.381    69 C    1.123    67 C    1.122
    67   6 C    3.935 --    68 N    2.716    66 C    1.122
    68   7 N    2.928 --    67 C    2.716
    69   6 C    3.937 --    70 N    2.709    66 C    1.123
    70   7 N    2.923 --    69 C    2.709
    71   6 C    3.984 --    62 C    0.998    77 C    0.977   114 H    0.958
                            72 C    0.946
    72   6 C    3.989 --    73 C    1.011    76 C    0.985   115 H    0.972
                            71 C    0.946
    73   6 C    3.987 --    74 C    1.923    72 C    1.011   116 H    0.972
    74   6 C    3.986 --    73 C    1.923    75 C    1.009   117 H    0.971
    75   6 C    3.988 --    74 C    1.009    76 C    0.985   118 H    0.967
                            77 C    0.948
    76   6 C    3.991 --    72 C    0.985    75 C    0.985   120 H    0.976
                           119 H    0.976
    77   6 C    3.982 --    61 C    0.994    71 C    0.977   121 H    0.958
                            75 C    0.948
    78   1 H    0.992 --     1 C    0.937
    79   1 H    0.994 --     6 C    0.962
    80   1 H    0.996 --     9 C    0.958
    81   1 H    0.994 --    17 C    0.956
    82   1 H    0.998 --    18 C    0.971
    83   1 H    0.999 --    19 C    0.972
    84   1 H    0.999 --    20 C    0.971
    85   1 H    0.997 --    21 C    0.971
    86   1 H    0.997 --    22 C    0.977
    87   1 H    0.995 --    22 C    0.975
    88   1 H    0.993 --    23 C    0.956
    89   1 H    0.992 --    25 C    0.955
    90   1 H    0.994 --    28 C    0.961
    91   1 H    0.994 --    28 C    0.967
    92   1 H    0.995 --    29 C    0.975
    93   1 H    0.997 --    29 C    0.985
    94   1 H    0.997 --    29 C    0.984
    95   1 H    0.993 --    35 C    0.966
    96   1 H    0.998 --    35 C    0.970
    97   1 H    0.995 --    36 C    0.980
    98   1 H    0.999 --    36 C    0.985
    99   1 H    0.997 --    36 C    0.985
   100   1 H    0.991 --    39 C    0.964
   101   1 H    0.991 --    39 C    0.960
   102   1 H    0.996 --    40 C    0.985
   103   1 H    0.993 --    40 C    0.978
   104   1 H    0.997 --    40 C    0.983
   105   1 H    0.985 --    48 C    0.939
   106   1 H    0.994 --    51 C    0.971
   107   1 H    0.996 --    51 C    0.972
   108   1 H    0.995 --    52 C    0.976
   109   1 H    0.997 --    52 C    0.982
   110   1 H    0.996 --    52 C    0.985
   111   1 H    0.994 --    55 C    0.917
   112   1 H    0.997 --    60 C    0.956
   113   1 H    0.998 --    63 C    0.959
   114   1 H    0.995 --    71 C    0.958
   115   1 H    0.998 --    72 C    0.972
   116   1 H    0.999 --    73 C    0.972
   117   1 H    0.999 --    74 C    0.971
   118   1 H    0.998 --    75 C    0.967
   119   1 H    0.996 --    76 C    0.976
   120   1 H    0.997 --    76 C    0.976
   121   1 H    0.995 --    77 C    0.958
 ---------------------------------------------------------------------------

Topologies differ in number of bonds
Writing corrected topology to xtbtopo.mol

molecular dipole:
                 x           y           z       tot (Debye)
 q only:        0.294      -1.621      -8.458
   full:        0.209      -1.928      -8.314      21.699
molecular quadrupole (traceless):
                xx          xy          yy          xz          yz          zz
 q only:       33.537      48.097      75.652     -16.363      93.440    -109.189
  q+dip:       33.531      46.106      74.125     -24.230      92.538    -107.657
   full:       45.234      45.997      68.448     -29.232      93.781    -113.681


           -------------------------------------------------
          | TOTAL ENERGY             -204.954941876061 Eh   |
          | GRADIENT NORM               0.041883200617 Eh/α |
          | HOMO-LUMO GAP               0.307372435961 eV   |
           -------------------------------------------------

------------------------------------------------------------------------
 * finished run on 2022/02/09 at 13:39:20.140     
------------------------------------------------------------------------
 total:
 * wall-time:     0 d,  0 h,  0 min,  0.418 sec
 *  cpu-time:     0 d,  0 h,  0 min,  3.264 sec
 * ratio c/w:     7.808 speedup
 SCF:
 * wall-time:     0 d,  0 h,  0 min,  0.354 sec
 *  cpu-time:     0 d,  0 h,  0 min,  2.826 sec
 * ratio c/w:     7.976 speedup

