      -----------------------------------------------------------      
     |                   =====================                   |     
     |                           x T B                           |     
     |                   =====================                   |     
     |                         S. Grimme                         |     
     |          Mulliken Center for Theoretical Chemistry        |     
     |                    University of Bonn                     |     
      -----------------------------------------------------------      

   * xtb version 6.4.1 (unknown) compiled by 'oda6@login1.crc.pitt.edu' on 2021-06-25

   xtb is free software: you can redistribute it and/or modify it under
   the terms of the GNU Lesser General Public License as published by
   the Free Software Foundation, either version 3 of the License, or
   (at your option) any later version.
   
   xtb is distributed in the hope that it will be useful,
   but WITHOUT ANY WARRANTY; without even the implied warranty of
   MERCHANTABILITY or FITNESS FOR A PARTICULAR PURPOSE.  See the
   GNU Lesser General Public License for more details.
   
   Cite this work as:
   * C. Bannwarth, E. Caldeweyher, S. Ehlert, A. Hansen, P. Pracht,
     J. Seibert, S. Spicher, S. Grimme, WIREs Comput. Mol. Sci., 2020, 11,
     e01493. DOI: 10.1002/wcms.1493
   
   for GFN2-xTB:
   * C. Bannwarth, S. Ehlert and S. Grimme., J. Chem. Theory Comput., 2019,
     15, 1652-1671. DOI: 10.1021/acs.jctc.8b01176
   for GFN1-xTB:
   * S. Grimme, C. Bannwarth, P. Shushkov, J. Chem. Theory Comput., 2017,
     13, 1989-2009. DOI: 10.1021/acs.jctc.7b00118
   for GFN0-xTB:
   * P. Pracht, E. Caldeweyher, S. Ehlert, S. Grimme, ChemRxiv, 2019, preprint.
     DOI: 10.26434/chemrxiv.8326202.v1
   for GFN-FF:
   * S. Spicher and S. Grimme, Angew. Chem. Int. Ed., 2020, 59, 15665-15673.
     DOI: 10.1002/anie.202004239
   
   for DFT-D4:
   * E. Caldeweyher, C. Bannwarth and S. Grimme, J. Chem. Phys., 2017,
     147, 034112. DOI: 10.1063/1.4993215
   * E. Caldeweyher, S. Ehlert, A. Hansen, H. Neugebauer, S. Spicher,
     C. Bannwarth and S. Grimme, J. Chem. Phys., 2019, 150, 154122.
     DOI: 10.1063/1.5090222
   * E. Caldeweyher, J.-M. Mewes, S. Ehlert and S. Grimme, Phys. Chem. Chem. Phys.
     2020, 22, 8499-8512. DOI: 10.1039/D0CP00502A
   
   for sTDA-xTB:
   * S. Grimme and C. Bannwarth, J. Chem. Phys., 2016, 145, 054103.
     DOI: 10.1063/1.4959605
   
   in the mass-spec context:
   * V. Asgeirsson, C. Bauer and S. Grimme, Chem. Sci., 2017, 8, 4879.
     DOI: 10.1039/c7sc00601b
   * J. Koopman and S. Grimme, ACS Omega 2019, 4, 12, 15120-15133.
     DOI: 10.1021/acsomega.9b02011
   
   for metadynamics refer to:
   * S. Grimme, J. Chem. Theory Comput., 2019, 155, 2847-2862
     DOI: 10.1021/acs.jctc.9b00143
   
   for SPH calculations refer to:
   * S. Spicher and S. Grimme, J. Chem. Theory Comput., 2021, 17, 1701-1714
     DOI: 10.1021/acs.jctc.0c01306
   
   with help from (in alphabetical order)
   P. Atkinson, C. Bannwarth, F. Bohle, G. Brandenburg, E. Caldeweyher
   M. Checinski, S. Dohm, S. Ehlert, S. Ehrlich, I. Gerasimov, J. Koopman
   C. Lavigne, S. Lehtola, F. März, M. Müller, F. Musil, H. Neugebauer
   J. Pisarek, C. Plett, P. Pracht, J. Seibert, P. Shushkov, S. Spicher
   M. Stahn, M. Steiner, T. Strunk, J. Stückrath, T. Rose, and J. Unsleber
   
 * started run on 2022/02/05 at 19:57:37.848     

           -------------------------------------------------
          |                Calculation Setup                |
           -------------------------------------------------

          program call               : /ihome/ghutchison/oda6/xtb/xtb-641/bin/xtb ../../GFN2_output/39_79_130_79_38.mol --sp --alpb water
          hostname                   : smp-n57
          coordinate file            : ../../GFN2_output/39_79_130_79_38.mol
          omp threads                :                     8
          number of atoms            :                   167
          number of electrons        :                   546
          charge                     :                     0
          spin                       :                   0.0
          first test random number   :      0.28128611525023

   ID    Z sym.   atoms
    1    6 C      1-3, 5-13, 15, 17-24, 26, 27, 29, 30, 33-36, 38, 39, 41-44,
                  46-52, 54-57, 59, 60, 62-65, 67-73, 75-78, 80, 82, 83, 85,
                  86, 89-92, 94-96, 98, 99, 101-108, 110
    2    8 O      4, 31, 32, 87, 88, 97, 100
    3    7 N      14, 16, 40, 61, 109, 111
    4   16 S      25, 28, 45, 53, 58, 66, 74, 79, 81, 84
    5   17 Cl     37, 93
    6    1 H      112-167

           -------------------------------------------------
          |                 G F N 2 - x T B                 |
           -------------------------------------------------

        Reference                      10.1021/acs.jctc.8b01176
      * Hamiltonian:
        H0-scaling (s, p, d)           1.850000    2.230000    2.230000
        zeta-weighting                 0.500000
      * Dispersion:
        s8                             2.700000
        a1                             0.520000
        a2                             5.000000
        s9                             5.000000
      * Repulsion:
        kExp                           1.500000    1.000000
        rExp                           1.000000
      * Coulomb:
        alpha                          2.000000
        third order                    shell-resolved
        anisotropic                    true
        a3                             3.000000
        a5                             4.000000
        cn-shift                       1.200000
        cn-exp                         4.000000
        max-rad                        5.000000

      * Solvation model:               ALPB
        Solvent                        water
        Parameter file                 internal GFN2-xTB/ALPB
        Dielectric constant                8.0200E+01
        Reference state                gsolv [1 M gas/solution]
        Free energy shift                  1.0808E-03 Eh       6.7819E-01 kcal/mol
        Temperature                        2.9815E+02 K
        Density                            1.0000E+00 kg/L
        Solvent mass                       1.8000E+01 g/mol
        Interaction kernel             P16
        Born radius scaling (c1)           1.4744E+00
        Born radii integrator          GBOBC
        Born offset                        0.0000E+00 a0       0.0000E+00 AA
        H-bond correction              true
        Ion screening                  false
        Surface tension                    1.0000E-05 Eh       1.5569E+01 dyn/cm
        Grid points                               230 per atom

          ...................................................
          :                      SETUP                      :
          :.................................................:
          :  # basis functions                 572          :
          :  # atomic orbitals                 560          :
          :  # shells                          290          :
          :  # electrons                       546          :
          :  max. iterations                   250          :
          :  Hamiltonian                  GFN2-xTB          :
          :  restarted?                      false          :
          :  GBSA solvation                   true          :
          :  PC potential                    false          :
          :  electronic temp.          300.0000000     K    :
          :  accuracy                    1.0000000          :
          :  -> integral cutoff          0.2500000E+02      :
          :  -> integral neglect         0.1000000E-07      :
          :  -> SCF convergence          0.1000000E-05 Eh   :
          :  -> wf. convergence          0.1000000E-03 e    :
          :  Broyden damping             0.4000000          :
          ...................................................

 iter      E             dE          RMSdq      gap      omega  full diag
   1   -304.3364375 -0.304336E+03  0.490E+00    0.40       0.0  T
   2   -304.5587578 -0.222320E+00  0.276E+00    0.49       1.0  T
   3   -304.4168405  0.141917E+00  0.145E+00    0.18       1.0  T
   4   -304.6130727 -0.196232E+00  0.508E-01    0.24       1.0  T
   5   -304.6347662 -0.216936E-01  0.195E-01    0.19       1.0  T
   6   -304.6359282 -0.116199E-02  0.107E-01    0.23       1.0  T
   7   -304.6367463 -0.818121E-03  0.578E-02    0.22       1.0  T
   8   -304.6368769 -0.130607E-03  0.439E-02    0.22       1.0  T
   9   -304.6369664 -0.894417E-04  0.298E-02    0.22       1.0  T
  10   -304.6370211 -0.546868E-04  0.187E-02    0.22       1.0  T
  11   -304.6370434 -0.223459E-04  0.113E-02    0.23       1.0  T
  12   -304.6370514 -0.798262E-05  0.553E-03    0.23       1.4  T
  13   -304.6370532 -0.182433E-05  0.306E-03    0.23       2.5  T
  14   -304.6370536 -0.421659E-06  0.200E-03    0.23       3.9  T
  15   -304.6370538 -0.169150E-06  0.135E-03    0.23       5.7  T
  16   -304.6370539 -0.105055E-06  0.837E-04    0.23       9.2  T
  17   -304.6370540 -0.450419E-07  0.553E-04    0.23      14.0  T

   *** convergence criteria satisfied after 17 iterations ***

         #    Occupation            Energy/Eh            Energy/eV
      -------------------------------------------------------------
         1        2.0000           -1.0864072             -29.5626
       ...           ...                  ...                  ...
       267        2.0000           -0.3852554             -10.4833
       268        2.0000           -0.3838714             -10.4457
       269        2.0000           -0.3751887             -10.2094
       270        2.0000           -0.3659075              -9.9568
       271        2.0000           -0.3632057              -9.8833
       272        1.9998           -0.3540083              -9.6331
       273        1.9764           -0.3495068              -9.5106 (HOMO)
       274        0.0238           -0.3411021              -9.2819 (LUMO)
       275        0.0000           -0.3314358              -9.0188
       276                         -0.3258758              -8.8675
       277                         -0.3195550              -8.6955
       278                         -0.3014541              -8.2030
       ...                                ...                  ...
       560                          1.1534988              31.3883
      -------------------------------------------------------------
                  HL-Gap            0.0084046 Eh            0.2287 eV
             Fermi-level           -0.3453002 Eh           -9.3961 eV

 SCC (total)                   0 d,  0 h,  0 min,  0.694 sec
 SCC setup                      ...        0 min,  0.005 sec (  0.762%)
 Dispersion                     ...        0 min,  0.007 sec (  1.015%)
 classical contributions        ...        0 min,  0.000 sec (  0.044%)
 integral evaluation            ...        0 min,  0.029 sec (  4.241%)
 iterations                     ...        0 min,  0.557 sec ( 80.209%)
 molecular gradient             ...        0 min,  0.093 sec ( 13.354%)
 printout                       ...        0 min,  0.003 sec (  0.363%)

         :::::::::::::::::::::::::::::::::::::::::::::::::::::
         ::                     SUMMARY                     ::
         :::::::::::::::::::::::::::::::::::::::::::::::::::::
         :: total energy            -300.221657202591 Eh    ::
         :: total w/o Gsasa/hb      -300.203084414233 Eh    ::
         :: gradient norm              0.052051294025 Eh/a0 ::
         :: HOMO-LUMO gap              0.228701646116 eV    ::
         ::.................................................::
         :: SCC energy              -304.637053968525 Eh    ::
         :: -> isotropic ES            0.275244261219 Eh    ::
         :: -> anisotropic ES         -0.004072253957 Eh    ::
         :: -> anisotropic XC          0.158393106941 Eh    ::
         :: -> dispersion             -0.304548263272 Eh    ::
         :: -> Gsolv                  -0.073911103550 Eh    ::
         ::    -> Gelec               -0.055338315192 Eh    ::
         ::    -> Gsasa               -0.011608930543 Eh    ::
         ::    -> Ghb                 -0.008044617513 Eh    ::
         ::    -> Gshift               0.001080759698 Eh    ::
         :: repulsion energy           4.409913351323 Eh    ::
         :: add. restraining           0.000000000000 Eh    ::
         :: total charge               0.000000001422 e     ::
         :::::::::::::::::::::::::::::::::::::::::::::::::::::

           -------------------------------------------------
          |                Property Printout                |
           -------------------------------------------------

    * Orbital Energies and Occupations

         #    Occupation            Energy/Eh            Energy/eV
      -------------------------------------------------------------
         1        2.0000           -1.0864072             -29.5626
       ...           ...                  ...                  ...
       261        2.0000           -0.4078350             -11.0978
       262        2.0000           -0.4044188             -11.0048
       263        2.0000           -0.4016119             -10.9284
       264        2.0000           -0.3982065             -10.8358
       265        2.0000           -0.3894402             -10.5972
       266        2.0000           -0.3877476             -10.5512
       267        2.0000           -0.3852554             -10.4833
       268        2.0000           -0.3838714             -10.4457
       269        2.0000           -0.3751887             -10.2094
       270        2.0000           -0.3659075              -9.9568
       271        2.0000           -0.3632057              -9.8833
       272        1.9998           -0.3540083              -9.6331
       273        1.9764           -0.3495068              -9.5106 (HOMO)
       274        0.0238           -0.3411021              -9.2819 (LUMO)
       275        0.0000           -0.3314358              -9.0188
       276                         -0.3258758              -8.8675
       277                         -0.3195550              -8.6955
       278                         -0.3014541              -8.2030
       279                         -0.2963068              -8.0629
       280                         -0.2884346              -7.8487
       281                         -0.2641284              -7.1873
       282                         -0.2539514              -6.9104
       283                         -0.2535776              -6.9002
       284                         -0.2489112              -6.7732
       ...                                ...                  ...
       560                          1.1534988              31.3883
      -------------------------------------------------------------
                  HL-Gap            0.0084046 Eh            0.2287 eV
             Fermi-level           -0.3453002 Eh           -9.3961 eV

     #   Z          covCN         q      C6AA      α(0)
     1   6 C        2.917    -0.015    28.376     8.735
     2   6 C        3.007    -0.035    28.862     8.813
     3   6 C        2.880     0.227    23.237     7.903
     4   8 O        1.024    -0.391    21.414     6.208
     5   6 C        3.061    -0.019    28.414     8.741
     6   6 C        2.904    -0.021    28.536     8.759
     7   6 C        3.260     0.017    26.466     8.312
     8   6 C        3.256     0.017    26.536     8.330
     9   6 C        2.904    -0.032    28.794     8.799
    10   6 C        3.051     0.005    27.870     8.658
    11   6 C        3.024     0.038    27.134     8.544
    12   6 C        2.947     0.002    27.991     8.677
    13   6 C        1.943     0.132    27.863     8.524
    14   7 N        0.911    -0.294    27.583     7.596
    15   6 C        1.944     0.135    27.790     8.513
    16   7 N        0.911    -0.283    27.310     7.558
    17   6 C        4.162    -0.025    20.935     6.498
    18   6 C        4.012    -0.016    20.781     6.476
    19   6 C        2.995    -0.044    29.074     8.845
    20   6 C        2.995    -0.044    29.073     8.845
    21   6 C        4.012    -0.017    20.791     6.478
    22   6 C        3.915    -0.063    21.641     6.612
    23   6 C        4.161    -0.025    20.929     6.497
    24   6 C        2.968     0.026    27.425     8.590
    25  16 S        2.553     0.099   137.081    19.706
    26   6 C        3.037     0.016    27.625     8.621
    27   6 C        3.173     0.018    27.225     8.522
    28  16 S        2.256     0.055   138.824    19.831
    29   6 C        3.027    -0.034    28.807     8.804
    30   6 C        2.758     0.366    20.793     7.467
    31   8 O        0.856    -0.478    23.298     6.471
    32   8 O        1.717    -0.267    18.416     5.794
    33   6 C        3.692     0.072    19.544     6.326
    34   6 C        3.751    -0.124    22.946     6.832
    35   6 C        3.006     0.101    25.759     8.325
    36   6 C        3.292    -0.015    26.720     8.294
    37  17 Cl       0.941    -0.144   103.640    15.575
    38   6 C        3.044     0.011    27.739     8.638
    39   6 C        3.079     0.057    26.642     8.462
    40   7 N        2.756    -0.093    23.058     7.132
    41   6 C        2.923     0.062    26.611     8.460
    42   6 C        2.925    -0.053    29.312     8.879
    43   6 C        2.943    -0.046    29.138     8.853
    44   6 C        2.965     0.038    27.141     8.545
    45  16 S        2.029    -0.209   149.963    20.611
    46   6 C        3.744    -0.063    21.782     6.658
    47   6 C        2.981    -0.041    29.011     8.835
    48   6 C        2.923    -0.053    29.322     8.880
    49   6 C        2.940     0.060    26.664     8.469
    50   6 C        2.921    -0.041    29.013     8.833
    51   6 C        2.986    -0.042    29.042     8.840
    52   6 C        2.965     0.049    26.896     8.507
    53  16 S        2.035    -0.189   149.100    20.551
    54   6 C        3.744    -0.066    21.836     6.666
    55   6 C        2.943    -0.046    29.145     8.854
    56   6 C        2.924    -0.048    29.180     8.859
    57   6 C        3.188     0.012    27.279     8.521
    58  16 S        2.314    -0.014   141.627    20.030
    59   6 C        3.034    -0.005    28.104     8.695
    60   6 C        3.039     0.057    26.686     8.473
    61   7 N        2.747    -0.040    22.014     6.968
    62   6 C        2.925     0.056    26.749     8.482
    63   6 C        2.921    -0.048    29.189     8.860
    64   6 C        2.943    -0.039    28.959     8.826
    65   6 C        2.965     0.048    26.916     8.510
    66  16 S        2.036    -0.190   149.130    20.554
    67   6 C        3.744    -0.055    21.636     6.635
    68   6 C        2.985    -0.041    29.021     8.837
    69   6 C        2.923    -0.043    29.056     8.840
    70   6 C        2.934     0.056    26.754     8.483
    71   6 C        2.921    -0.042    29.031     8.836
    72   6 C        2.979    -0.040    28.985     8.831
    73   6 C        2.966     0.052    26.837     8.497
    74  16 S        2.032    -0.181   148.742    20.527
    75   6 C        3.744    -0.061    21.750     6.653
    76   6 C        2.947    -0.041    29.010     8.834
    77   6 C        2.930    -0.045    29.108     8.848
    78   6 C        3.174     0.003    27.557     8.574
    79  16 S        2.358     0.007   140.761    19.968
    80   6 C        3.009     0.034    27.220     8.558
    81  16 S        2.399     0.049   139.078    19.849
    82   6 C        2.978     0.019    27.583     8.615
    83   6 C        3.182     0.026    26.982     8.478
    84  16 S        2.313     0.065   138.414    19.801
    85   6 C        3.021    -0.035    28.838     8.809
    86   6 C        2.765     0.363    20.840     7.476
    87   8 O        0.857    -0.485    23.453     6.493
    88   8 O        1.706    -0.270    18.484     5.805
    89   6 C        3.698     0.079    19.415     6.302
    90   6 C        3.751    -0.125    22.957     6.833
    91   6 C        3.008     0.093    25.925     8.352
    92   6 C        3.306    -0.017    26.516     8.232
    93  17 Cl       1.004    -0.110   102.579    15.495
    94   6 C        2.958    -0.017    28.434     8.746
    95   6 C        3.009    -0.036    28.868     8.814
    96   6 C        2.873     0.225    23.274     7.908
    97   8 O        0.920    -0.435    22.356     6.341
    98   6 C        3.045    -0.045    29.068     8.843
    99   6 C        2.860     0.162    24.500     8.113
   100   8 O        1.706    -0.264    18.375     5.788
   101   6 C        3.646     0.016    20.647     6.530
   102   6 C        2.918    -0.062    29.538     8.912
   103   6 C        2.922    -0.025    28.637     8.776
   104   6 C        2.912    -0.036    28.905     8.816
   105   6 C        3.037     0.008    27.811     8.650
   106   6 C        3.021     0.041    27.068     8.534
   107   6 C        2.947     0.005    27.912     8.665
   108   6 C        1.945     0.132    27.847     8.522
   109   7 N        0.911    -0.279    27.202     7.543
   110   6 C        1.946     0.136    27.761     8.509
   111   7 N        0.911    -0.279    27.204     7.544
   112   1 H        0.925     0.075     2.034     2.230
   113   1 H        0.926     0.075     2.029     2.228
   114   1 H        0.926     0.054     2.266     2.354
   115   1 H        0.925     0.055     2.256     2.349
   116   1 H        0.925     0.041     2.439     2.442
   117   1 H        0.926     0.043     2.415     2.430
   118   1 H        0.926     0.046     2.376     2.410
   119   1 H        0.925     0.048     2.342     2.393
   120   1 H        0.925     0.035     2.514     2.480
   121   1 H        0.925     0.045     2.384     2.414
   122   1 H        0.925     0.060     2.203     2.321
   123   1 H        0.924     0.075     2.035     2.231
   124   1 H        0.924     0.059     2.209     2.325
   125   1 H        0.925     0.076     2.019     2.222
   126   1 H        0.925     0.065     2.142     2.289
   127   1 H        0.925     0.057     2.232     2.336
   128   1 H        0.926     0.047     2.364     2.404
   129   1 H        0.926     0.051     2.313     2.378
   130   1 H        0.925     0.069     2.100     2.266
   131   1 H        0.925     0.071     2.073     2.252
   132   1 H        0.925     0.080     1.980     2.200
   133   1 H        0.926     0.036     2.504     2.475
   134   1 H        0.926     0.034     2.535     2.490
   135   1 H        0.926     0.051     2.309     2.376
   136   1 H        0.926     0.054     2.272     2.357
   137   1 H        0.925     0.074     2.046     2.237
   138   1 H        0.925     0.081     1.971     2.196
   139   1 H        0.925     0.071     2.076     2.253
   140   1 H        0.926     0.055     2.261     2.351
   141   1 H        0.926     0.045     2.385     2.415
   142   1 H        0.926     0.044     2.390     2.418
   143   1 H        0.926     0.047     2.358     2.401
   144   1 H        0.925     0.074     2.047     2.238
   145   1 H        0.925     0.072     2.061     2.245
   146   1 H        0.925     0.071     2.079     2.255
   147   1 H        0.926     0.058     2.221     2.331
   148   1 H        0.926     0.066     2.135     2.285
   149   1 H        0.926     0.053     2.283     2.363
   150   1 H        0.926     0.059     2.213     2.326
   151   1 H        0.925     0.069     2.096     2.264
   152   1 H        0.925     0.073     2.051     2.239
   153   1 H        0.925     0.075     2.029     2.227
   154   1 H        0.926     0.061     2.193     2.316
   155   1 H        0.926     0.057     2.231     2.336
   156   1 H        0.924     0.058     2.226     2.333
   157   1 H        0.924     0.062     2.179     2.308
   158   1 H        0.925     0.063     2.161     2.299
   159   1 H        0.925     0.075     2.030     2.228
   160   1 H        0.925     0.068     2.102     2.267
   161   1 H        0.925     0.074     2.042     2.235
   162   1 H        0.924     0.064     2.153     2.295
   163   1 H        0.924     0.066     2.135     2.285
   164   1 H        0.925     0.086     1.918     2.166
   165   1 H        0.926     0.077     2.014     2.219
   166   1 H        0.926     0.077     2.008     2.216
   167   1 H        0.926     0.059     2.207     2.323

 Mol. C6AA /au·bohr⁶  :     527823.455348
 Mol. C8AA /au·bohr⁸  :   15341648.954919
 Mol. α(0) /au        :       1160.067147


Wiberg/Mayer (AO) data.
largest (>0.10) Wiberg bond orders for each atom

 ---------------------------------------------------------------------------
     #   Z sym  total        # sym  WBO       # sym  WBO       # sym  WBO
 ---------------------------------------------------------------------------
     1   6 C    3.948 --     2 C    1.473    24 C    1.325   112 H    0.935
     2   6 C    3.930 --     1 C    1.473    11 C    1.142     3 C    1.073
     3   6 C    3.910 --     4 O    1.658     2 C    1.073     5 C    1.041
     4   8 O    2.103 --     3 C    1.658    25 S    0.167
     5   6 C    3.967 --     6 C    1.377    10 C    1.299     3 C    1.041
     6   6 C    3.975 --     7 C    1.438     5 C    1.377   113 H    0.960
     7   6 C    3.951 --     6 C    1.438     8 C    1.321    23 C    0.995
     8   6 C    3.961 --     9 C    1.444     7 C    1.321    17 C    0.996
     9   6 C    3.976 --     8 C    1.444    10 C    1.368   114 H    0.959
    10   6 C    3.972 --     9 C    1.368     5 C    1.299    11 C    1.089
    11   6 C    3.961 --    12 C    1.466     2 C    1.142    10 C    1.089
    12   6 C    3.938 --    11 C    1.466    13 C    1.102    15 C    1.102
    13   6 C    3.939 --    14 N    2.740    12 C    1.102
    14   7 N    2.947 --    13 C    2.740
    15   6 C    3.939 --    16 N    2.748    12 C    1.102
    16   7 N    2.954 --    15 C    2.748
    17   6 C    3.983 --     8 C    0.996    23 C    0.975   115 H    0.959
                            18 C    0.949
    18   6 C    3.988 --    19 C    1.004    22 C    0.989   116 H    0.971
                            17 C    0.949
    19   6 C    3.980 --    20 C    1.923    18 C    1.004   117 H    0.970
    20   6 C    3.980 --    19 C    1.923    21 C    1.004   118 H    0.970
    21   6 C    3.986 --    20 C    1.004    22 C    0.989   119 H    0.970
                            23 C    0.948
    22   6 C    3.993 --    18 C    0.989    21 C    0.989   121 H    0.978
                           120 H    0.974
    23   6 C    3.981 --     7 C    0.995    17 C    0.975   122 H    0.958
                            21 C    0.948
    24   6 C    3.929 --     1 C    1.325    36 C    1.265    25 S    1.127
    25  16 S    2.823 --    26 C    1.176    24 C    1.127     4 O    0.167
    26   6 C    3.937 --    27 C    1.355    38 C    1.193    25 S    1.176
    27   6 C    3.944 --    26 C    1.355    36 C    1.246    28 S    1.123
    28  16 S    2.653 --    27 C    1.123    29 C    1.118
    29   6 C    3.934 --    35 C    1.490    28 S    1.118    30 C    1.048
    30   6 C    3.919 --    31 O    1.664    32 O    1.135    29 C    1.048
    31   8 O    1.981 --    30 C    1.664    32 O    0.169
    32   8 O    2.320 --    30 C    1.135    33 C    0.920    31 O    0.169
    33   6 C    3.905 --    34 C    1.012   124 H    0.968   123 H    0.964
                            32 O    0.920
    34   6 C    3.985 --    33 C    1.012   127 H    0.986   126 H    0.982
                           125 H    0.979
    35   6 C    3.901 --    29 C    1.490    36 C    1.213    37 Cl   0.995
    36   6 C    3.962 --    24 C    1.265    27 C    1.246    35 C    1.213
    37  17 Cl   1.180 --    35 C    0.995
    38   6 C    3.932 --    39 C    1.421    26 C    1.193    79 S    1.107
    39   6 C    3.940 --    38 C    1.421    57 C    1.253    40 N    1.006
    40   7 N    3.399 --    41 C    1.079    39 C    1.006    49 C    0.993
    41   6 C    3.961 --    42 C    1.352    48 C    1.347    40 N    1.079
    42   6 C    3.984 --    43 C    1.458    41 C    1.352   128 H    0.964
                            47 C    0.101
    43   6 C    3.986 --    42 C    1.458    44 C    1.383   129 H    0.964
    44   6 C    3.952 --    43 C    1.383    47 C    1.375    45 S    1.035
    45  16 S    2.226 --    44 C    1.035    46 C    1.008
    46   6 C    3.967 --    45 S    1.008   130 H    0.980   131 H    0.980
                           132 H    0.975
    47   6 C    3.989 --    48 C    1.470    44 C    1.375   133 H    0.968
                            42 C    0.101
    48   6 C    3.983 --    47 C    1.470    41 C    1.347   134 H    0.964
    49   6 C    3.957 --    56 C    1.393    50 C    1.366    40 N    0.993
    50   6 C    3.985 --    51 C    1.474    49 C    1.366   135 H    0.964
    51   6 C    3.987 --    50 C    1.474    52 C    1.365   136 H    0.966
                            56 C    0.103
    52   6 C    3.958 --    55 C    1.391    51 C    1.365    53 S    1.054
    53  16 S    2.263 --    52 C    1.054    54 C    1.009
    54   6 C    3.967 --    53 S    1.009   139 H    0.979   137 H    0.979
                           138 H    0.975
    55   6 C    3.987 --    56 C    1.443    52 C    1.391   140 H    0.963
    56   6 C    3.986 --    55 C    1.443    49 C    1.393   141 H    0.964
                            51 C    0.103
    57   6 C    3.933 --    78 C    1.351    39 C    1.253    58 S    1.123
    58  16 S    2.557 --    57 C    1.123    59 C    1.084
    59   6 C    3.894 --    60 C    1.360    80 C    1.186    58 S    1.084
    60   6 C    3.945 --    59 C    1.360    78 C    1.217    61 N    1.143
    61   7 N    3.519 --    60 C    1.143    62 C    1.046    70 C    1.029
    62   6 C    3.961 --    63 C    1.368    69 C    1.350    61 N    1.046
    63   6 C    3.986 --    64 C    1.458    62 C    1.368   142 H    0.966
    64   6 C    3.987 --    63 C    1.458    65 C    1.378   143 H    0.964
    65   6 C    3.956 --    64 C    1.378    68 C    1.368    66 S    1.055
    66  16 S    2.278 --    65 C    1.055    67 C    1.007
    67   6 C    3.965 --    66 S    1.007   144 H    0.979   146 H    0.977
                           145 H    0.968
    68   6 C    3.988 --    69 C    1.475    65 C    1.368   147 H    0.966
    69   6 C    3.979 --    68 C    1.475    62 C    1.350   148 H    0.964
    70   6 C    3.955 --    77 C    1.364    71 C    1.357    61 N    1.029
    71   6 C    3.976 --    72 C    1.477    70 C    1.357   149 H    0.965
    72   6 C    3.987 --    71 C    1.477    73 C    1.367   150 H    0.966
    73   6 C    3.951 --    76 C    1.388    72 C    1.367    74 S    1.054
    74  16 S    2.245 --    73 C    1.054    75 C    1.006
    75   6 C    3.965 --    74 S    1.006   151 H    0.978   153 H    0.977
                           152 H    0.975
    76   6 C    3.985 --    77 C    1.449    73 C    1.388   154 H    0.962
    77   6 C    3.982 --    76 C    1.449    70 C    1.364   155 H    0.965
    78   6 C    3.923 --    57 C    1.351    60 C    1.217    79 S    1.122
    79  16 S    2.597 --    78 C    1.122    38 C    1.107
    80   6 C    3.916 --    92 C    1.325    59 C    1.186    81 S    1.183
    81  16 S    2.624 --    80 C    1.183    82 C    1.082
    82   6 C    3.932 --    83 C    1.355    94 C    1.290    81 S    1.082
    83   6 C    3.938 --    82 C    1.355    92 C    1.212    84 S    1.156
    84  16 S    2.717 --    83 C    1.156    85 C    1.107
    85   6 C    3.927 --    91 C    1.493    84 S    1.107    86 C    1.052
    86   6 C    3.920 --    87 O    1.650    88 O    1.144    85 C    1.052
    87   8 O    1.967 --    86 C    1.650    88 O    0.166
    88   8 O    2.305 --    86 C    1.144    89 C    0.919    87 O    0.166
    89   6 C    3.906 --    90 C    1.016   156 H    0.968   157 H    0.965
                            88 O    0.919
    90   6 C    3.984 --    89 C    1.016   158 H    0.985   160 H    0.982
                           159 H    0.980
    91   6 C    3.912 --    85 C    1.493    92 C    1.200    93 Cl   1.006
    92   6 C    3.963 --    80 C    1.325    83 C    1.212    91 C    1.200
    93  17 Cl   1.200 --    91 C    1.006
    94   6 C    3.952 --    95 C    1.494    82 C    1.290   161 H    0.942
    95   6 C    3.961 --    94 C    1.494   106 C    1.143    96 C    1.061
    96   6 C    3.921 --    97 O    1.651    95 C    1.061    98 C    1.047
    97   8 O    2.024 --    96 C    1.651
    98   6 C    3.973 --    99 C    1.321   105 C    1.294    96 C    1.047
    99   6 C    3.932 --   102 C    1.326    98 C    1.321   100 O    1.109
   100   8 O    2.273 --    99 C    1.109   101 C    0.964
   101   6 C    3.920 --   164 H    0.976   162 H    0.974   163 H    0.974
                           100 O    0.964
   102   6 C    3.967 --   103 C    1.461    99 C    1.326   165 H    0.961
   103   6 C    3.973 --   102 C    1.461   104 C    1.407   166 H    0.966
   104   6 C    3.977 --   105 C    1.408   103 C    1.407   167 H    0.961
   105   6 C    3.976 --   104 C    1.408    98 C    1.294   106 C    1.081
   106   6 C    3.969 --   107 C    1.476    95 C    1.143   105 C    1.081
   107   6 C    3.947 --   106 C    1.476   108 C    1.101   110 C    1.100
   108   6 C    3.941 --   109 N    2.744   107 C    1.101
   109   7 N    2.953 --   108 C    2.744
   110   6 C    3.941 --   111 N    2.750   107 C    1.100
   111   7 N    2.958 --   110 C    2.750
   112   1 H    0.993 --     1 C    0.935
   113   1 H    0.994 --     6 C    0.960
   114   1 H    0.997 --     9 C    0.959
   115   1 H    0.995 --    17 C    0.959
   116   1 H    0.998 --    18 C    0.971
   117   1 H    0.998 --    19 C    0.970
   118   1 H    0.998 --    20 C    0.970
   119   1 H    0.997 --    21 C    0.970
   120   1 H    0.999 --    22 C    0.974
   121   1 H    0.998 --    22 C    0.978
   122   1 H    0.994 --    23 C    0.958
   123   1 H    0.992 --    33 C    0.964
   124   1 H    0.996 --    33 C    0.968
   125   1 H    0.993 --    34 C    0.979
   126   1 H    0.996 --    34 C    0.982
   127   1 H    0.997 --    34 C    0.986
   128   1 H    0.998 --    42 C    0.964
   129   1 H    0.997 --    43 C    0.964
   130   1 H    0.995 --    46 C    0.980
   131   1 H    0.995 --    46 C    0.980
   132   1 H    0.993 --    46 C    0.975
   133   1 H    0.998 --    47 C    0.968
   134   1 H    0.998 --    48 C    0.964
   135   1 H    0.997 --    50 C    0.964
   136   1 H    0.996 --    51 C    0.966
   137   1 H    0.994 --    54 C    0.979
   138   1 H    0.993 --    54 C    0.975
   139   1 H    0.995 --    54 C    0.979
   140   1 H    0.997 --    55 C    0.963
   141   1 H    0.998 --    56 C    0.964
   142   1 H    0.998 --    63 C    0.966
   143   1 H    0.997 --    64 C    0.964
   144   1 H    0.994 --    67 C    0.979
   145   1 H    0.994 --    67 C    0.968
   146   1 H    0.995 --    67 C    0.977
   147   1 H    0.996 --    68 C    0.966
   148   1 H    0.995 --    69 C    0.964
   149   1 H    0.997 --    71 C    0.965
   150   1 H    0.996 --    72 C    0.966
   151   1 H    0.994 --    75 C    0.978
   152   1 H    0.994 --    75 C    0.975
   153   1 H    0.994 --    75 C    0.977
   154   1 H    0.996 --    76 C    0.962
   155   1 H    0.997 --    77 C    0.965
   156   1 H    0.996 --    89 C    0.968
   157   1 H    0.995 --    89 C    0.965
   158   1 H    0.996 --    90 C    0.985
   159   1 H    0.993 --    90 C    0.980
   160   1 H    0.995 --    90 C    0.982
   161   1 H    0.993 --    94 C    0.942
   162   1 H    0.996 --   101 C    0.974
   163   1 H    0.995 --   101 C    0.974
   164   1 H    0.992 --   101 C    0.976
   165   1 H    0.993 --   102 C    0.961
   166   1 H    0.994 --   103 C    0.966
   167   1 H    0.996 --   104 C    0.961
 ---------------------------------------------------------------------------

Topologies differ in bond orders
Writing corrected topology to xtbtopo.mol

molecular dipole:
                 x           y           z       tot (Debye)
 q only:        0.162      -1.857       2.233
   full:       -1.410      -0.748       1.763       6.046
molecular quadrupole (traceless):
                xx          xy          yy          xz          yz          zz
 q only:       64.798     107.824    -194.632      43.636     -40.561     129.834
  q+dip:       57.461     125.029    -167.809      44.230     -46.820     110.348
   full:       59.805     123.400    -173.155      39.417     -45.668     113.350


           -------------------------------------------------
          | TOTAL ENERGY             -300.221657202591 Eh   |
          | GRADIENT NORM               0.052051294025 Eh/α |
          | HOMO-LUMO GAP               0.228701646116 eV   |
           -------------------------------------------------

------------------------------------------------------------------------
 * finished run on 2022/02/05 at 19:57:38.632     
------------------------------------------------------------------------
 total:
 * wall-time:     0 d,  0 h,  0 min,  0.785 sec
 *  cpu-time:     0 d,  0 h,  0 min,  6.178 sec
 * ratio c/w:     7.873 speedup
 SCF:
 * wall-time:     0 d,  0 h,  0 min,  0.697 sec
 *  cpu-time:     0 d,  0 h,  0 min,  5.563 sec
 * ratio c/w:     7.986 speedup

