      -----------------------------------------------------------      
     |                   =====================                   |     
     |                           x T B                           |     
     |                   =====================                   |     
     |                         S. Grimme                         |     
     |          Mulliken Center for Theoretical Chemistry        |     
     |                    University of Bonn                     |     
      -----------------------------------------------------------      

   * xtb version 6.4.1 (unknown) compiled by 'oda6@login1.crc.pitt.edu' on 2021-06-25

   xtb is free software: you can redistribute it and/or modify it under
   the terms of the GNU Lesser General Public License as published by
   the Free Software Foundation, either version 3 of the License, or
   (at your option) any later version.
   
   xtb is distributed in the hope that it will be useful,
   but WITHOUT ANY WARRANTY; without even the implied warranty of
   MERCHANTABILITY or FITNESS FOR A PARTICULAR PURPOSE.  See the
   GNU Lesser General Public License for more details.
   
   Cite this work as:
   * C. Bannwarth, E. Caldeweyher, S. Ehlert, A. Hansen, P. Pracht,
     J. Seibert, S. Spicher, S. Grimme, WIREs Comput. Mol. Sci., 2020, 11,
     e01493. DOI: 10.1002/wcms.1493
   
   for GFN2-xTB:
   * C. Bannwarth, S. Ehlert and S. Grimme., J. Chem. Theory Comput., 2019,
     15, 1652-1671. DOI: 10.1021/acs.jctc.8b01176
   for GFN1-xTB:
   * S. Grimme, C. Bannwarth, P. Shushkov, J. Chem. Theory Comput., 2017,
     13, 1989-2009. DOI: 10.1021/acs.jctc.7b00118
   for GFN0-xTB:
   * P. Pracht, E. Caldeweyher, S. Ehlert, S. Grimme, ChemRxiv, 2019, preprint.
     DOI: 10.26434/chemrxiv.8326202.v1
   for GFN-FF:
   * S. Spicher and S. Grimme, Angew. Chem. Int. Ed., 2020, 59, 15665-15673.
     DOI: 10.1002/anie.202004239
   
   for DFT-D4:
   * E. Caldeweyher, C. Bannwarth and S. Grimme, J. Chem. Phys., 2017,
     147, 034112. DOI: 10.1063/1.4993215
   * E. Caldeweyher, S. Ehlert, A. Hansen, H. Neugebauer, S. Spicher,
     C. Bannwarth and S. Grimme, J. Chem. Phys., 2019, 150, 154122.
     DOI: 10.1063/1.5090222
   * E. Caldeweyher, J.-M. Mewes, S. Ehlert and S. Grimme, Phys. Chem. Chem. Phys.
     2020, 22, 8499-8512. DOI: 10.1039/D0CP00502A
   
   for sTDA-xTB:
   * S. Grimme and C. Bannwarth, J. Chem. Phys., 2016, 145, 054103.
     DOI: 10.1063/1.4959605
   
   in the mass-spec context:
   * V. Asgeirsson, C. Bauer and S. Grimme, Chem. Sci., 2017, 8, 4879.
     DOI: 10.1039/c7sc00601b
   * J. Koopman and S. Grimme, ACS Omega 2019, 4, 12, 15120-15133.
     DOI: 10.1021/acsomega.9b02011
   
   for metadynamics refer to:
   * S. Grimme, J. Chem. Theory Comput., 2019, 155, 2847-2862
     DOI: 10.1021/acs.jctc.9b00143
   
   for SPH calculations refer to:
   * S. Spicher and S. Grimme, J. Chem. Theory Comput., 2021, 17, 1701-1714
     DOI: 10.1021/acs.jctc.0c01306
   
   with help from (in alphabetical order)
   P. Atkinson, C. Bannwarth, F. Bohle, G. Brandenburg, E. Caldeweyher
   M. Checinski, S. Dohm, S. Ehlert, S. Ehrlich, I. Gerasimov, J. Koopman
   C. Lavigne, S. Lehtola, F. März, M. Müller, F. Musil, H. Neugebauer
   J. Pisarek, C. Plett, P. Pracht, J. Seibert, P. Shushkov, S. Spicher
   M. Stahn, M. Steiner, T. Strunk, J. Stückrath, T. Rose, and J. Unsleber
   
 * started run on 2022/02/09 at 09:42:37.187     

           -------------------------------------------------
          |                Calculation Setup                |
           -------------------------------------------------

          program call               : /ihome/ghutchison/oda6/xtb/xtb-641/bin/xtb ../../GFN2_output/39_81_130_127_39.mol --sp --alpb water
          hostname                   : smp-n26
          coordinate file            : ../../GFN2_output/39_81_130_127_39.mol
          omp threads                :                     8
          number of atoms            :                   214
          number of electrons        :                   654
          charge                     :                     0
          spin                       :                   0.0
          first test random number   :      0.41336274199925

   ID    Z sym.   atoms
    1    6 C      1-3, 5-13, 15, 17-32, 34-44, 46-49, 51, 52, 54, 55, 57-60,
                  62-68, 70-73, 75, 76, 78-81, 83-89, 91-94, 96, 97, 99, 101,
                  102, 104-107, 109-114, 116-124, 126, 128-134
    2    8 O      4, 33, 45, 115
    3    7 N      14, 16, 56, 77, 103, 108, 125, 127
    4   16 S      50, 53, 61, 69, 74, 82, 90, 95
    5    9 F      98, 100
    6    1 H      135-214

           -------------------------------------------------
          |                 G F N 2 - x T B                 |
           -------------------------------------------------

        Reference                      10.1021/acs.jctc.8b01176
      * Hamiltonian:
        H0-scaling (s, p, d)           1.850000    2.230000    2.230000
        zeta-weighting                 0.500000
      * Dispersion:
        s8                             2.700000
        a1                             0.520000
        a2                             5.000000
        s9                             5.000000
      * Repulsion:
        kExp                           1.500000    1.000000
        rExp                           1.000000
      * Coulomb:
        alpha                          2.000000
        third order                    shell-resolved
        anisotropic                    true
        a3                             3.000000
        a5                             4.000000
        cn-shift                       1.200000
        cn-exp                         4.000000
        max-rad                        5.000000

      * Solvation model:               ALPB
        Solvent                        water
        Parameter file                 internal GFN2-xTB/ALPB
        Dielectric constant                8.0200E+01
        Reference state                gsolv [1 M gas/solution]
        Free energy shift                  1.0808E-03 Eh       6.7819E-01 kcal/mol
        Temperature                        2.9815E+02 K
        Density                            1.0000E+00 kg/L
        Solvent mass                       1.8000E+01 g/mol
        Interaction kernel             P16
        Born radius scaling (c1)           1.4744E+00
        Born radii integrator          GBOBC
        Born offset                        0.0000E+00 a0       0.0000E+00 AA
        H-bond correction              true
        Ion screening                  false
        Surface tension                    1.0000E-05 Eh       1.5569E+01 dyn/cm
        Grid points                               230 per atom

          ...................................................
          :                      SETUP                      :
          :.................................................:
          :  # basis functions                 664          :
          :  # atomic orbitals                 656          :
          :  # shells                          356          :
          :  # electrons                       654          :
          :  max. iterations                   250          :
          :  Hamiltonian                  GFN2-xTB          :
          :  restarted?                      false          :
          :  GBSA solvation                   true          :
          :  PC potential                    false          :
          :  electronic temp.          300.0000000     K    :
          :  accuracy                    1.0000000          :
          :  -> integral cutoff          0.2500000E+02      :
          :  -> integral neglect         0.1000000E-07      :
          :  -> SCF convergence          0.1000000E-05 Eh   :
          :  -> wf. convergence          0.1000000E-03 e    :
          :  Broyden damping             0.4000000          :
          ...................................................

 iter      E             dE          RMSdq      gap      omega  full diag
   1   -360.9967957 -0.360997E+03  0.457E+00    0.38       0.0  T
   2   -361.2262939 -0.229498E+00  0.264E+00    0.73       1.0  T
   3   -361.0744121  0.151882E+00  0.126E+00    0.20       1.0  T
   4   -361.2826348 -0.208223E+00  0.430E-01    0.36       1.0  T
   5   -361.3009211 -0.182863E-01  0.161E-01    0.33       1.0  T
   6   -361.3023442 -0.142313E-02  0.690E-02    0.35       1.0  T
   7   -361.3027232 -0.378972E-03  0.255E-02    0.35       1.0  T
   8   -361.3027553 -0.320466E-04  0.137E-02    0.35       1.0  T
   9   -361.3027654 -0.101118E-04  0.687E-03    0.35       1.0  T
  10   -361.3027670 -0.163146E-05  0.320E-03    0.35       2.1  T
  11   -361.3027678 -0.759250E-06  0.175E-03    0.35       3.9  T
  12   -361.3027678 -0.682334E-07  0.101E-03    0.35       6.8  T
  13   -361.3027679 -0.719500E-07  0.492E-04    0.35      13.9  T
  14   -361.3027679 -0.147287E-07  0.275E-04    0.35      24.8  T

   *** convergence criteria satisfied after 14 iterations ***

         #    Occupation            Energy/Eh            Energy/eV
      -------------------------------------------------------------
         1        2.0000           -0.8585182             -23.3615
       ...           ...                  ...                  ...
       321        2.0000           -0.3760750             -10.2335
       322        2.0000           -0.3746261             -10.1941
       323        2.0000           -0.3677759             -10.0077
       324        2.0000           -0.3660450              -9.9606
       325        2.0000           -0.3645425              -9.9197
       326        1.9996           -0.3529345              -9.6038
       327        1.9979           -0.3512914              -9.5591 (HOMO)
       328        0.0025           -0.3384099              -9.2086 (LUMO)
       329        0.0000           -0.3315977              -9.0232
       330                         -0.3244310              -8.8282
       331                         -0.3197118              -8.6998
       332                         -0.3054788              -8.3125
       ...                                ...                  ...
       656                          1.1504272              31.3047
      -------------------------------------------------------------
                  HL-Gap            0.0128815 Eh            0.3505 eV
             Fermi-level           -0.3447733 Eh           -9.3818 eV

 SCC (total)                   0 d,  0 h,  0 min,  0.750 sec
 SCC setup                      ...        0 min,  0.007 sec (  0.959%)
 Dispersion                     ...        0 min,  0.010 sec (  1.287%)
 classical contributions        ...        0 min,  0.000 sec (  0.055%)
 integral evaluation            ...        0 min,  0.039 sec (  5.175%)
 iterations                     ...        0 min,  0.562 sec ( 74.991%)
 molecular gradient             ...        0 min,  0.128 sec ( 17.094%)
 printout                       ...        0 min,  0.003 sec (  0.428%)

         :::::::::::::::::::::::::::::::::::::::::::::::::::::
         ::                     SUMMARY                     ::
         :::::::::::::::::::::::::::::::::::::::::::::::::::::
         :: total energy            -355.635362654885 Eh    ::
         :: total w/o Gsasa/hb      -355.616070852995 Eh    ::
         :: gradient norm              0.037650968661 Eh/a0 ::
         :: HOMO-LUMO gap              0.350522889539 eV    ::
         ::.................................................::
         :: SCC energy              -361.302767909032 Eh    ::
         :: -> isotropic ES            0.221635780786 Eh    ::
         :: -> anisotropic ES          0.012577068417 Eh    ::
         :: -> anisotropic XC          0.212362960704 Eh    ::
         :: -> dispersion             -0.372416342950 Eh    ::
         :: -> Gsolv                  -0.062433181256 Eh    ::
         ::    -> Gelec               -0.043141379366 Eh    ::
         ::    -> Gsasa               -0.012076723945 Eh    ::
         ::    -> Ghb                 -0.008295837643 Eh    ::
         ::    -> Gshift               0.001080759698 Eh    ::
         :: repulsion energy           5.655932990525 Eh    ::
         :: add. restraining           0.000000000000 Eh    ::
         :: total charge               0.000000000000 e     ::
         :::::::::::::::::::::::::::::::::::::::::::::::::::::

           -------------------------------------------------
          |                Property Printout                |
           -------------------------------------------------

    * Orbital Energies and Occupations

         #    Occupation            Energy/Eh            Energy/eV
      -------------------------------------------------------------
         1        2.0000           -0.8585182             -23.3615
       ...           ...                  ...                  ...
       315        2.0000           -0.3914066             -10.6507
       316        2.0000           -0.3895212             -10.5994
       317        2.0000           -0.3881186             -10.5612
       318        2.0000           -0.3841257             -10.4526
       319        2.0000           -0.3836100             -10.4386
       320        2.0000           -0.3825223             -10.4090
       321        2.0000           -0.3760750             -10.2335
       322        2.0000           -0.3746261             -10.1941
       323        2.0000           -0.3677759             -10.0077
       324        2.0000           -0.3660450              -9.9606
       325        2.0000           -0.3645425              -9.9197
       326        1.9996           -0.3529345              -9.6038
       327        1.9979           -0.3512914              -9.5591 (HOMO)
       328        0.0025           -0.3384099              -9.2086 (LUMO)
       329        0.0000           -0.3315977              -9.0232
       330                         -0.3244310              -8.8282
       331                         -0.3197118              -8.6998
       332                         -0.3054788              -8.3125
       333                         -0.2907452              -7.9116
       334                         -0.2694088              -7.3310
       335                         -0.2680240              -7.2933
       336                         -0.2570889              -6.9957
       337                         -0.2552124              -6.9447
       338                         -0.2548983              -6.9361
       ...                                ...                  ...
       656                          1.1504272              31.3047
      -------------------------------------------------------------
                  HL-Gap            0.0128815 Eh            0.3505 eV
             Fermi-level           -0.3447733 Eh           -9.3818 eV

     #   Z          covCN         q      C6AA      α(0)
     1   6 C        2.954    -0.011    28.284     8.723
     2   6 C        2.998    -0.037    28.901     8.819
     3   6 C        2.867     0.232    23.145     7.886
     4   8 O        0.856    -0.427    22.224     6.320
     5   6 C        3.060    -0.022    28.487     8.753
     6   6 C        2.904    -0.024    28.611     8.771
     7   6 C        3.259     0.016    26.526     8.324
     8   6 C        3.256     0.016    26.559     8.334
     9   6 C        2.904    -0.033    28.831     8.804
    10   6 C        3.043     0.005    27.866     8.658
    11   6 C        3.022     0.037    27.136     8.545
    12   6 C        2.947     0.001    28.003     8.679
    13   6 C        1.948     0.131    27.877     8.527
    14   7 N        0.911    -0.286    27.365     7.566
    15   6 C        1.950     0.135    27.775     8.511
    16   7 N        0.911    -0.283    27.303     7.557
    17   6 C        4.162    -0.025    20.929     6.497
    18   6 C        4.013    -0.016    20.784     6.476
    19   6 C        2.995    -0.044    29.071     8.844
    20   6 C        2.995    -0.044    29.087     8.847
    21   6 C        4.013    -0.016    20.785     6.476
    22   6 C        3.915    -0.062    21.633     6.611
    23   6 C        4.160    -0.025    20.927     6.497
    24   6 C        2.978     0.035    27.211     8.557
    25   6 C        3.054    -0.038    28.879     8.813
    26   6 C        3.139    -0.001    27.821     8.632
    27   6 C        2.993     0.003    27.940     8.671
    28   6 C        2.977     0.014    27.693     8.632
    29   6 C        2.923    -0.046    29.147     8.854
    30   6 C        2.920    -0.033    28.818     8.803
    31   6 C        2.918    -0.068    29.694     8.936
    32   6 C        2.859     0.148    24.786     8.160
    33   8 O        1.706    -0.302    19.033     5.890
    34   6 C        3.689     0.076    19.493     6.319
    35   6 C        3.750    -0.127    23.002     6.840
    36   6 C        2.927    -0.059    29.475     8.903
    37   6 C        3.006     0.025    27.435     8.592
    38   6 C        3.131     0.002    27.774     8.628
    39   6 C        2.992    -0.005    28.134     8.701
    40   6 C        2.975     0.013    27.724     8.637
    41   6 C        2.923    -0.042    29.047     8.838
    42   6 C        2.920    -0.031    28.775     8.797
    43   6 C        2.917    -0.069    29.724     8.940
    44   6 C        2.862     0.142    24.903     8.180
    45   8 O        1.706    -0.299    18.979     5.882
    46   6 C        3.690     0.086    19.333     6.292
    47   6 C        3.751    -0.120    22.867     6.820
    48   6 C        2.927    -0.063    29.570     8.918
    49   6 C        3.002     0.030    27.315     8.573
    50  16 S        2.294    -0.064   143.714    20.177
    51   6 C        3.068    -0.059    29.404     8.892
    52   6 C        3.026     0.034    27.218     8.558
    53  16 S        2.315    -0.060   143.534    20.164
    54   6 C        3.029    -0.004    28.100     8.695
    55   6 C        3.049     0.047    26.889     8.505
    56   7 N        2.748    -0.055    22.312     7.016
    57   6 C        2.921     0.061    26.641     8.464
    58   6 C        2.924    -0.050    29.251     8.869
    59   6 C        2.950    -0.040    28.995     8.832
    60   6 C        2.967     0.043    27.023     8.527
    61  16 S        2.026    -0.205   149.795    20.599
    62   6 C        3.744    -0.053    21.596     6.629
    63   6 C        2.970    -0.037    28.928     8.822
    64   6 C        2.924    -0.046    29.133     8.851
    65   6 C        2.931     0.057    26.724     8.478
    66   6 C        2.924    -0.044    29.102     8.847
    67   6 C        2.943    -0.045    29.126     8.851
    68   6 C        2.966     0.047    26.939     8.514
    69  16 S        2.035    -0.189   149.099    20.551
    70   6 C        3.744    -0.066    21.831     6.665
    71   6 C        2.985    -0.042    29.035     8.839
    72   6 C        2.921    -0.043    29.066     8.841
    73   6 C        3.181     0.006    27.451     8.553
    74  16 S        2.254    -0.046   142.948    20.123
    75   6 C        3.004     0.004    27.919     8.667
    76   6 C        3.052     0.058    26.659     8.468
    77   7 N        2.748    -0.049    22.184     6.995
    78   6 C        2.928     0.059    26.674     8.470
    79   6 C        2.930    -0.044    29.081     8.844
    80   6 C        2.949    -0.040    28.991     8.831
    81   6 C        2.966     0.048    26.916     8.510
    82  16 S        2.027    -0.198   149.469    20.577
    83   6 C        3.744    -0.059    21.700     6.645
    84   6 C        2.971    -0.040    28.984     8.831
    85   6 C        2.922    -0.045    29.121     8.850
    86   6 C        2.924     0.054    26.784     8.487
    87   6 C        2.922    -0.046    29.147     8.854
    88   6 C        2.985    -0.044    29.085     8.846
    89   6 C        2.965     0.041    27.082     8.536
    90  16 S        2.035    -0.191   149.155    20.555
    91   6 C        3.745    -0.057    21.668     6.640
    92   6 C        2.944    -0.051    29.259     8.872
    93   6 C        2.924    -0.052    29.302     8.877
    94   6 C        3.176     0.002    27.585     8.577
    95  16 S        2.327    -0.036   142.527    20.093
    96   6 C        2.997    -0.012    28.298     8.726
    97   6 C        2.780     0.141    24.905     8.174
    98   9 F        0.787    -0.225    11.496     4.005
    99   6 C        2.781     0.146    24.802     8.157
   100   9 F        0.787    -0.227    11.515     4.008
   101   6 C        2.973    -0.007    28.197     8.710
   102   6 C        2.968     0.082    26.160     8.390
   103   7 N        1.853    -0.234    26.982     7.699
   104   6 C        2.943     0.098    25.836     8.337
   105   6 C        3.810    -0.070    21.832     6.651
   106   6 C        3.753    -0.100    22.464     6.759
   107   6 C        2.940     0.097    25.852     8.339
   108   7 N        1.851    -0.231    26.908     7.688
   109   6 C        2.966     0.069    26.458     8.437
   110   6 C        3.808    -0.070    21.828     6.651
   111   6 C        3.752    -0.107    22.596     6.779
   112   6 C        2.902     0.008    27.846     8.652
   113   6 C        3.005    -0.016    28.396     8.741
   114   6 C        2.865     0.242    22.960     7.854
   115   8 O        0.856    -0.429    22.265     6.326
   116   6 C        3.055    -0.019    28.425     8.744
   117   6 C        2.904    -0.022    28.549     8.761
   118   6 C        3.260     0.019    26.448     8.310
   119   6 C        3.255     0.019    26.499     8.325
   120   6 C        2.904    -0.031    28.766     8.794
   121   6 C        3.044     0.009    27.766     8.642
   122   6 C        3.013     0.043    27.008     8.525
   123   6 C        2.947     0.010    27.791     8.646
   124   6 C        1.946     0.135    27.782     8.512
   125   7 N        0.911    -0.276    27.130     7.533
   126   6 C        1.946     0.138    27.715     8.502
   127   7 N        0.911    -0.270    26.979     7.512
   128   6 C        4.163    -0.028    20.985     6.506
   129   6 C        4.011    -0.016    20.790     6.477
   130   6 C        2.987    -0.043    29.057     8.842
   131   6 C        2.988    -0.043    29.053     8.842
   132   6 C        4.012    -0.017    20.796     6.478
   133   6 C        3.926    -0.066    21.706     6.621
   134   6 C        4.161    -0.028    20.982     6.506
   135   1 H        0.925     0.066     2.126     2.280
   136   1 H        0.926     0.067     2.114     2.274
   137   1 H        0.926     0.056     2.250     2.346
   138   1 H        0.925     0.055     2.257     2.349
   139   1 H        0.925     0.042     2.420     2.433
   140   1 H        0.926     0.044     2.392     2.419
   141   1 H        0.926     0.045     2.377     2.411
   142   1 H        0.925     0.045     2.386     2.415
   143   1 H        0.925     0.045     2.379     2.412
   144   1 H        0.925     0.034     2.534     2.489
   145   1 H        0.925     0.057     2.236     2.339
   146   1 H        0.926     0.090     1.882     2.145
   147   1 H        0.926     0.045     2.383     2.414
   148   1 H        0.926     0.051     2.304     2.373
   149   1 H        0.926     0.051     2.312     2.378
   150   1 H        0.924     0.039     2.459     2.452
   151   1 H        0.924     0.060     2.202     2.320
   152   1 H        0.925     0.060     2.201     2.320
   153   1 H        0.925     0.053     2.282     2.362
   154   1 H        0.925     0.055     2.261     2.352
   155   1 H        0.926     0.045     2.382     2.413
   156   1 H        0.926     0.044     2.398     2.422
   157   1 H        0.926     0.048     2.342     2.393
   158   1 H        0.926     0.043     2.412     2.429
   159   1 H        0.923     0.036     2.507     2.476
   160   1 H        0.923     0.032     2.564     2.504
   161   1 H        0.925     0.063     2.161     2.299
   162   1 H        0.925     0.062     2.177     2.307
   163   1 H        0.925     0.051     2.308     2.376
   164   1 H        0.926     0.052     2.301     2.372
   165   1 H        0.926     0.055     2.264     2.353
   166   1 H        0.926     0.041     2.429     2.437
   167   1 H        0.926     0.050     2.318     2.381
   168   1 H        0.925     0.073     2.051     2.240
   169   1 H        0.925     0.053     2.286     2.365
   170   1 H        0.925     0.066     2.132     2.283
   171   1 H        0.926     0.047     2.352     2.398
   172   1 H        0.926     0.042     2.427     2.436
   173   1 H        0.926     0.046     2.366     2.405
   174   1 H        0.926     0.057     2.234     2.337
   175   1 H        0.925     0.069     2.092     2.262
   176   1 H        0.925     0.082     1.960     2.189
   177   1 H        0.925     0.076     2.024     2.225
   178   1 H        0.926     0.051     2.311     2.377
   179   1 H        0.926     0.048     2.341     2.393
   180   1 H        0.926     0.054     2.270     2.356
   181   1 H        0.926     0.061     2.186     2.312
   182   1 H        0.925     0.070     2.085     2.258
   183   1 H        0.925     0.067     2.116     2.275
   184   1 H        0.925     0.074     2.044     2.236
   185   1 H        0.926     0.055     2.258     2.350
   186   1 H        0.926     0.044     2.394     2.420
   187   1 H        0.926     0.053     2.282     2.363
   188   1 H        0.926     0.052     2.297     2.370
   189   1 H        0.925     0.053     2.284     2.363
   190   1 H        0.925     0.089     1.892     2.151
   191   1 H        0.925     0.073     2.058     2.243
   192   1 H        0.926     0.045     2.384     2.415
   193   1 H        0.926     0.039     2.463     2.454
   194   1 H        0.924     0.065     2.136     2.285
   195   1 H        0.925     0.070     2.081     2.256
   196   1 H        0.925     0.061     2.192     2.315
   197   1 H        0.925     0.033     2.541     2.493
   198   1 H        0.925     0.046     2.374     2.410
   199   1 H        0.924     0.067     2.124     2.279
   200   1 H        0.924     0.071     2.073     2.251
   201   1 H        0.925     0.063     2.159     2.298
   202   1 H        0.925     0.042     2.421     2.433
   203   1 H        0.925     0.043     2.406     2.426
   204   1 H        0.925     0.076     2.021     2.223
   205   1 H        0.926     0.069     2.099     2.266
   206   1 H        0.926     0.062     2.176     2.307
   207   1 H        0.925     0.063     2.159     2.298
   208   1 H        0.925     0.045     2.379     2.412
   209   1 H        0.926     0.033     2.543     2.494
   210   1 H        0.926     0.035     2.519     2.482
   211   1 H        0.925     0.048     2.348     2.397
   212   1 H        0.925     0.050     2.317     2.381
   213   1 H        0.925     0.051     2.310     2.377
   214   1 H        0.925     0.065     2.140     2.288

 Mol. C6AA /au·bohr⁶  :     735469.080206
 Mol. C8AA /au·bohr⁸  :   20144150.796804
 Mol. α(0) /au        :       1365.173906


Wiberg/Mayer (AO) data.
largest (>0.10) Wiberg bond orders for each atom

 ---------------------------------------------------------------------------
     #   Z sym  total        # sym  WBO       # sym  WBO       # sym  WBO
 ---------------------------------------------------------------------------
     1   6 C    3.939 --     2 C    1.538    24 C    1.252   135 H    0.943
     2   6 C    3.946 --     1 C    1.538    11 C    1.130     3 C    1.036
     3   6 C    3.911 --     4 O    1.720     2 C    1.036     5 C    1.033
     4   8 O    2.017 --     3 C    1.720
     5   6 C    3.973 --     6 C    1.376    10 C    1.305     3 C    1.033
     6   6 C    3.979 --     7 C    1.443     5 C    1.376   136 H    0.962
     7   6 C    3.952 --     6 C    1.443     8 C    1.318    23 C    0.994
     8   6 C    3.964 --     9 C    1.452     7 C    1.318    17 C    0.995
     9   6 C    3.977 --     8 C    1.452    10 C    1.359   137 H    0.958
    10   6 C    3.976 --     9 C    1.359     5 C    1.305    11 C    1.095
    11   6 C    3.966 --    12 C    1.473     2 C    1.130    10 C    1.095
    12   6 C    3.946 --    11 C    1.473    15 C    1.100    13 C    1.100
    13   6 C    3.940 --    14 N    2.739    12 C    1.100
    14   7 N    2.951 --    13 C    2.739
    15   6 C    3.940 --    16 N    2.747    12 C    1.100
    16   7 N    2.957 --    15 C    2.747
    17   6 C    3.983 --     8 C    0.995    23 C    0.974   138 H    0.959
                            18 C    0.950
    18   6 C    3.988 --    19 C    1.004    22 C    0.989   139 H    0.970
                            17 C    0.950
    19   6 C    3.980 --    20 C    1.923    18 C    1.004   140 H    0.970
    20   6 C    3.980 --    19 C    1.923    21 C    1.004   141 H    0.970
    21   6 C    3.987 --    20 C    1.004    22 C    0.989   142 H    0.970
                            23 C    0.949
    22   6 C    3.993 --    21 C    0.989    18 C    0.989   143 H    0.978
                           144 H    0.974
    23   6 C    3.981 --     7 C    0.994    17 C    0.974   145 H    0.959
                            21 C    0.949
    24   6 C    3.934 --    25 C    1.465     1 C    1.252    50 S    1.066
    25   6 C    3.938 --    24 C    1.465    26 C    1.280   146 H    0.939
    26   6 C    3.968 --    25 C    1.280    27 C    1.254    49 C    1.223
    27   6 C    3.957 --    37 C    1.414    26 C    1.254    28 C    1.043
    28   6 C    3.986 --    36 C    1.414    29 C    1.365    27 C    1.043
    29   6 C    3.980 --    30 C    1.453    28 C    1.365   147 H    0.966
    30   6 C    3.989 --    29 C    1.453    31 C    1.433   148 H    0.968
                            36 C    0.104
    31   6 C    3.979 --    30 C    1.433    32 C    1.368   149 H    0.963
    32   6 C    3.933 --    31 C    1.368    36 C    1.354    33 O    1.064
    33   8 O    2.222 --    32 C    1.064    34 C    0.958
    34   6 C    3.935 --    35 C    1.010   151 H    0.970   150 H    0.967
                            33 O    0.958
    35   6 C    3.990 --    34 C    1.010   154 H    0.986   153 H    0.984
                           152 H    0.983
    36   6 C    3.981 --    28 C    1.414    32 C    1.354   155 H    0.966
                            30 C    0.104
    37   6 C    3.943 --    27 C    1.414    38 C    1.230    53 S    1.089
    38   6 C    3.965 --    39 C    1.277    51 C    1.245    37 C    1.230
    39   6 C    3.960 --    49 C    1.389    38 C    1.277    40 C    1.046
    40   6 C    3.987 --    48 C    1.408    41 C    1.368    39 C    1.046
    41   6 C    3.984 --    42 C    1.451    40 C    1.368   156 H    0.965
    42   6 C    3.989 --    41 C    1.451    43 C    1.432   157 H    0.969
                            48 C    0.105
    43   6 C    3.980 --    42 C    1.432    44 C    1.369   158 H    0.966
    44   6 C    3.933 --    43 C    1.369    48 C    1.358    45 O    1.060
    45   8 O    2.214 --    44 C    1.060    46 C    0.958
    46   6 C    3.939 --    47 C    1.015   160 H    0.969   159 H    0.968
                            45 O    0.958
    47   6 C    3.990 --    46 C    1.015   161 H    0.985   162 H    0.983
                           163 H    0.983
    48   6 C    3.981 --    40 C    1.408    44 C    1.358   164 H    0.964
                            42 C    0.105
    49   6 C    3.945 --    39 C    1.389    26 C    1.223    50 S    1.118
    50  16 S    2.502 --    49 C    1.118    24 C    1.066
    51   6 C    3.949 --    52 C    1.510    38 C    1.245   165 H    0.948
    52   6 C    3.926 --    51 C    1.510    54 C    1.181    53 S    1.089
    53  16 S    2.493 --    52 C    1.089    37 C    1.089
    54   6 C    3.911 --    55 C    1.387    52 C    1.181    95 S    1.092
    55   6 C    3.938 --    54 C    1.387    73 C    1.217    56 N    1.103
    56   7 N    3.503 --    55 C    1.103    57 C    1.071    65 C    1.032
    57   6 C    3.964 --    58 C    1.355    64 C    1.345    56 N    1.071
    58   6 C    3.985 --    59 C    1.459    57 C    1.355   166 H    0.966
    59   6 C    3.988 --    58 C    1.459    60 C    1.389   167 H    0.966
    60   6 C    3.955 --    59 C    1.389    63 C    1.379    61 S    1.029
    61  16 S    2.194 --    60 C    1.029    62 C    1.001
    62   6 C    3.971 --    61 S    1.001   169 H    0.983   170 H    0.982
                           168 H    0.978
    63   6 C    3.989 --    64 C    1.472    60 C    1.379   171 H    0.966
    64   6 C    3.981 --    63 C    1.472    57 C    1.345   172 H    0.964
    65   6 C    3.960 --    66 C    1.375    72 C    1.355    56 N    1.032
    66   6 C    3.983 --    67 C    1.446    65 C    1.375   173 H    0.966
                            71 C    0.100
    67   6 C    3.987 --    66 C    1.446    68 C    1.387   174 H    0.963
    68   6 C    3.953 --    67 C    1.387    71 C    1.363    69 S    1.054
    69  16 S    2.260 --    68 C    1.054    70 C    1.008
    70   6 C    3.966 --    69 S    1.008   175 H    0.980   177 H    0.978
                           176 H    0.975
    71   6 C    3.989 --    72 C    1.479    68 C    1.363   178 H    0.967
                            66 C    0.100
    72   6 C    3.982 --    71 C    1.479    65 C    1.355   179 H    0.966
    73   6 C    3.930 --    94 C    1.378    55 C    1.217    74 S    1.116
    74  16 S    2.548 --    73 C    1.116    75 C    1.097
    75   6 C    3.896 --    76 C    1.403    96 C    1.120    74 S    1.097
    76   6 C    3.956 --    75 C    1.403    94 C    1.211    77 N    1.118
    77   7 N    3.512 --    76 C    1.118    78 C    1.048    86 C    1.042
    78   6 C    3.957 --    85 C    1.356    79 C    1.354    77 N    1.048
    79   6 C    3.982 --    80 C    1.449    78 C    1.354   180 H    0.964
    80   6 C    3.986 --    79 C    1.449    81 C    1.390   181 H    0.964
    81   6 C    3.950 --    80 C    1.390    84 C    1.374    82 S    1.040
    82  16 S    2.213 --    81 C    1.040    83 C    1.002
    83   6 C    3.968 --    82 S    1.002   183 H    0.981   182 H    0.980
                           184 H    0.977
    84   6 C    3.987 --    85 C    1.473    81 C    1.374   185 H    0.967
    85   6 C    3.980 --    84 C    1.473    78 C    1.356   186 H    0.966
    86   6 C    3.965 --    93 C    1.371    87 C    1.355    77 N    1.042
    87   6 C    3.984 --    88 C    1.476    86 C    1.355   187 H    0.962
    88   6 C    3.989 --    87 C    1.476    89 C    1.364   188 H    0.966
                            93 C    0.101
    89   6 C    3.959 --    92 C    1.383    88 C    1.364    90 S    1.055
    90  16 S    2.264 --    89 C    1.055    91 C    1.008
    91   6 C    3.967 --    90 S    1.008   189 H    0.980   191 H    0.980
                           190 H    0.969
    92   6 C    3.988 --    93 C    1.452    89 C    1.383   192 H    0.964
    93   6 C    3.986 --    92 C    1.452    86 C    1.371   193 H    0.967
                            88 C    0.101
    94   6 C    3.930 --    73 C    1.378    76 C    1.211    95 S    1.113
    95  16 S    2.559 --    94 C    1.113    54 C    1.092
    96   6 C    3.963 --    97 C    1.388   109 C    1.193    75 C    1.120
    97   6 C    3.859 --    96 C    1.388    99 C    1.303    98 F    0.954
    98   9 F    1.084 --    97 C    0.954
    99   6 C    3.858 --   101 C    1.391    97 C    1.303   100 F    0.955
   100   9 F    1.081 --    99 C    0.955
   101   6 C    3.961 --    99 C    1.391   102 C    1.189   112 C    1.129
   102   6 C    3.977 --   103 N    1.312   109 C    1.234   101 C    1.189
   103   7 N    3.093 --   104 C    1.518   102 C    1.312
   104   6 C    3.954 --   103 N    1.518   107 C    1.207   105 C    1.013
   105   6 C    3.989 --   104 C    1.013   106 C    0.990   194 H    0.968
                           195 H    0.964
   106   6 C    3.988 --   105 C    0.990   198 H    0.985   197 H    0.984
                           196 H    0.982
   107   6 C    3.954 --   108 N    1.517   104 C    1.207   110 C    1.014
   108   7 N    3.077 --   107 C    1.517   109 C    1.306
   109   6 C    3.977 --   108 N    1.306   102 C    1.234    96 C    1.193
   110   6 C    3.988 --   107 C    1.014   111 C    0.991   200 H    0.969
                           199 H    0.963
   111   6 C    3.987 --   110 C    0.991   202 H    0.983   201 H    0.982
                           203 H    0.979
   112   6 C    3.939 --   113 C    1.637   101 C    1.129   204 H    0.940
   113   6 C    3.968 --   112 C    1.637   122 C    1.114   114 C    1.009
   114   6 C    3.912 --   115 O    1.739   116 C    1.038   113 C    1.009
   115   8 O    2.017 --   114 C    1.739
   116   6 C    3.972 --   117 C    1.374   121 C    1.295   114 C    1.038
   117   6 C    3.981 --   118 C    1.444   116 C    1.374   205 H    0.962
   118   6 C    3.949 --   117 C    1.444   119 C    1.313   134 C    0.998
   119   6 C    3.963 --   120 C    1.454   118 C    1.313   128 C    1.000
   120   6 C    3.978 --   119 C    1.454   121 C    1.357   206 H    0.957
   121   6 C    3.980 --   120 C    1.357   116 C    1.295   122 C    1.102
   122   6 C    3.969 --   123 C    1.488   113 C    1.114   121 C    1.102
   123   6 C    3.959 --   122 C    1.488   124 C    1.099   126 C    1.097
   124   6 C    3.941 --   125 N    2.746   123 C    1.099
   125   7 N    2.961 --   124 C    2.746
   126   6 C    3.942 --   127 N    2.755   123 C    1.097
   127   7 N    2.963 --   126 C    2.755
   128   6 C    3.982 --   119 C    1.000   134 C    0.977   207 H    0.956
                           129 C    0.944
   129   6 C    3.987 --   130 C    1.010   133 C    0.985   208 H    0.971
                           128 C    0.944
   130   6 C    3.987 --   131 C    1.924   129 C    1.010   209 H    0.971
   131   6 C    3.986 --   130 C    1.924   132 C    1.010   210 H    0.970
   132   6 C    3.986 --   131 C    1.010   133 C    0.985   211 H    0.971
                           134 C    0.945
   133   6 C    3.991 --   132 C    0.985   129 C    0.985   212 H    0.977
                           213 H    0.975
   134   6 C    3.981 --   118 C    0.998   128 C    0.977   214 H    0.955
                           132 C    0.945
   135   1 H    0.995 --     1 C    0.943
   136   1 H    0.995 --     6 C    0.962
   137   1 H    0.996 --     9 C    0.958
   138   1 H    0.995 --    17 C    0.959
   139   1 H    0.998 --    18 C    0.970
   140   1 H    0.998 --    19 C    0.970
   141   1 H    0.998 --    20 C    0.970
   142   1 H    0.998 --    21 C    0.970
   143   1 H    0.998 --    22 C    0.978
   144   1 H    0.999 --    22 C    0.974
   145   1 H    0.994 --    23 C    0.959
   146   1 H    0.991 --    25 C    0.939
   147   1 H    0.998 --    29 C    0.966
   148   1 H    0.997 --    30 C    0.968
   149   1 H    0.997 --    31 C    0.963
   150   1 H    0.998 --    34 C    0.967
   151   1 H    0.996 --    34 C    0.970
   152   1 H    0.996 --    35 C    0.983
   153   1 H    0.997 --    35 C    0.984
   154   1 H    0.997 --    35 C    0.986
   155   1 H    0.998 --    36 C    0.966
   156   1 H    0.998 --    41 C    0.965
   157   1 H    0.997 --    42 C    0.969
   158   1 H    0.998 --    43 C    0.966
   159   1 H    0.999 --    46 C    0.968
   160   1 H    0.999 --    46 C    0.969
   161   1 H    0.996 --    47 C    0.985
   162   1 H    0.996 --    47 C    0.983
   163   1 H    0.997 --    47 C    0.983
   164   1 H    0.997 --    48 C    0.964
   165   1 H    0.996 --    51 C    0.948
   166   1 H    0.998 --    58 C    0.966
   167   1 H    0.997 --    59 C    0.966
   168   1 H    0.994 --    62 C    0.978
   169   1 H    0.997 --    62 C    0.983
   170   1 H    0.995 --    62 C    0.982
   171   1 H    0.997 --    63 C    0.966
   172   1 H    0.998 --    64 C    0.964
   173   1 H    0.998 --    66 C    0.966
   174   1 H    0.996 --    67 C    0.963
   175   1 H    0.995 --    70 C    0.980
   176   1 H    0.993 --    70 C    0.975
   177   1 H    0.994 --    70 C    0.978
   178   1 H    0.997 --    71 C    0.967
   179   1 H    0.997 --    72 C    0.966
   180   1 H    0.997 --    79 C    0.964
   181   1 H    0.996 --    80 C    0.964
   182   1 H    0.994 --    83 C    0.980
   183   1 H    0.995 --    83 C    0.981
   184   1 H    0.994 --    83 C    0.977
   185   1 H    0.996 --    84 C    0.967
   186   1 H    0.998 --    85 C    0.966
   187   1 H    0.997 --    87 C    0.962
   188   1 H    0.997 --    88 C    0.966
   189   1 H    0.997 --    91 C    0.980
   190   1 H    0.992 --    91 C    0.969
   191   1 H    0.994 --    91 C    0.980
   192   1 H    0.998 --    92 C    0.964
   193   1 H    0.998 --    93 C    0.967
   194   1 H    0.995 --   105 C    0.968
   195   1 H    0.994 --   105 C    0.964
   196   1 H    0.995 --   106 C    0.982
   197   1 H    0.999 --   106 C    0.984
   198   1 H    0.998 --   106 C    0.985
   199   1 H    0.994 --   110 C    0.963
   200   1 H    0.994 --   110 C    0.969
   201   1 H    0.995 --   111 C    0.982
   202   1 H    0.998 --   111 C    0.983
   203   1 H    0.998 --   111 C    0.979
   204   1 H    0.991 --   112 C    0.940
   205   1 H    0.995 --   117 C    0.962
   206   1 H    0.996 --   120 C    0.957
   207   1 H    0.994 --   128 C    0.956
   208   1 H    0.998 --   129 C    0.971
   209   1 H    0.999 --   130 C    0.971
   210   1 H    0.999 --   131 C    0.970
   211   1 H    0.997 --   132 C    0.971
   212   1 H    0.997 --   133 C    0.977
   213   1 H    0.995 --   133 C    0.975
   214   1 H    0.993 --   134 C    0.955
 ---------------------------------------------------------------------------

Topologies differ in bond orders
Writing corrected topology to xtbtopo.mol

molecular dipole:
                 x           y           z       tot (Debye)
 q only:        4.471      -5.165      -2.610
   full:        4.403      -4.808      -2.416      17.671
molecular quadrupole (traceless):
                xx          xy          yy          xz          yz          zz
 q only:      159.291     -10.528     -64.414     114.754     118.048     -94.877
  q+dip:      174.611       1.734     -89.061     104.335     138.918     -85.550
   full:      180.318       1.727     -92.368     101.712     144.794     -87.950


           -------------------------------------------------
          | TOTAL ENERGY             -355.635362654885 Eh   |
          | GRADIENT NORM               0.037650968661 Eh/α |
          | HOMO-LUMO GAP               0.350522889539 eV   |
           -------------------------------------------------

------------------------------------------------------------------------
 * finished run on 2022/02/09 at 09:42:38.041     
------------------------------------------------------------------------
 total:
 * wall-time:     0 d,  0 h,  0 min,  0.855 sec
 *  cpu-time:     0 d,  0 h,  0 min,  6.718 sec
 * ratio c/w:     7.859 speedup
 SCF:
 * wall-time:     0 d,  0 h,  0 min,  0.753 sec
 *  cpu-time:     0 d,  0 h,  0 min,  5.999 sec
 * ratio c/w:     7.963 speedup

