      -----------------------------------------------------------      
     |                   =====================                   |     
     |                           x T B                           |     
     |                   =====================                   |     
     |                         S. Grimme                         |     
     |          Mulliken Center for Theoretical Chemistry        |     
     |                    University of Bonn                     |     
      -----------------------------------------------------------      

   * xtb version 6.4.1 (unknown) compiled by 'oda6@login1.crc.pitt.edu' on 2021-06-25

   xtb is free software: you can redistribute it and/or modify it under
   the terms of the GNU Lesser General Public License as published by
   the Free Software Foundation, either version 3 of the License, or
   (at your option) any later version.
   
   xtb is distributed in the hope that it will be useful,
   but WITHOUT ANY WARRANTY; without even the implied warranty of
   MERCHANTABILITY or FITNESS FOR A PARTICULAR PURPOSE.  See the
   GNU Lesser General Public License for more details.
   
   Cite this work as:
   * C. Bannwarth, E. Caldeweyher, S. Ehlert, A. Hansen, P. Pracht,
     J. Seibert, S. Spicher, S. Grimme, WIREs Comput. Mol. Sci., 2020, 11,
     e01493. DOI: 10.1002/wcms.1493
   
   for GFN2-xTB:
   * C. Bannwarth, S. Ehlert and S. Grimme., J. Chem. Theory Comput., 2019,
     15, 1652-1671. DOI: 10.1021/acs.jctc.8b01176
   for GFN1-xTB:
   * S. Grimme, C. Bannwarth, P. Shushkov, J. Chem. Theory Comput., 2017,
     13, 1989-2009. DOI: 10.1021/acs.jctc.7b00118
   for GFN0-xTB:
   * P. Pracht, E. Caldeweyher, S. Ehlert, S. Grimme, ChemRxiv, 2019, preprint.
     DOI: 10.26434/chemrxiv.8326202.v1
   for GFN-FF:
   * S. Spicher and S. Grimme, Angew. Chem. Int. Ed., 2020, 59, 15665-15673.
     DOI: 10.1002/anie.202004239
   
   for DFT-D4:
   * E. Caldeweyher, C. Bannwarth and S. Grimme, J. Chem. Phys., 2017,
     147, 034112. DOI: 10.1063/1.4993215
   * E. Caldeweyher, S. Ehlert, A. Hansen, H. Neugebauer, S. Spicher,
     C. Bannwarth and S. Grimme, J. Chem. Phys., 2019, 150, 154122.
     DOI: 10.1063/1.5090222
   * E. Caldeweyher, J.-M. Mewes, S. Ehlert and S. Grimme, Phys. Chem. Chem. Phys.
     2020, 22, 8499-8512. DOI: 10.1039/D0CP00502A
   
   for sTDA-xTB:
   * S. Grimme and C. Bannwarth, J. Chem. Phys., 2016, 145, 054103.
     DOI: 10.1063/1.4959605
   
   in the mass-spec context:
   * V. Asgeirsson, C. Bauer and S. Grimme, Chem. Sci., 2017, 8, 4879.
     DOI: 10.1039/c7sc00601b
   * J. Koopman and S. Grimme, ACS Omega 2019, 4, 12, 15120-15133.
     DOI: 10.1021/acsomega.9b02011
   
   for metadynamics refer to:
   * S. Grimme, J. Chem. Theory Comput., 2019, 155, 2847-2862
     DOI: 10.1021/acs.jctc.9b00143
   
   for SPH calculations refer to:
   * S. Spicher and S. Grimme, J. Chem. Theory Comput., 2021, 17, 1701-1714
     DOI: 10.1021/acs.jctc.0c01306
   
   with help from (in alphabetical order)
   P. Atkinson, C. Bannwarth, F. Bohle, G. Brandenburg, E. Caldeweyher
   M. Checinski, S. Dohm, S. Ehlert, S. Ehrlich, I. Gerasimov, J. Koopman
   C. Lavigne, S. Lehtola, F. März, M. Müller, F. Musil, H. Neugebauer
   J. Pisarek, C. Plett, P. Pracht, J. Seibert, P. Shushkov, S. Spicher
   M. Stahn, M. Steiner, T. Strunk, J. Stückrath, T. Rose, and J. Unsleber
   
 * started run on 2022/02/06 at 15:40:48.669     

           -------------------------------------------------
          |                Calculation Setup                |
           -------------------------------------------------

          program call               : /ihome/ghutchison/oda6/xtb/xtb-641/bin/xtb ../../GFN2_output/39_82_130_82_39.mol --sp --alpb water
          hostname                   : smp-n57
          coordinate file            : ../../GFN2_output/39_82_130_82_39.mol
          omp threads                :                     8
          number of atoms            :                   234
          number of electrons        :                   748
          charge                     :                     0
          spin                       :                   0.0
          first test random number   :      0.22635064471504

   ID    Z sym.   atoms
    1    6 C      1-3, 5-13, 15, 17-25, 27, 29, 30, 32-36, 38-41, 43, 45-49,
                  51-53, 55-57, 59-62, 64-70, 72-75, 77, 78, 80-83, 85-91,
                  93-96, 98, 99, 101, 103, 104, 106-110, 112-115, 117,
                  119-123, 125-127, 129-132, 134-142, 144, 146-152
    2    8 O      4, 37, 50, 111, 124, 133
    3    7 N      14, 16, 31, 44, 58, 79, 105, 118, 143, 145
    4    9 F      26, 28, 42, 54, 100, 102, 116, 128
    5   16 S      63, 71, 76, 84, 92, 97
    6    1 H      153-234

           -------------------------------------------------
          |                 G F N 2 - x T B                 |
           -------------------------------------------------

        Reference                      10.1021/acs.jctc.8b01176
      * Hamiltonian:
        H0-scaling (s, p, d)           1.850000    2.230000    2.230000
        zeta-weighting                 0.500000
      * Dispersion:
        s8                             2.700000
        a1                             0.520000
        a2                             5.000000
        s9                             5.000000
      * Repulsion:
        kExp                           1.500000    1.000000
        rExp                           1.000000
      * Coulomb:
        alpha                          2.000000
        third order                    shell-resolved
        anisotropic                    true
        a3                             3.000000
        a5                             4.000000
        cn-shift                       1.200000
        cn-exp                         4.000000
        max-rad                        5.000000

      * Solvation model:               ALPB
        Solvent                        water
        Parameter file                 internal GFN2-xTB/ALPB
        Dielectric constant                8.0200E+01
        Reference state                gsolv [1 M gas/solution]
        Free energy shift                  1.0808E-03 Eh       6.7819E-01 kcal/mol
        Temperature                        2.9815E+02 K
        Density                            1.0000E+00 kg/L
        Solvent mass                       1.8000E+01 g/mol
        Interaction kernel             P16
        Born radius scaling (c1)           1.4744E+00
        Born radii integrator          GBOBC
        Born offset                        0.0000E+00 a0       0.0000E+00 AA
        H-bond correction              true
        Ion screening                  false
        Surface tension                    1.0000E-05 Eh       1.5569E+01 dyn/cm
        Grid points                               230 per atom

          ...................................................
          :                      SETUP                      :
          :.................................................:
          :  # basis functions                 726          :
          :  # atomic orbitals                 720          :
          :  # shells                          392          :
          :  # electrons                       748          :
          :  max. iterations                   250          :
          :  Hamiltonian                  GFN2-xTB          :
          :  restarted?                      false          :
          :  GBSA solvation                   true          :
          :  PC potential                    false          :
          :  electronic temp.          300.0000000     K    :
          :  accuracy                    1.0000000          :
          :  -> integral cutoff          0.2500000E+02      :
          :  -> integral neglect         0.1000000E-07      :
          :  -> SCF convergence          0.1000000E-05 Eh   :
          :  -> wf. convergence          0.1000000E-03 e    :
          :  Broyden damping             0.4000000          :
          ...................................................

 iter      E             dE          RMSdq      gap      omega  full diag
   1   -419.7737367 -0.419774E+03  0.448E+00    0.45       0.0  T
   2   -420.0363229 -0.262586E+00  0.261E+00    0.54       1.0  T
   3   -419.8624792  0.173844E+00  0.124E+00    0.17       1.0  T
   4   -420.1035110 -0.241032E+00  0.415E-01    0.27       1.0  T
   5   -420.1243054 -0.207944E-01  0.153E-01    0.23       1.0  T
   6   -420.1260319 -0.172650E-02  0.673E-02    0.26       1.0  T
   7   -420.1264233 -0.391406E-03  0.265E-02    0.25       1.0  T
   8   -420.1264571 -0.338309E-04  0.142E-02    0.26       1.0  T
   9   -420.1264731 -0.160087E-04  0.651E-03    0.25       1.0  T
  10   -420.1264748 -0.173413E-05  0.307E-03    0.26       2.1  T
  11   -420.1264757 -0.849522E-06  0.166E-03    0.25       3.9  T
  12   -420.1264758 -0.112129E-06  0.883E-04    0.26       7.4  T
  13   -420.1264759 -0.731160E-07  0.376E-04    0.26      17.4  T

   *** convergence criteria satisfied after 13 iterations ***

         #    Occupation            Energy/Eh            Energy/eV
      -------------------------------------------------------------
         1        2.0000           -0.8593371             -23.3838
       ...           ...                  ...                  ...
       368        2.0000           -0.3809740             -10.3668
       369        2.0000           -0.3776553             -10.2765
       370        2.0000           -0.3750813             -10.2065
       371        2.0000           -0.3691909             -10.0462
       372        2.0000           -0.3672684              -9.9939
       373        1.9960           -0.3528937              -9.6027
       374        1.9866           -0.3517381              -9.5713 (HOMO)
       375        0.0152           -0.3423596              -9.3161 (LUMO)
       376        0.0021           -0.3404831              -9.2650
       377                         -0.3282855              -8.9331
       378                         -0.3273127              -8.9066
       379                         -0.3090240              -8.4090
       ...                                ...                  ...
       720                          1.1473226              31.2202
      -------------------------------------------------------------
                  HL-Gap            0.0093785 Eh            0.2552 eV
             Fermi-level           -0.3469867 Eh           -9.4420 eV

 SCC (total)                   0 d,  0 h,  0 min,  0.943 sec
 SCC setup                      ...        0 min,  0.011 sec (  1.127%)
 Dispersion                     ...        0 min,  0.015 sec (  1.546%)
 classical contributions        ...        0 min,  0.001 sec (  0.054%)
 integral evaluation            ...        0 min,  0.050 sec (  5.301%)
 iterations                     ...        0 min,  0.679 sec ( 72.003%)
 molecular gradient             ...        0 min,  0.184 sec ( 19.492%)
 printout                       ...        0 min,  0.004 sec (  0.466%)

         :::::::::::::::::::::::::::::::::::::::::::::::::::::
         ::                     SUMMARY                     ::
         :::::::::::::::::::::::::::::::::::::::::::::::::::::
         :: total energy            -413.956293480530 Eh    ::
         :: total w/o Gsasa/hb      -413.937046773946 Eh    ::
         :: gradient norm              0.046495256620 Eh/a0 ::
         :: HOMO-LUMO gap              0.255201287854 eV    ::
         ::.................................................::
         :: SCC energy              -420.126475866036 Eh    ::
         :: -> isotropic ES            0.341533701307 Eh    ::
         :: -> anisotropic ES          0.004810270987 Eh    ::
         :: -> anisotropic XC          0.199053709615 Eh    ::
         :: -> dispersion             -0.409338598106 Eh    ::
         :: -> Gsolv                  -0.081006831203 Eh    ::
         ::    -> Gelec               -0.061760124618 Eh    ::
         ::    -> Gsasa               -0.008897826021 Eh    ::
         ::    -> Ghb                 -0.011429640262 Eh    ::
         ::    -> Gshift               0.001080759698 Eh    ::
         :: repulsion energy           6.156903388780 Eh    ::
         :: add. restraining           0.000000000000 Eh    ::
         :: total charge               0.000000000000 e     ::
         :::::::::::::::::::::::::::::::::::::::::::::::::::::

           -------------------------------------------------
          |                Property Printout                |
           -------------------------------------------------

    * Orbital Energies and Occupations

         #    Occupation            Energy/Eh            Energy/eV
      -------------------------------------------------------------
         1        2.0000           -0.8593371             -23.3838
       ...           ...                  ...                  ...
       362        2.0000           -0.3948942             -10.7456
       363        2.0000           -0.3934134             -10.7053
       364        2.0000           -0.3929906             -10.6938
       365        2.0000           -0.3928695             -10.6905
       366        2.0000           -0.3881948             -10.5633
       367        2.0000           -0.3859815             -10.5031
       368        2.0000           -0.3809740             -10.3668
       369        2.0000           -0.3776553             -10.2765
       370        2.0000           -0.3750813             -10.2065
       371        2.0000           -0.3691909             -10.0462
       372        2.0000           -0.3672684              -9.9939
       373        1.9960           -0.3528937              -9.6027
       374        1.9866           -0.3517381              -9.5713 (HOMO)
       375        0.0152           -0.3423596              -9.3161 (LUMO)
       376        0.0021           -0.3404831              -9.2650
       377                         -0.3282855              -8.9331
       378                         -0.3273127              -8.9066
       379                         -0.3090240              -8.4090
       380                         -0.3076246              -8.3709
       381                         -0.2898022              -7.8859
       382                         -0.2857086              -7.7745
       383                         -0.2826001              -7.6899
       384                         -0.2612984              -7.1103
       385                         -0.2570806              -6.9955
       ...                                ...                  ...
       720                          1.1473226              31.2202
      -------------------------------------------------------------
                  HL-Gap            0.0093785 Eh            0.2552 eV
             Fermi-level           -0.3469867 Eh           -9.4420 eV

     #   Z          covCN         q      C6AA      α(0)
     1   6 C        2.904     0.002    27.988     8.675
     2   6 C        2.999    -0.019    28.478     8.754
     3   6 C        2.865     0.239    23.018     7.864
     4   8 O        0.856    -0.416    22.014     6.291
     5   6 C        3.056    -0.020    28.441     8.746
     6   6 C        2.904    -0.022    28.548     8.761
     7   6 C        3.260     0.018    26.454     8.311
     8   6 C        3.256     0.019    26.484     8.321
     9   6 C        2.904    -0.031    28.773     8.795
    10   6 C        3.045     0.009    27.776     8.644
    11   6 C        3.016     0.041    27.060     8.533
    12   6 C        2.947     0.010    27.797     8.647
    13   6 C        1.945     0.134    27.803     8.515
    14   7 N        0.911    -0.271    27.015     7.517
    15   6 C        1.947     0.138    27.715     8.502
    16   7 N        0.911    -0.267    26.923     7.504
    17   6 C        4.163    -0.028    20.992     6.507
    18   6 C        4.011    -0.016    20.791     6.477
    19   6 C        2.988    -0.043    29.051     8.841
    20   6 C        2.987    -0.043    29.061     8.843
    21   6 C        4.012    -0.016    20.787     6.477
    22   6 C        3.926    -0.067    21.710     6.622
    23   6 C        4.161    -0.028    20.987     6.506
    24   6 C        2.967    -0.009    28.247     8.718
    25   6 C        2.776     0.161    24.517     8.110
    26   9 F        0.787    -0.211    11.348     3.979
    27   6 C        2.778     0.146    24.820     8.160
    28   9 F        0.787    -0.219    11.435     3.994
    29   6 C        3.006    -0.010    28.250     8.719
    30   6 C        2.970     0.071    26.408     8.429
    31   7 N        1.864    -0.225    26.753     7.667
    32   6 C        2.948     0.093    25.925     8.351
    33   6 C        2.988     0.001    27.996     8.679
    34   6 C        2.926    -0.028    28.688     8.784
    35   6 C        2.919    -0.062    29.539     8.913
    36   6 C        2.857     0.143    24.879     8.175
    37   8 O        1.705    -0.267    18.433     5.797
    38   6 C        3.690     0.072    19.555     6.328
    39   6 C        3.750    -0.129    23.045     6.846
    40   6 C        2.785     0.149    24.760     8.151
    41   6 C        2.919    -0.052    29.286     8.874
    42   9 F        0.787    -0.247    11.733     4.046
    43   6 C        2.945     0.096    25.866     8.341
    44   7 N        1.853    -0.232    26.930     7.691
    45   6 C        2.967     0.072    26.397     8.427
    46   6 C        2.983    -0.001    28.048     8.687
    47   6 C        2.921    -0.038    28.935     8.821
    48   6 C        2.920    -0.068    29.691     8.935
    49   6 C        2.857     0.143    24.888     8.177
    50   8 O        1.705    -0.269    18.455     5.800
    51   6 C        3.690     0.068    19.617     6.338
    52   6 C        3.750    -0.131    23.072     6.850
    53   6 C        2.784     0.152    24.696     8.140
    54   9 F        0.787    -0.248    11.739     4.047
    55   6 C        2.921    -0.047    29.165     8.856
    56   6 C        3.006     0.001    27.989     8.678
    57   6 C        3.061     0.054    26.740     8.480
    58   7 N        2.749    -0.062    22.438     7.035
    59   6 C        2.927     0.058    26.704     8.475
    60   6 C        2.923    -0.045    29.114     8.848
    61   6 C        2.987    -0.039    28.968     8.829
    62   6 C        2.966     0.043    27.037     8.529
    63  16 S        2.036    -0.181   148.738    20.526
    64   6 C        3.744    -0.070    21.913     6.678
    65   6 C        2.942    -0.046    29.152     8.855
    66   6 C        2.923    -0.049    29.212     8.863
    67   6 C        2.924     0.054    26.799     8.489
    68   6 C        2.922    -0.051    29.276     8.873
    69   6 C        2.986    -0.044    29.093     8.848
    70   6 C        2.966     0.044    27.006     8.524
    71  16 S        2.036    -0.202   149.643    20.589
    72   6 C        3.745    -0.059    21.717     6.648
    73   6 C        2.943    -0.040    29.000     8.832
    74   6 C        2.923    -0.047    29.176     8.858
    75   6 C        3.185    -0.001    27.592     8.572
    76  16 S        2.226    -0.001   141.098    19.992
    77   6 C        3.010     0.005    27.883     8.662
    78   6 C        3.066     0.053    26.752     8.481
    79   7 N        2.750    -0.059    22.384     7.027
    80   6 C        2.934     0.054    26.796     8.489
    81   6 C        2.921    -0.046    29.145     8.853
    82   6 C        2.946    -0.040    28.998     8.832
    83   6 C        2.965     0.041    27.088     8.537
    84  16 S        2.029    -0.195   149.331    20.567
    85   6 C        3.744    -0.057    21.665     6.640
    86   6 C        2.977    -0.040    29.000     8.833
    87   6 C        2.923    -0.045    29.119     8.849
    88   6 C        2.919     0.061    26.625     8.462
    89   6 C        2.922    -0.049    29.214     8.864
    90   6 C        2.982    -0.042    29.039     8.839
    91   6 C        2.965     0.043    27.031     8.528
    92  16 S        2.033    -0.184   148.878    20.536
    93   6 C        3.745    -0.056    21.653     6.638
    94   6 C        2.944    -0.044    29.091     8.846
    95   6 C        2.924    -0.052    29.292     8.876
    96   6 C        3.157     0.001    27.704     8.606
    97  16 S        2.264    -0.011   141.526    20.023
    98   6 C        2.992    -0.011    28.274     8.722
    99   6 C        2.784     0.143    24.879     8.170
   100   9 F        0.787    -0.219    11.430     3.994
   101   6 C        2.777     0.160    24.521     8.111
   102   9 F        0.787    -0.216    11.399     3.988
   103   6 C        2.970    -0.011    28.298     8.726
   104   6 C        2.967     0.070    26.439     8.434
   105   7 N        1.857    -0.232    26.924     7.691
   106   6 C        2.946     0.099    25.803     8.331
   107   6 C        2.985     0.003    27.961     8.674
   108   6 C        2.925    -0.031    28.770     8.796
   109   6 C        2.920    -0.065    29.614     8.924
   110   6 C        2.857     0.144    24.872     8.174
   111   8 O        1.705    -0.268    18.446     5.799
   112   6 C        3.690     0.068    19.614     6.338
   113   6 C        3.750    -0.132    23.096     6.854
   114   6 C        2.785     0.151    24.718     8.144
   115   6 C        2.919    -0.047    29.164     8.856
   116   9 F        0.787    -0.252    11.786     4.055
   117   6 C        2.950     0.097    25.858     8.340
   118   7 N        1.855    -0.229    26.858     7.681
   119   6 C        2.966     0.069    26.446     8.435
   120   6 C        2.985    -0.001    28.036     8.685
   121   6 C        2.921    -0.036    28.902     8.816
   122   6 C        2.921    -0.066    29.641     8.928
   123   6 C        2.857     0.145    24.844     8.170
   124   8 O        1.706    -0.266    18.417     5.794
   125   6 C        3.691     0.069    19.608     6.337
   126   6 C        3.750    -0.129    23.036     6.845
   127   6 C        2.785     0.150    24.732     8.146
   128   9 F        0.787    -0.250    11.769     4.052
   129   6 C        2.923    -0.045    29.115     8.849
   130   6 C        2.902    -0.000    28.030     8.681
   131   6 C        3.001    -0.022    28.531     8.762
   132   6 C        2.868     0.237    23.047     7.869
   133   8 O        0.856    -0.417    22.028     6.293
   134   6 C        3.057    -0.021    28.463     8.749
   135   6 C        2.904    -0.023    28.573     8.765
   136   6 C        3.260     0.018    26.449     8.309
   137   6 C        3.256     0.019    26.496     8.324
   138   6 C        2.904    -0.032    28.787     8.798
   139   6 C        3.046     0.008    27.788     8.646
   140   6 C        3.018     0.040    27.084     8.537
   141   6 C        2.947     0.009    27.816     8.650
   142   6 C        1.945     0.131    27.879     8.527
   143   7 N        0.911    -0.263    26.806     7.488
   144   6 C        1.946     0.137    27.740     8.505
   145   7 N        0.911    -0.269    26.967     7.511
   146   6 C        4.163    -0.028    20.987     6.506
   147   6 C        4.011    -0.016    20.790     6.477
   148   6 C        2.987    -0.043    29.061     8.843
   149   6 C        2.987    -0.043    29.065     8.844
   150   6 C        4.011    -0.016    20.787     6.477
   151   6 C        3.927    -0.066    21.703     6.621
   152   6 C        4.161    -0.028    20.984     6.506
   153   1 H        0.925     0.092     1.864     2.135
   154   1 H        0.926     0.066     2.127     2.281
   155   1 H        0.926     0.062     2.173     2.305
   156   1 H        0.925     0.067     2.121     2.277
   157   1 H        0.925     0.047     2.358     2.401
   158   1 H        0.926     0.029     2.593     2.518
   159   1 H        0.926     0.030     2.592     2.518
   160   1 H        0.925     0.047     2.353     2.399
   161   1 H        0.925     0.051     2.310     2.377
   162   1 H        0.925     0.053     2.282     2.362
   163   1 H        0.925     0.068     2.110     2.272
   164   1 H        0.926     0.069     2.101     2.266
   165   1 H        0.926     0.077     2.010     2.217
   166   1 H        0.924     0.072     2.064     2.247
   167   1 H        0.924     0.044     2.400     2.423
   168   1 H        0.925     0.061     2.191     2.315
   169   1 H        0.925     0.056     2.248     2.344
   170   1 H        0.925     0.064     2.154     2.295
   171   1 H        0.926     0.072     2.066     2.248
   172   1 H        0.926     0.066     2.125     2.280
   173   1 H        0.926     0.083     1.953     2.185
   174   1 H        0.924     0.075     2.028     2.227
   175   1 H        0.924     0.052     2.301     2.372
   176   1 H        0.925     0.059     2.216     2.328
   177   1 H        0.925     0.054     2.269     2.356
   178   1 H        0.925     0.068     2.108     2.271
   179   1 H        0.926     0.086     1.919     2.166
   180   1 H        0.926     0.037     2.489     2.467
   181   1 H        0.926     0.046     2.372     2.409
   182   1 H        0.925     0.087     1.904     2.158
   183   1 H        0.925     0.075     2.031     2.229
   184   1 H        0.925     0.074     2.038     2.233
   185   1 H        0.926     0.059     2.209     2.324
   186   1 H        0.926     0.046     2.371     2.408
   187   1 H        0.926     0.041     2.435     2.440
   188   1 H        0.926     0.038     2.477     2.461
   189   1 H        0.925     0.081     1.970     2.195
   190   1 H        0.925     0.065     2.141     2.288
   191   1 H        0.925     0.078     2.001     2.212
   192   1 H        0.926     0.057     2.229     2.335
   193   1 H        0.926     0.048     2.347     2.396
   194   1 H        0.926     0.051     2.302     2.373
   195   1 H        0.926     0.046     2.368     2.406
   196   1 H        0.925     0.062     2.173     2.305
   197   1 H        0.925     0.064     2.150     2.293
   198   1 H        0.925     0.080     1.983     2.202
   199   1 H        0.926     0.049     2.337     2.391
   200   1 H        0.926     0.049     2.338     2.391
   201   1 H        0.926     0.044     2.391     2.418
   202   1 H        0.926     0.053     2.286     2.364
   203   1 H        0.925     0.083     1.948     2.183
   204   1 H        0.925     0.060     2.195     2.317
   205   1 H        0.925     0.066     2.135     2.285
   206   1 H        0.926     0.040     2.450     2.447
   207   1 H        0.926     0.048     2.342     2.393
   208   1 H        0.926     0.089     1.888     2.149
   209   1 H        0.926     0.083     1.946     2.181
   210   1 H        0.924     0.073     2.058     2.244
   211   1 H        0.924     0.050     2.321     2.382
   212   1 H        0.925     0.058     2.217     2.329
   213   1 H        0.925     0.060     2.201     2.320
   214   1 H        0.925     0.066     2.135     2.285
   215   1 H        0.926     0.066     2.130     2.282
   216   1 H        0.926     0.069     2.101     2.267
   217   1 H        0.926     0.082     1.954     2.186
   218   1 H        0.924     0.050     2.322     2.383
   219   1 H        0.924     0.072     2.060     2.245
   220   1 H        0.925     0.057     2.239     2.340
   221   1 H        0.925     0.067     2.115     2.275
   222   1 H        0.925     0.059     2.211     2.325
   223   1 H        0.926     0.073     2.056     2.242
   224   1 H        0.925     0.093     1.848     2.126
   225   1 H        0.926     0.068     2.106     2.270
   226   1 H        0.926     0.063     2.161     2.299
   227   1 H        0.925     0.065     2.140     2.288
   228   1 H        0.925     0.047     2.361     2.403
   229   1 H        0.926     0.032     2.561     2.502
   230   1 H        0.926     0.032     2.561     2.503
   231   1 H        0.925     0.046     2.370     2.407
   232   1 H        0.925     0.050     2.316     2.380
   233   1 H        0.925     0.051     2.305     2.374
   234   1 H        0.925     0.065     2.143     2.289

 Mol. C6AA /au·bohr⁶  :     851759.182436
 Mol. C8AA /au·bohr⁸  :   22652279.758450
 Mol. α(0) /au        :       1459.027896


Wiberg/Mayer (AO) data.
largest (>0.10) Wiberg bond orders for each atom

 ---------------------------------------------------------------------------
     #   Z sym  total        # sym  WBO       # sym  WBO       # sym  WBO
 ---------------------------------------------------------------------------
     1   6 C    3.936 --     2 C    1.639    24 C    1.144   153 H    0.932
     2   6 C    3.948 --     1 C    1.639    11 C    1.103     3 C    1.014
     3   6 C    3.914 --     4 O    1.742     5 C    1.040     2 C    1.014
     4   8 O    2.023 --     3 C    1.742
     5   6 C    3.972 --     6 C    1.377    10 C    1.293     3 C    1.040
     6   6 C    3.982 --     7 C    1.443     5 C    1.377   154 H    0.962
     7   6 C    3.949 --     6 C    1.443     8 C    1.313    23 C    0.999
     8   6 C    3.963 --     9 C    1.454     7 C    1.313    17 C    0.999
     9   6 C    3.977 --     8 C    1.454    10 C    1.357   155 H    0.957
    10   6 C    3.979 --     9 C    1.357     5 C    1.293    11 C    1.105
    11   6 C    3.969 --    12 C    1.494    10 C    1.105     2 C    1.103
    12   6 C    3.958 --    11 C    1.494    13 C    1.097    15 C    1.096
    13   6 C    3.941 --    14 N    2.744    12 C    1.097
    14   7 N    2.961 --    13 C    2.744
    15   6 C    3.942 --    16 N    2.757    12 C    1.096
    16   7 N    2.965 --    15 C    2.757
    17   6 C    3.982 --     8 C    0.999    23 C    0.977   156 H    0.956
                            18 C    0.945
    18   6 C    3.987 --    19 C    1.010    22 C    0.985   157 H    0.971
                            17 C    0.945
    19   6 C    3.987 --    20 C    1.924    18 C    1.010   158 H    0.972
    20   6 C    3.987 --    19 C    1.924    21 C    1.010   159 H    0.971
    21   6 C    3.986 --    20 C    1.010    22 C    0.985   160 H    0.971
                            23 C    0.944
    22   6 C    3.991 --    21 C    0.985    18 C    0.985   162 H    0.976
                           161 H    0.975
    23   6 C    3.981 --     7 C    0.999    17 C    0.977   163 H    0.955
                            21 C    0.944
    24   6 C    3.958 --    25 C    1.388    45 C    1.186     1 C    1.144
    25   6 C    3.852 --    24 C    1.388    27 C    1.284    26 F    0.970
    26   9 F    1.104 --    25 C    0.970
    27   6 C    3.863 --    29 C    1.414    25 C    1.284    28 F    0.961
    28   9 F    1.089 --    27 C    0.961
    29   6 C    3.937 --    27 C    1.414    30 C    1.198    56 C    1.080
    30   6 C    3.972 --    31 N    1.311    45 C    1.231    29 C    1.198
    31   7 N    3.070 --    32 C    1.487    30 C    1.311
    32   6 C    3.960 --    31 N    1.487    43 C    1.185    33 C    1.059
    33   6 C    3.983 --    34 C    1.377    41 C    1.353    32 C    1.059
    34   6 C    3.983 --    35 C    1.457    33 C    1.377   164 H    0.964
    35   6 C    3.982 --    34 C    1.457    36 C    1.353   165 H    0.958
    36   6 C    3.931 --    35 C    1.353    40 C    1.287    37 O    1.102
    37   8 O    2.255 --    36 C    1.102    38 C    0.947
    38   6 C    3.925 --    39 C    1.010   166 H    0.968   167 H    0.967
                            37 O    0.947
    39   6 C    3.987 --    38 C    1.010   170 H    0.985   169 H    0.983
                           168 H    0.982
    40   6 C    3.869 --    41 C    1.450    36 C    1.287    42 F    0.939
    41   6 C    3.980 --    40 C    1.450    33 C    1.353   171 H    0.962
    42   9 F    1.064 --    40 C    0.939
    43   6 C    3.953 --    44 N    1.476    32 C    1.185    46 C    1.069
    44   7 N    3.064 --    43 C    1.476    45 C    1.320
    45   6 C    3.970 --    44 N    1.320    30 C    1.231    24 C    1.186
    46   6 C    3.981 --    47 C    1.374    55 C    1.347    43 C    1.069
    47   6 C    3.980 --    48 C    1.459    46 C    1.374   172 H    0.964
    48   6 C    3.980 --    47 C    1.459    49 C    1.354   173 H    0.958
    49   6 C    3.933 --    48 C    1.354    53 C    1.285    50 O    1.104
    50   8 O    2.254 --    49 C    1.104    51 C    0.946
    51   6 C    3.921 --    52 C    1.010   174 H    0.968   175 H    0.965
                            50 O    0.946
    52   6 C    3.986 --    51 C    1.010   176 H    0.986   177 H    0.983
                           178 H    0.982
    53   6 C    3.866 --    55 C    1.454    49 C    1.285    54 F    0.941
    54   9 F    1.067 --    53 C    0.941
    55   6 C    3.978 --    53 C    1.454    46 C    1.347   179 H    0.956
    56   6 C    3.900 --    57 C    1.441    97 S    1.103    29 C    1.080
    57   6 C    3.957 --    56 C    1.441    75 C    1.206    58 N    1.096
    58   7 N    3.486 --    57 C    1.096    59 C    1.052    67 C    1.044
    59   6 C    3.956 --    66 C    1.367    60 C    1.345    58 N    1.052
    60   6 C    3.983 --    61 C    1.479    59 C    1.345   180 H    0.966
    61   6 C    3.987 --    60 C    1.479    62 C    1.365   181 H    0.966
                            66 C    0.100
    62   6 C    3.950 --    65 C    1.385    61 C    1.365    63 S    1.052
    63  16 S    2.255 --    62 C    1.052    64 C    1.009
    64   6 C    3.965 --    63 S    1.009   183 H    0.979   184 H    0.978
                           182 H    0.973
    65   6 C    3.985 --    66 C    1.453    62 C    1.385   185 H    0.963
    66   6 C    3.978 --    65 C    1.453    59 C    1.367   186 H    0.966
                            61 C    0.100
    67   6 C    3.964 --    74 C    1.376    68 C    1.352    58 N    1.044
    68   6 C    3.985 --    69 C    1.475    67 C    1.352   187 H    0.966
    69   6 C    3.989 --    68 C    1.475    70 C    1.367   188 H    0.968
    70   6 C    3.958 --    73 C    1.388    69 C    1.367    71 S    1.049
    71  16 S    2.251 --    70 C    1.049    72 C    1.007
    72   6 C    3.965 --    71 S    1.007   191 H    0.979   189 H    0.975
                           190 H    0.973
    73   6 C    3.988 --    74 C    1.450    70 C    1.388   192 H    0.962
    74   6 C    3.984 --    73 C    1.450    67 C    1.376   193 H    0.966
    75   6 C    3.933 --    96 C    1.382    57 C    1.206    76 S    1.118
    76  16 S    2.573 --    75 C    1.118    77 C    1.116
    77   6 C    3.908 --    78 C    1.430    76 S    1.116    98 C    1.092
    78   6 C    3.953 --    77 C    1.430    96 C    1.207    79 N    1.092
    79   7 N    3.491 --    78 C    1.092    88 C    1.080    80 C    1.022
    80   6 C    3.962 --    81 C    1.382    87 C    1.363    79 N    1.022
    81   6 C    3.985 --    82 C    1.448    80 C    1.382   194 H    0.965
                            86 C    0.101
    82   6 C    3.989 --    81 C    1.448    83 C    1.392   195 H    0.963
    83   6 C    3.960 --    82 C    1.392    86 C    1.372    84 S    1.041
    84  16 S    2.230 --    83 C    1.041    85 C    1.005
    85   6 C    3.967 --    84 S    1.005   196 H    0.980   198 H    0.976
                           197 H    0.973
    86   6 C    3.989 --    87 C    1.472    83 C    1.372   199 H    0.967
                            81 C    0.101
    87   6 C    3.986 --    86 C    1.472    80 C    1.363   200 H    0.966
    88   6 C    3.958 --    95 C    1.357    89 C    1.336    79 N    1.080
    89   6 C    3.979 --    90 C    1.487    88 C    1.336   201 H    0.965
    90   6 C    3.986 --    89 C    1.487    91 C    1.359   202 H    0.967
    91   6 C    3.944 --    94 C    1.388    90 C    1.359    92 S    1.049
    92  16 S    2.244 --    91 C    1.049    93 C    1.009
    93   6 C    3.969 --    92 S    1.009   204 H    0.980   205 H    0.979
                           203 H    0.974
    94   6 C    3.986 --    95 C    1.451    91 C    1.388   206 H    0.961
    95   6 C    3.978 --    94 C    1.451    88 C    1.357   207 H    0.960
    96   6 C    3.935 --    75 C    1.382    78 C    1.207    97 S    1.124
    97  16 S    2.573 --    96 C    1.124    56 C    1.103
    98   6 C    3.956 --    99 C    1.386   119 C    1.215    77 C    1.092
    99   6 C    3.864 --    98 C    1.386   101 C    1.309   100 F    0.959
   100   9 F    1.085 --    99 C    0.959
   101   6 C    3.857 --   103 C    1.373    99 C    1.309   102 F    0.965
   102   9 F    1.096 --   101 C    0.965
   103   6 C    3.957 --   101 C    1.373   104 C    1.197   130 C    1.139
   104   6 C    3.968 --   105 N    1.314   119 C    1.222   103 C    1.197
   105   7 N    3.069 --   106 C    1.475   104 C    1.314
   106   6 C    3.955 --   105 N    1.475   117 C    1.174   107 C    1.076
   107   6 C    3.980 --   108 C    1.371   115 C    1.343   106 C    1.076
   108   6 C    3.977 --   109 C    1.461   107 C    1.371   208 H    0.957
   109   6 C    3.980 --   108 C    1.461   110 C    1.354   209 H    0.958
   110   6 C    3.930 --   109 C    1.354   114 C    1.284   111 O    1.103
   111   8 O    2.253 --   110 C    1.103   112 C    0.947
   112   6 C    3.923 --   113 C    1.009   210 H    0.968   211 H    0.966
                           111 O    0.947
   113   6 C    3.986 --   112 C    1.009   213 H    0.986   212 H    0.983
                           214 H    0.982
   114   6 C    3.865 --   115 C    1.457   110 C    1.284   116 F    0.937
   115   6 C    3.979 --   114 C    1.457   107 C    1.343   215 H    0.962
   116   9 F    1.060 --   114 C    0.937
   117   6 C    3.956 --   118 N    1.494   106 C    1.174   120 C    1.061
   118   7 N    3.069 --   117 C    1.494   119 C    1.306
   119   6 C    3.971 --   118 N    1.306   104 C    1.222    98 C    1.215
   120   6 C    3.982 --   121 C    1.376   129 C    1.350   117 C    1.061
   121   6 C    3.981 --   122 C    1.459   120 C    1.376   216 H    0.965
   122   6 C    3.981 --   121 C    1.459   123 C    1.352   217 H    0.958
   123   6 C    3.934 --   122 C    1.352   127 C    1.287   124 O    1.106
   124   8 O    2.258 --   123 C    1.106   125 C    0.946
   125   6 C    3.922 --   126 C    1.009   219 H    0.968   218 H    0.966
                           124 O    0.946
   126   6 C    3.986 --   125 C    1.009   222 H    0.984   220 H    0.983
                           221 H    0.982
   127   6 C    3.866 --   129 C    1.452   123 C    1.287   128 F    0.936
   128   9 F    1.062 --   127 C    0.936
   129   6 C    3.982 --   127 C    1.452   120 C    1.350   223 H    0.962
   130   6 C    3.934 --   131 C    1.638   103 C    1.139   224 H    0.936
   131   6 C    3.963 --   130 C    1.638   140 C    1.106   132 C    1.008
   132   6 C    3.913 --   133 O    1.748   134 C    1.040   131 C    1.008
   133   8 O    2.023 --   132 C    1.748
   134   6 C    3.972 --   135 C    1.377   139 C    1.292   132 C    1.040
   135   6 C    3.982 --   136 C    1.443   134 C    1.377   225 H    0.962
   136   6 C    3.949 --   135 C    1.443   137 C    1.314   152 C    0.999
   137   6 C    3.963 --   138 C    1.453   136 C    1.314   146 C    0.999
   138   6 C    3.977 --   137 C    1.453   139 C    1.358   226 H    0.958
   139   6 C    3.981 --   138 C    1.358   134 C    1.292   140 C    1.103
   140   6 C    3.967 --   141 C    1.489   131 C    1.106   139 C    1.103
   141   6 C    3.955 --   140 C    1.489   142 C    1.099   144 C    1.097
   142   6 C    3.942 --   143 N    2.747   141 C    1.099
   143   7 N    2.963 --   142 C    2.747
   144   6 C    3.942 --   145 N    2.757   141 C    1.097
   145   7 N    2.964 --   144 C    2.757
   146   6 C    3.982 --   137 C    0.999   152 C    0.977   227 H    0.956
                           147 C    0.945
   147   6 C    3.987 --   148 C    1.010   151 C    0.985   228 H    0.971
                           146 C    0.945
   148   6 C    3.987 --   149 C    1.924   147 C    1.010   229 H    0.971
   149   6 C    3.987 --   148 C    1.924   150 C    1.010   230 H    0.971
   150   6 C    3.986 --   149 C    1.010   151 C    0.985   231 H    0.971
                           152 C    0.944
   151   6 C    3.991 --   150 C    0.985   147 C    0.985   233 H    0.977
                           232 H    0.975
   152   6 C    3.981 --   136 C    0.999   146 C    0.977   234 H    0.955
                           150 C    0.944
   153   1 H    0.990 --     1 C    0.932
   154   1 H    0.995 --     6 C    0.962
   155   1 H    0.996 --     9 C    0.957
   156   1 H    0.994 --    17 C    0.956
   157   1 H    0.998 --    18 C    0.971
   158   1 H    0.999 --    19 C    0.972
   159   1 H    0.999 --    20 C    0.971
   160   1 H    0.997 --    21 C    0.971
   161   1 H    0.995 --    22 C    0.975
   162   1 H    0.997 --    22 C    0.976
   163   1 H    0.993 --    23 C    0.955
   164   1 H    0.995 --    34 C    0.964
   165   1 H    0.994 --    35 C    0.958
   166   1 H    0.994 --    38 C    0.968
   167   1 H    0.998 --    38 C    0.967
   168   1 H    0.996 --    39 C    0.982
   169   1 H    0.997 --    39 C    0.983
   170   1 H    0.996 --    39 C    0.985
   171   1 H    0.994 --    41 C    0.962
   172   1 H    0.996 --    47 C    0.964
   173   1 H    0.992 --    48 C    0.958
   174   1 H    0.994 --    51 C    0.968
   175   1 H    0.997 --    51 C    0.965
   176   1 H    0.997 --    52 C    0.986
   177   1 H    0.997 --    52 C    0.983
   178   1 H    0.995 --    52 C    0.982
   179   1 H    0.992 --    55 C    0.956
   180   1 H    0.998 --    60 C    0.966
   181   1 H    0.997 --    61 C    0.966
   182   1 H    0.992 --    64 C    0.973
   183   1 H    0.994 --    64 C    0.979
   184   1 H    0.993 --    64 C    0.978
   185   1 H    0.996 --    65 C    0.963
   186   1 H    0.998 --    66 C    0.966
   187   1 H    0.998 --    68 C    0.966
   188   1 H    0.998 --    69 C    0.968
   189   1 H    0.993 --    72 C    0.975
   190   1 H    0.996 --    72 C    0.973
   191   1 H    0.994 --    72 C    0.979
   192   1 H    0.996 --    73 C    0.962
   193   1 H    0.998 --    74 C    0.966
   194   1 H    0.997 --    81 C    0.965
   195   1 H    0.997 --    82 C    0.963
   196   1 H    0.996 --    85 C    0.980
   197   1 H    0.996 --    85 C    0.973
   198   1 H    0.993 --    85 C    0.976
   199   1 H    0.997 --    86 C    0.967
   200   1 H    0.997 --    87 C    0.966
   201   1 H    0.998 --    89 C    0.965
   202   1 H    0.997 --    90 C    0.967
   203   1 H    0.993 --    93 C    0.974
   204   1 H    0.995 --    93 C    0.980
   205   1 H    0.995 --    93 C    0.979
   206   1 H    0.998 --    94 C    0.961
   207   1 H    0.998 --    95 C    0.960
   208   1 H    0.992 --   108 C    0.957
   209   1 H    0.993 --   109 C    0.958
   210   1 H    0.994 --   112 C    0.968
   211   1 H    0.997 --   112 C    0.966
   212   1 H    0.997 --   113 C    0.983
   213   1 H    0.996 --   113 C    0.986
   214   1 H    0.995 --   113 C    0.982
   215   1 H    0.995 --   115 C    0.962
   216   1 H    0.995 --   121 C    0.965
   217   1 H    0.993 --   122 C    0.958
   218   1 H    0.997 --   125 C    0.966
   219   1 H    0.994 --   125 C    0.968
   220   1 H    0.997 --   126 C    0.983
   221   1 H    0.995 --   126 C    0.982
   222   1 H    0.997 --   126 C    0.984
   223   1 H    0.994 --   129 C    0.962
   224   1 H    0.989 --   130 C    0.936
   225   1 H    0.995 --   135 C    0.962
   226   1 H    0.996 --   138 C    0.958
   227   1 H    0.994 --   146 C    0.956
   228   1 H    0.998 --   147 C    0.971
   229   1 H    0.999 --   148 C    0.971
   230   1 H    0.999 --   149 C    0.971
   231   1 H    0.998 --   150 C    0.971
   232   1 H    0.995 --   151 C    0.975
   233   1 H    0.997 --   151 C    0.977
   234   1 H    0.993 --   152 C    0.955
 ---------------------------------------------------------------------------

Topologies differ in bond orders
Writing corrected topology to xtbtopo.mol

molecular dipole:
                 x           y           z       tot (Debye)
 q only:        0.730       7.175       1.246
   full:        1.202       6.920       1.102      18.071
molecular quadrupole (traceless):
                xx          xy          yy          xz          yz          zz
 q only:       97.096     -58.446     -77.374     120.367     -38.636     -19.721
  q+dip:      104.071     -50.755     -76.644     135.490     -56.738     -27.427
   full:      107.313     -35.207     -72.712     131.665     -64.120     -34.601


           -------------------------------------------------
          | TOTAL ENERGY             -413.956293480530 Eh   |
          | GRADIENT NORM               0.046495256620 Eh/α |
          | HOMO-LUMO GAP               0.255201287854 eV   |
           -------------------------------------------------

------------------------------------------------------------------------
 * finished run on 2022/02/06 at 15:40:49.734     
------------------------------------------------------------------------
 total:
 * wall-time:     0 d,  0 h,  0 min,  1.065 sec
 *  cpu-time:     0 d,  0 h,  0 min,  8.407 sec
 * ratio c/w:     7.894 speedup
 SCF:
 * wall-time:     0 d,  0 h,  0 min,  0.946 sec
 *  cpu-time:     0 d,  0 h,  0 min,  7.548 sec
 * ratio c/w:     7.978 speedup

