      -----------------------------------------------------------      
     |                   =====================                   |     
     |                           x T B                           |     
     |                   =====================                   |     
     |                         S. Grimme                         |     
     |          Mulliken Center for Theoretical Chemistry        |     
     |                    University of Bonn                     |     
      -----------------------------------------------------------      

   * xtb version 6.4.1 (unknown) compiled by 'oda6@login1.crc.pitt.edu' on 2021-06-25

   xtb is free software: you can redistribute it and/or modify it under
   the terms of the GNU Lesser General Public License as published by
   the Free Software Foundation, either version 3 of the License, or
   (at your option) any later version.
   
   xtb is distributed in the hope that it will be useful,
   but WITHOUT ANY WARRANTY; without even the implied warranty of
   MERCHANTABILITY or FITNESS FOR A PARTICULAR PURPOSE.  See the
   GNU Lesser General Public License for more details.
   
   Cite this work as:
   * C. Bannwarth, E. Caldeweyher, S. Ehlert, A. Hansen, P. Pracht,
     J. Seibert, S. Spicher, S. Grimme, WIREs Comput. Mol. Sci., 2020, 11,
     e01493. DOI: 10.1002/wcms.1493
   
   for GFN2-xTB:
   * C. Bannwarth, S. Ehlert and S. Grimme., J. Chem. Theory Comput., 2019,
     15, 1652-1671. DOI: 10.1021/acs.jctc.8b01176
   for GFN1-xTB:
   * S. Grimme, C. Bannwarth, P. Shushkov, J. Chem. Theory Comput., 2017,
     13, 1989-2009. DOI: 10.1021/acs.jctc.7b00118
   for GFN0-xTB:
   * P. Pracht, E. Caldeweyher, S. Ehlert, S. Grimme, ChemRxiv, 2019, preprint.
     DOI: 10.26434/chemrxiv.8326202.v1
   for GFN-FF:
   * S. Spicher and S. Grimme, Angew. Chem. Int. Ed., 2020, 59, 15665-15673.
     DOI: 10.1002/anie.202004239
   
   for DFT-D4:
   * E. Caldeweyher, C. Bannwarth and S. Grimme, J. Chem. Phys., 2017,
     147, 034112. DOI: 10.1063/1.4993215
   * E. Caldeweyher, S. Ehlert, A. Hansen, H. Neugebauer, S. Spicher,
     C. Bannwarth and S. Grimme, J. Chem. Phys., 2019, 150, 154122.
     DOI: 10.1063/1.5090222
   * E. Caldeweyher, J.-M. Mewes, S. Ehlert and S. Grimme, Phys. Chem. Chem. Phys.
     2020, 22, 8499-8512. DOI: 10.1039/D0CP00502A
   
   for sTDA-xTB:
   * S. Grimme and C. Bannwarth, J. Chem. Phys., 2016, 145, 054103.
     DOI: 10.1063/1.4959605
   
   in the mass-spec context:
   * V. Asgeirsson, C. Bauer and S. Grimme, Chem. Sci., 2017, 8, 4879.
     DOI: 10.1039/c7sc00601b
   * J. Koopman and S. Grimme, ACS Omega 2019, 4, 12, 15120-15133.
     DOI: 10.1021/acsomega.9b02011
   
   for metadynamics refer to:
   * S. Grimme, J. Chem. Theory Comput., 2019, 155, 2847-2862
     DOI: 10.1021/acs.jctc.9b00143
   
   for SPH calculations refer to:
   * S. Spicher and S. Grimme, J. Chem. Theory Comput., 2021, 17, 1701-1714
     DOI: 10.1021/acs.jctc.0c01306
   
   with help from (in alphabetical order)
   P. Atkinson, C. Bannwarth, F. Bohle, G. Brandenburg, E. Caldeweyher
   M. Checinski, S. Dohm, S. Ehlert, S. Ehrlich, I. Gerasimov, J. Koopman
   C. Lavigne, S. Lehtola, F. März, M. Müller, F. Musil, H. Neugebauer
   J. Pisarek, C. Plett, P. Pracht, J. Seibert, P. Shushkov, S. Spicher
   M. Stahn, M. Steiner, T. Strunk, J. Stückrath, T. Rose, and J. Unsleber
   
 * started run on 2022/02/03 at 20:40:46.439     

           -------------------------------------------------
          |                Calculation Setup                |
           -------------------------------------------------

          program call               : /ihome/ghutchison/oda6/xtb/xtb-641/bin/xtb ../../GFN2_output/46_161_130_161_65.mol --sp --alpb water
          hostname                   : smp-n57
          coordinate file            : ../../GFN2_output/46_161_130_161_65.mol
          omp threads                :                     8
          number of atoms            :                   199
          number of electrons        :                   642
          charge                     :                     0
          spin                       :                   0.0
          first test random number   :      0.83528759190787

   ID    Z sym.   atoms
    1    6 C      1-3, 5-14, 16, 18-27, 29-37, 39, 41, 42, 44, 45, 47-50,
                  52-58, 60-63, 65, 66, 68-71, 73-79, 81-84, 86-95, 97-105,
                  107, 109, 110, 112-114, 116, 117, 119, 121, 123, 125-128,
                  130
    2    8 O      4, 115
    3    7 N      15, 17, 46, 67, 129, 131
    4   16 S      28, 38, 40, 43, 51, 59, 64, 72, 80, 85, 96, 106, 108, 111
    5   17 Cl     118, 120, 122, 124
    6    1 H      132-199

           -------------------------------------------------
          |                 G F N 2 - x T B                 |
           -------------------------------------------------

        Reference                      10.1021/acs.jctc.8b01176
      * Hamiltonian:
        H0-scaling (s, p, d)           1.850000    2.230000    2.230000
        zeta-weighting                 0.500000
      * Dispersion:
        s8                             2.700000
        a1                             0.520000
        a2                             5.000000
        s9                             5.000000
      * Repulsion:
        kExp                           1.500000    1.000000
        rExp                           1.000000
      * Coulomb:
        alpha                          2.000000
        third order                    shell-resolved
        anisotropic                    true
        a3                             3.000000
        a5                             4.000000
        cn-shift                       1.200000
        cn-exp                         4.000000
        max-rad                        5.000000

      * Solvation model:               ALPB
        Solvent                        water
        Parameter file                 internal GFN2-xTB/ALPB
        Dielectric constant                8.0200E+01
        Reference state                gsolv [1 M gas/solution]
        Free energy shift                  1.0808E-03 Eh       6.7819E-01 kcal/mol
        Temperature                        2.9815E+02 K
        Density                            1.0000E+00 kg/L
        Solvent mass                       1.8000E+01 g/mol
        Interaction kernel             P16
        Born radius scaling (c1)           1.4744E+00
        Born radii integrator          GBOBC
        Born offset                        0.0000E+00 a0       0.0000E+00 AA
        H-bond correction              true
        Ion screening                  false
        Surface tension                    1.0000E-05 Eh       1.5569E+01 dyn/cm
        Grid points                               230 per atom

          ...................................................
          :                      SETUP                      :
          :.................................................:
          :  # basis functions                 700          :
          :  # atomic orbitals                 682          :
          :  # shells                          348          :
          :  # electrons                       642          :
          :  max. iterations                   250          :
          :  Hamiltonian                  GFN2-xTB          :
          :  restarted?                      false          :
          :  GBSA solvation                   true          :
          :  PC potential                    false          :
          :  electronic temp.          300.0000000     K    :
          :  accuracy                    1.0000000          :
          :  -> integral cutoff          0.2500000E+02      :
          :  -> integral neglect         0.1000000E-07      :
          :  -> SCF convergence          0.1000000E-05 Eh   :
          :  -> wf. convergence          0.1000000E-03 e    :
          :  Broyden damping             0.4000000          :
          ...................................................

 iter      E             dE          RMSdq      gap      omega  full diag
   1   -353.8726798 -0.353873E+03  0.463E+00    0.29       0.0  T
   2   -354.0973310 -0.224651E+00  0.265E+00    0.59       1.0  T
   3   -353.7952671  0.302064E+00  0.139E+00    0.05       1.0  T
   4   -354.1107749 -0.315508E+00  0.692E-01    0.64       1.0  T
   5   -354.1761567 -0.653818E-01  0.289E-01    0.55       1.0  T
   6   -354.1809501 -0.479341E-02  0.154E-01    0.39       1.0  T
   7   -354.1825653 -0.161516E-02  0.854E-02    0.26       1.0  T
   8   -354.1827426 -0.177268E-03  0.537E-02    0.25       1.0  T
   9   -354.1829051 -0.162496E-03  0.365E-02    0.23       1.0  T
  10   -354.1829776 -0.725186E-04  0.224E-02    0.26       1.0  T
  11   -354.1830075 -0.298962E-04  0.141E-02    0.25       1.0  T
  12   -354.1830205 -0.130603E-04  0.781E-03    0.26       1.0  T
  13   -354.1830251 -0.453923E-05  0.458E-03    0.26       1.5  T
  14   -354.1830264 -0.131445E-05  0.277E-03    0.26       2.6  T
  15   -354.1830268 -0.401456E-06  0.182E-03    0.26       3.9  T
  16   -354.1830270 -0.224532E-06  0.119E-03    0.26       6.0  T
  17   -354.1830271 -0.108164E-06  0.725E-04    0.26       9.8  T
  18   -354.1830272 -0.371487E-07  0.507E-04    0.26      14.0  T

   *** convergence criteria satisfied after 18 iterations ***

         #    Occupation            Energy/Eh            Energy/eV
      -------------------------------------------------------------
         1        2.0000           -1.0886116             -29.6226
       ...           ...                  ...                  ...
       315        2.0000           -0.3745164             -10.1911
       316        2.0000           -0.3651762              -9.9369
       317        2.0000           -0.3650278              -9.9329
       318        2.0000           -0.3640419              -9.9061
       319        2.0000           -0.3623689              -9.8606
       320        1.9971           -0.3520164              -9.5789
       321        1.9886           -0.3507036              -9.5431 (HOMO)
       322        0.0143           -0.3411183              -9.2823 (LUMO)
       323        0.0000           -0.3328383              -9.0570
       324        0.0000           -0.3312573              -9.0140
       325                         -0.3178403              -8.6489
       326                         -0.3004440              -8.1755
       ...                                ...                  ...
       682                          1.1504878              31.3064
      -------------------------------------------------------------
                  HL-Gap            0.0095853 Eh            0.2608 eV
             Fermi-level           -0.3458035 Eh           -9.4098 eV

 SCC (total)                   0 d,  0 h,  0 min,  1.027 sec
 SCC setup                      ...        0 min,  0.007 sec (  0.656%)
 Dispersion                     ...        0 min,  0.014 sec (  1.399%)
 classical contributions        ...        0 min,  0.000 sec (  0.037%)
 integral evaluation            ...        0 min,  0.058 sec (  5.626%)
 iterations                     ...        0 min,  0.809 sec ( 78.716%)
 molecular gradient             ...        0 min,  0.132 sec ( 12.813%)
 printout                       ...        0 min,  0.008 sec (  0.744%)

         :::::::::::::::::::::::::::::::::::::::::::::::::::::
         ::                     SUMMARY                     ::
         :::::::::::::::::::::::::::::::::::::::::::::::::::::
         :: total energy            -348.830917536706 Eh    ::
         :: total w/o Gsasa/hb      -348.813438727729 Eh    ::
         :: gradient norm              0.035124502010 Eh/a0 ::
         :: HOMO-LUMO gap              0.260829611470 eV    ::
         ::.................................................::
         :: SCC energy              -354.183027166610 Eh    ::
         :: -> isotropic ES            0.155859543969 Eh    ::
         :: -> anisotropic ES          0.013959651205 Eh    ::
         :: -> anisotropic XC          0.200679073500 Eh    ::
         :: -> dispersion             -0.374061490603 Eh    ::
         :: -> Gsolv                  -0.051657219961 Eh    ::
         ::    -> Gelec               -0.034178410984 Eh    ::
         ::    -> Gsasa               -0.011514942242 Eh    ::
         ::    -> Ghb                 -0.007044626434 Eh    ::
         ::    -> Gshift               0.001080759698 Eh    ::
         :: repulsion energy           5.345930767346 Eh    ::
         :: add. restraining           0.000000000000 Eh    ::
         :: total charge               0.000000000013 e     ::
         :::::::::::::::::::::::::::::::::::::::::::::::::::::

           -------------------------------------------------
          |                Property Printout                |
           -------------------------------------------------

    * Orbital Energies and Occupations

         #    Occupation            Energy/Eh            Energy/eV
      -------------------------------------------------------------
         1        2.0000           -1.0886116             -29.6226
       ...           ...                  ...                  ...
       309        2.0000           -0.3944964             -10.7348
       310        2.0000           -0.3931560             -10.6983
       311        2.0000           -0.3875061             -10.5446
       312        2.0000           -0.3864709             -10.5164
       313        2.0000           -0.3848416             -10.4721
       314        2.0000           -0.3822919             -10.4027
       315        2.0000           -0.3745164             -10.1911
       316        2.0000           -0.3651762              -9.9369
       317        2.0000           -0.3650278              -9.9329
       318        2.0000           -0.3640419              -9.9061
       319        2.0000           -0.3623689              -9.8606
       320        1.9971           -0.3520164              -9.5789
       321        1.9886           -0.3507036              -9.5431 (HOMO)
       322        0.0143           -0.3411183              -9.2823 (LUMO)
       323        0.0000           -0.3328383              -9.0570
       324        0.0000           -0.3312573              -9.0140
       325                         -0.3178403              -8.6489
       326                         -0.3004440              -8.1755
       327                         -0.2896268              -7.8811
       328                         -0.2794030              -7.6029
       329                         -0.2743754              -7.4661
       330                         -0.2649616              -7.2100
       331                         -0.2621328              -7.1330
       332                         -0.2560289              -6.9669
       ...                                ...                  ...
       682                          1.1504878              31.3064
      -------------------------------------------------------------
                  HL-Gap            0.0095853 Eh            0.2608 eV
             Fermi-level           -0.3458035 Eh           -9.4098 eV

     #   Z          covCN         q      C6AA      α(0)
     1   6 C        2.955    -0.012    28.308     8.727
     2   6 C        2.999    -0.037    28.915     8.821
     3   6 C        2.865     0.230    23.178     7.892
     4   8 O        0.856    -0.431    22.309     6.333
     5   6 C        3.045    -0.025    28.581     8.768
     6   6 C        2.911    -0.019    28.471     8.749
     7   6 C        2.926    -0.035    28.861     8.810
     8   6 C        2.967     0.039    27.129     8.543
     9   6 C        3.759    -0.135    23.145     6.859
    10   6 C        2.919    -0.036    28.896     8.815
    11   6 C        3.028     0.006    27.864     8.658
    12   6 C        3.019     0.037    27.155     8.548
    13   6 C        2.947     0.000    28.021     8.682
    14   6 C        1.953     0.131    27.865     8.525
    15   7 N        0.911    -0.289    27.437     7.576
    16   6 C        1.956     0.136    27.763     8.509
    17   7 N        0.911    -0.284    27.325     7.560
    18   6 C        2.977     0.035    27.215     8.557
    19   6 C        3.059    -0.039    28.920     8.819
    20   6 C        3.133    -0.002    27.860     8.640
    21   6 C        3.008    -0.001    28.025     8.684
    22   6 C        2.991     0.016    27.633     8.623
    23   6 C        3.112    -0.050    29.074     8.833
    24   6 C        3.115    -0.059    29.296     8.866
    25   6 C        2.985     0.032    27.285     8.568
    26   6 C        3.830    -0.062    21.664     6.623
    27   6 C        3.753    -0.116    22.773     6.805
    28  16 S        2.363    -0.056   143.363    20.152
    29   6 C        3.006     0.021    27.524     8.606
    30   6 C        3.138     0.002    27.759     8.623
    31   6 C        3.013    -0.008    28.209     8.712
    32   6 C        2.993     0.015    27.656     8.627
    33   6 C        3.110    -0.053    29.152     8.846
    34   6 C        3.116    -0.058    29.260     8.860
    35   6 C        2.987     0.032    27.274     8.567
    36   6 C        3.826    -0.061    21.648     6.621
    37   6 C        3.754    -0.109    22.641     6.785
    38  16 S        2.397    -0.057   143.416    20.156
    39   6 C        3.004     0.029    27.345     8.578
    40  16 S        2.340    -0.069   143.933    20.192
    41   6 C        3.078    -0.058    29.346     8.881
    42   6 C        3.036     0.033    27.223     8.558
    43  16 S        2.271    -0.066   143.801    20.183
    44   6 C        3.018    -0.003    28.083     8.693
    45   6 C        3.054     0.050    26.834     8.495
    46   7 N        2.748    -0.058    22.361     7.023
    47   6 C        2.924     0.060    26.656     8.467
    48   6 C        2.924    -0.046    29.153     8.854
    49   6 C        2.942    -0.042    29.052     8.840
    50   6 C        2.965     0.046    26.971     8.518
    51  16 S        2.033    -0.200   149.578    20.584
    52   6 C        3.744    -0.061    21.755     6.654
    53   6 C        2.983    -0.041    29.008     8.835
    54   6 C        2.921    -0.046    29.132     8.851
    55   6 C        2.938     0.059    26.681     8.471
    56   6 C        2.921    -0.042    29.052     8.839
    57   6 C        2.977    -0.040    28.988     8.832
    58   6 C        2.966     0.049    26.898     8.507
    59  16 S        2.030    -0.191   149.161    20.556
    60   6 C        3.744    -0.055    21.641     6.636
    61   6 C        2.946    -0.042    29.033     8.837
    62   6 C        2.926    -0.044    29.085     8.844
    63   6 C        3.187     0.005    27.441     8.547
    64  16 S        2.458    -0.062   143.627    20.171
    65   6 C        3.047    -0.005    28.098     8.694
    66   6 C        3.045     0.049    26.861     8.500
    67   7 N        2.748    -0.055    22.298     7.013
    68   6 C        2.920     0.058    26.703     8.474
    69   6 C        2.923    -0.047    29.167     8.857
    70   6 C        2.978    -0.038    28.936     8.824
    71   6 C        2.966     0.045    26.986     8.521
    72  16 S        2.034    -0.184   148.877    20.536
    73   6 C        3.745    -0.059    21.702     6.645
    74   6 C        2.945    -0.042    29.054     8.841
    75   6 C        2.922    -0.048    29.199     8.861
    76   6 C        2.936     0.057    26.722     8.478
    77   6 C        2.922    -0.043    29.076     8.843
    78   6 C        2.944    -0.044    29.093     8.846
    79   6 C        2.966     0.048    26.913     8.509
    80  16 S        2.036    -0.184   148.873    20.536
    81   6 C        3.744    -0.061    21.749     6.653
    82   6 C        2.985    -0.041    29.006     8.834
    83   6 C        2.923    -0.042    29.038     8.837
    84   6 C        3.186     0.005    27.449     8.549
    85  16 S        2.300    -0.062   143.630    20.171
    86   6 C        3.046     0.035    27.180     8.551
    87   6 C        3.065    -0.059    29.389     8.890
    88   6 C        3.141     0.002    27.739     8.618
    89   6 C        3.018    -0.006    28.153     8.704
    90   6 C        2.991     0.013    27.719     8.636
    91   6 C        3.113    -0.053    29.155     8.845
    92   6 C        3.117    -0.061    29.328     8.870
    93   6 C        2.985     0.033    27.256     8.564
    94   6 C        3.831    -0.062    21.661     6.622
    95   6 C        3.753    -0.112    22.711     6.796
    96  16 S        2.432    -0.052   143.212    20.142
    97   6 C        3.007     0.028    27.369     8.582
    98   6 C        3.134     0.000    27.798     8.630
    99   6 C        3.010    -0.001    28.038     8.686
   100   6 C        2.991     0.017    27.622     8.621
   101   6 C        3.113    -0.047    29.001     8.822
   102   6 C        3.113    -0.056    29.214     8.854
   103   6 C        2.987     0.029    27.346     8.578
   104   6 C        3.825    -0.061    21.651     6.621
   105   6 C        3.754    -0.102    22.514     6.766
   106  16 S        2.353    -0.059   143.484    20.161
   107   6 C        3.006     0.025    27.434     8.592
   108  16 S        2.458    -0.074   144.115    20.205
   109   6 C        3.067    -0.033    28.762     8.794
   110   6 C        2.979     0.035    27.213     8.557
   111  16 S        2.349    -0.033   142.413    20.085
   112   6 C        2.948    -0.009    28.230     8.714
   113   6 C        3.011    -0.032    28.788     8.801
   114   6 C        2.875     0.244    22.926     7.849
   115   8 O        0.856    -0.397    21.612     6.233
   116   6 C        3.077    -0.027    28.597     8.767
   117   6 C        2.912     0.101    25.761     8.323
   118  17 Cl       0.992    -0.087   101.887    15.443
   119   6 C        2.959     0.084    26.136     8.385
   120  17 Cl       1.032    -0.082   101.716    15.430
   121   6 C        2.963     0.086    26.078     8.376
   122  17 Cl       1.052    -0.079   101.642    15.424
   123   6 C        2.915     0.091    25.987     8.359
   124  17 Cl       1.009    -0.091   101.997    15.451
   125   6 C        3.060     0.006    27.833     8.652
   126   6 C        3.020     0.049    26.872     8.503
   127   6 C        2.948     0.015    27.688     8.630
   128   6 C        1.948     0.135    27.773     8.511
   129   7 N        0.911    -0.270    26.982     7.513
   130   6 C        1.949     0.137    27.747     8.507
   131   7 N        0.911    -0.264    26.827     7.491
   132   1 H        0.925     0.065     2.143     2.289
   133   1 H        0.926     0.066     2.134     2.285
   134   1 H        0.926     0.074     2.043     2.235
   135   1 H        0.925     0.062     2.173     2.305
   136   1 H        0.924     0.082     1.962     2.190
   137   1 H        0.925     0.075     2.031     2.229
   138   1 H        0.926     0.054     2.271     2.357
   139   1 H        0.926     0.094     1.844     2.123
   140   1 H        0.926     0.043     2.403     2.424
   141   1 H        0.926     0.053     2.280     2.361
   142   1 H        0.924     0.061     2.182     2.310
   143   1 H        0.924     0.059     2.214     2.327
   144   1 H        0.925     0.049     2.337     2.390
   145   1 H        0.925     0.048     2.349     2.397
   146   1 H        0.925     0.052     2.298     2.370
   147   1 H        0.926     0.042     2.419     2.432
   148   1 H        0.926     0.045     2.378     2.412
   149   1 H        0.924     0.056     2.244     2.342
   150   1 H        0.924     0.055     2.261     2.352
   151   1 H        0.925     0.043     2.404     2.425
   152   1 H        0.925     0.050     2.317     2.380
   153   1 H        0.925     0.047     2.352     2.398
   154   1 H        0.926     0.058     2.228     2.334
   155   1 H        0.926     0.052     2.293     2.368
   156   1 H        0.926     0.057     2.237     2.339
   157   1 H        0.925     0.079     1.992     2.207
   158   1 H        0.925     0.071     2.079     2.255
   159   1 H        0.925     0.074     2.045     2.236
   160   1 H        0.926     0.044     2.394     2.420
   161   1 H        0.926     0.034     2.525     2.485
   162   1 H        0.926     0.048     2.341     2.393
   163   1 H        0.926     0.055     2.264     2.353
   164   1 H        0.925     0.064     2.153     2.294
   165   1 H        0.925     0.071     2.071     2.251
   166   1 H        0.925     0.070     2.087     2.259
   167   1 H        0.926     0.055     2.257     2.349
   168   1 H        0.926     0.045     2.379     2.412
   169   1 H        0.926     0.048     2.348     2.396
   170   1 H        0.926     0.052     2.299     2.371
   171   1 H        0.925     0.067     2.120     2.277
   172   1 H        0.925     0.080     1.978     2.200
   173   1 H        0.925     0.061     2.185     2.311
   174   1 H        0.926     0.049     2.334     2.389
   175   1 H        0.926     0.037     2.491     2.468
   176   1 H        0.926     0.051     2.307     2.375
   177   1 H        0.926     0.058     2.222     2.331
   178   1 H        0.925     0.066     2.134     2.285
   179   1 H        0.925     0.082     1.961     2.190
   180   1 H        0.925     0.075     2.030     2.228
   181   1 H        0.926     0.051     2.312     2.378
   182   1 H        0.926     0.042     2.418     2.431
   183   1 H        0.926     0.054     2.276     2.359
   184   1 H        0.926     0.038     2.469     2.457
   185   1 H        0.926     0.050     2.324     2.384
   186   1 H        0.924     0.060     2.204     2.322
   187   1 H        0.924     0.065     2.146     2.291
   188   1 H        0.925     0.044     2.398     2.421
   189   1 H        0.925     0.045     2.388     2.417
   190   1 H        0.925     0.050     2.314     2.379
   191   1 H        0.926     0.048     2.346     2.395
   192   1 H        0.926     0.052     2.296     2.369
   193   1 H        0.924     0.062     2.181     2.310
   194   1 H        0.924     0.057     2.233     2.337
   195   1 H        0.925     0.042     2.420     2.433
   196   1 H        0.925     0.033     2.547     2.496
   197   1 H        0.925     0.050     2.318     2.381
   198   1 H        0.926     0.059     2.208     2.324
   199   1 H        0.925     0.096     1.821     2.110

 Mol. C6AA /au·bohr⁶  :     803421.535458
 Mol. C8AA /au·bohr⁸  :   24157154.636027
 Mol. α(0) /au        :       1444.673649


Wiberg/Mayer (AO) data.
largest (>0.10) Wiberg bond orders for each atom

 ---------------------------------------------------------------------------
     #   Z sym  total        # sym  WBO       # sym  WBO       # sym  WBO
 ---------------------------------------------------------------------------
     1   6 C    3.934 --     2 C    1.524    18 C    1.262   132 H    0.941
     2   6 C    3.944 --     1 C    1.524    12 C    1.138     3 C    1.039
     3   6 C    3.911 --     4 O    1.714     2 C    1.039     5 C    1.036
     4   8 O    2.013 --     3 C    1.714
     5   6 C    3.976 --     6 C    1.406    11 C    1.285     3 C    1.036
     6   6 C    3.981 --     7 C    1.439     5 C    1.406   133 H    0.965
     7   6 C    3.962 --     6 C    1.439     8 C    1.391   134 H    0.965
     8   6 C    3.973 --    10 C    1.392     7 C    1.391     9 C    1.037
     9   6 C    3.988 --     8 C    1.037   135 H    0.982   137 H    0.970
                           136 H    0.955
    10   6 C    3.976 --    11 C    1.409     8 C    1.392   138 H    0.958
    11   6 C    3.979 --    10 C    1.409     5 C    1.285    12 C    1.087
    12   6 C    3.963 --    13 C    1.473     2 C    1.138    11 C    1.087
    13   6 C    3.943 --    12 C    1.473    14 C    1.101    16 C    1.099
    14   6 C    3.939 --    15 N    2.733    13 C    1.101
    15   7 N    2.949 --    14 C    2.733
    16   6 C    3.939 --    17 N    2.746    13 C    1.099
    17   7 N    2.956 --    16 C    2.746
    18   6 C    3.929 --    19 C    1.451     1 C    1.262    40 S    1.063
    19   6 C    3.935 --    18 C    1.451    20 C    1.296   139 H    0.932
    20   6 C    3.966 --    19 C    1.296    21 C    1.233    39 C    1.223
    21   6 C    3.949 --    29 C    1.380    20 C    1.233    22 C    1.109
    22   6 C    3.941 --    23 C    1.525    28 S    1.121    21 C    1.109
    23   6 C    3.958 --    22 C    1.525    24 C    1.294   140 H    0.953
    24   6 C    3.977 --    25 C    1.567    23 C    1.294   141 H    0.960
    25   6 C    3.926 --    24 C    1.567    28 S    1.168    26 C    1.026
    26   6 C    3.993 --    25 C    1.026    27 C    1.014   143 H    0.959
                           142 H    0.955
    27   6 C    3.993 --    26 C    1.014   145 H    0.987   144 H    0.986
                           146 H    0.985
    28  16 S    2.586 --    25 C    1.168    22 C    1.121
    29   6 C    3.942 --    21 C    1.380    30 C    1.238    43 S    1.093
    30   6 C    3.963 --    41 C    1.258    31 C    1.251    29 C    1.238
    31   6 C    3.939 --    39 C    1.374    30 C    1.251    32 C    1.093
    32   6 C    3.945 --    33 C    1.538    38 S    1.126    31 C    1.093
                            35 C    0.102
    33   6 C    3.975 --    32 C    1.538    34 C    1.289   147 H    0.962
    34   6 C    3.980 --    35 C    1.578    33 C    1.289   148 H    0.961
    35   6 C    3.931 --    34 C    1.578    38 S    1.161    36 C    1.027
                            32 C    0.102
    36   6 C    3.994 --    35 C    1.027    37 C    0.999   149 H    0.969
                           150 H    0.964
    37   6 C    3.990 --    36 C    0.999   151 H    0.987   152 H    0.985
                           153 H    0.984
    38  16 S    2.591 --    35 C    1.161    32 C    1.126
    39   6 C    3.943 --    31 C    1.374    20 C    1.223    40 S    1.123
    40  16 S    2.508 --    39 C    1.123    18 C    1.063
    41   6 C    3.937 --    42 C    1.502    30 C    1.258   154 H    0.951
    42   6 C    3.923 --    41 C    1.502    44 C    1.186    43 S    1.089
    43  16 S    2.518 --    29 C    1.093    42 C    1.089
    44   6 C    3.904 --    45 C    1.398    42 C    1.186    85 S    1.076
    45   6 C    3.941 --    44 C    1.398    63 C    1.213    46 N    1.101
    46   7 N    3.488 --    45 C    1.101    47 C    1.059    55 C    1.035
    47   6 C    3.961 --    48 C    1.359    54 C    1.348    46 N    1.059
    48   6 C    3.978 --    49 C    1.456    47 C    1.359   155 H    0.965
    49   6 C    3.987 --    48 C    1.456    50 C    1.380   156 H    0.963
    50   6 C    3.952 --    49 C    1.380    53 C    1.366    51 S    1.049
    51  16 S    2.246 --    50 C    1.049    52 C    1.007
    52   6 C    3.966 --    51 S    1.007   159 H    0.979   158 H    0.977
                           157 H    0.975
    53   6 C    3.989 --    54 C    1.478    50 C    1.366   160 H    0.968
    54   6 C    3.983 --    53 C    1.478    47 C    1.348   161 H    0.966
    55   6 C    3.961 --    62 C    1.366    56 C    1.358    46 N    1.035
    56   6 C    3.981 --    57 C    1.474    55 C    1.358   162 H    0.965
    57   6 C    3.988 --    56 C    1.474    58 C    1.371   163 H    0.967
                            62 C    0.100
    58   6 C    3.952 --    61 C    1.387    57 C    1.371    59 S    1.047
    59  16 S    2.236 --    58 C    1.047    60 C    1.005
    60   6 C    3.969 --    59 S    1.005   164 H    0.981   165 H    0.980
                           166 H    0.975
    61   6 C    3.987 --    62 C    1.452    58 C    1.387   167 H    0.964
    62   6 C    3.982 --    61 C    1.452    55 C    1.366   168 H    0.966
                            57 C    0.100
    63   6 C    3.930 --    84 C    1.383    45 C    1.213    64 S    1.111
    64  16 S    2.558 --    63 C    1.111    65 C    1.085
    65   6 C    3.896 --    66 C    1.382    86 C    1.186    64 S    1.085
    66   6 C    3.940 --    65 C    1.382    84 C    1.213    67 N    1.112
    67   7 N    3.497 --    66 C    1.112    68 C    1.065    76 C    1.028
    68   6 C    3.960 --    75 C    1.360    69 C    1.342    67 N    1.065
    69   6 C    3.981 --    70 C    1.481    68 C    1.342   169 H    0.965
    70   6 C    3.988 --    69 C    1.481    71 C    1.365   170 H    0.966
    71   6 C    3.950 --    74 C    1.390    70 C    1.365    72 S    1.047
    72  16 S    2.240 --    71 C    1.047    73 C    1.006
    73   6 C    3.968 --    72 S    1.006   171 H    0.981   173 H    0.981
                           172 H    0.976
    74   6 C    3.987 --    75 C    1.452    71 C    1.390   174 H    0.965
    75   6 C    3.983 --    74 C    1.452    68 C    1.360   175 H    0.966
    76   6 C    3.959 --    77 C    1.374    83 C    1.354    67 N    1.028
    77   6 C    3.980 --    78 C    1.454    76 C    1.374   176 H    0.965
                            82 C    0.101
    78   6 C    3.987 --    77 C    1.454    79 C    1.383   177 H    0.963
    79   6 C    3.952 --    78 C    1.383    82 C    1.368    80 S    1.055
    80  16 S    2.263 --    79 C    1.055    81 C    1.007
    81   6 C    3.966 --    80 S    1.007   180 H    0.979   178 H    0.978
                           179 H    0.974
    82   6 C    3.988 --    83 C    1.473    79 C    1.368   181 H    0.967
                            77 C    0.101
    83   6 C    3.984 --    82 C    1.473    76 C    1.354   182 H    0.967
    84   6 C    3.931 --    63 C    1.383    66 C    1.213    85 S    1.109
    85  16 S    2.533 --    84 C    1.109    44 C    1.076
    86   6 C    3.922 --    87 C    1.508    65 C    1.186   108 S    1.081
    87   6 C    3.943 --    86 C    1.508    88 C    1.247   183 H    0.951
    88   6 C    3.962 --    89 C    1.256    87 C    1.247   107 C    1.240
    89   6 C    3.952 --    97 C    1.372    88 C    1.256    90 C    1.094
    90   6 C    3.945 --    91 C    1.543    96 S    1.120    89 C    1.094
                            93 C    0.101
    91   6 C    3.967 --    90 C    1.543    92 C    1.284   184 H    0.962
    92   6 C    3.979 --    93 C    1.581    91 C    1.284   185 H    0.962
    93   6 C    3.934 --    92 C    1.581    96 S    1.158    94 C    1.027
                            90 C    0.101
    94   6 C    3.993 --    93 C    1.027    95 C    1.015   186 H    0.958
                           187 H    0.954
    95   6 C    3.994 --    94 C    1.015   189 H    0.987   188 H    0.987
                           190 H    0.985
    96  16 S    2.589 --    93 C    1.158    90 C    1.120
    97   6 C    3.942 --    89 C    1.372    98 C    1.227   111 S    1.121
    98   6 C    3.969 --   109 C    1.298    99 C    1.233    97 C    1.227
    99   6 C    3.940 --   107 C    1.380    98 C    1.233   100 C    1.106
   100   6 C    3.943 --   101 C    1.531   106 S    1.119    99 C    1.106
   101   6 C    3.968 --   100 C    1.531   102 C    1.291   191 H    0.958
   102   6 C    3.981 --   103 C    1.577   101 C    1.291   192 H    0.961
   103   6 C    3.927 --   102 C    1.577   106 S    1.156   104 C    1.028
   104   6 C    3.993 --   103 C    1.028   105 C    1.001   194 H    0.969
                           193 H    0.960
   105   6 C    3.992 --   104 C    1.001   196 H    0.989   197 H    0.985
                           195 H    0.985
   106  16 S    2.576 --   103 C    1.156   100 C    1.119
   107   6 C    3.941 --    99 C    1.380    88 C    1.240   108 S    1.093
   108  16 S    2.509 --   107 C    1.093    86 C    1.081
   109   6 C    3.947 --   110 C    1.443    98 C    1.298   198 H    0.950
   110   6 C    3.934 --   109 C    1.443   112 C    1.259   111 S    1.078
   111  16 S    2.525 --    97 C    1.121   110 C    1.078
   112   6 C    3.924 --   113 C    1.522   110 C    1.259   199 H    0.948
   113   6 C    3.945 --   112 C    1.522   126 C    1.133   114 C    1.028
   114   6 C    3.917 --   115 O    1.747   113 C    1.028   116 C    1.014
   115   8 O    2.021 --   114 C    1.747
   116   6 C    3.969 --   117 C    1.381   125 C    1.273   114 C    1.014
   117   6 C    3.927 --   116 C    1.381   119 C    1.312   118 Cl   1.033
   118  17 Cl   1.199 --   117 C    1.033
   119   6 C    3.922 --   121 C    1.368   117 C    1.312   120 Cl   1.029
   120  17 Cl   1.189 --   119 C    1.029
   121   6 C    3.929 --   119 C    1.368   123 C    1.316   122 Cl   1.032
   122  17 Cl   1.191 --   121 C    1.032
   123   6 C    3.918 --   125 C    1.372   121 C    1.316   124 Cl   1.022
   124  17 Cl   1.196 --   123 C    1.022
   125   6 C    3.980 --   123 C    1.372   116 C    1.273   126 C    1.075
   126   6 C    3.955 --   127 C    1.477   113 C    1.133   125 C    1.075
   127   6 C    3.952 --   126 C    1.477   128 C    1.100   130 C    1.095
   128   6 C    3.941 --   129 N    2.755   127 C    1.100
   129   7 N    2.956 --   128 C    2.755
   130   6 C    3.943 --   131 N    2.759   127 C    1.095
   131   7 N    2.969 --   130 C    2.759
   132   1 H    0.995 --     1 C    0.941
   133   1 H    0.995 --     6 C    0.965
   134   1 H    0.994 --     7 C    0.965
   135   1 H    0.996 --     9 C    0.982
   136   1 H    0.990 --     9 C    0.955
   137   1 H    0.992 --     9 C    0.970
   138   1 H    0.997 --    10 C    0.958
   139   1 H    0.990 --    19 C    0.932
   140   1 H    0.998 --    23 C    0.953
   141   1 H    0.997 --    24 C    0.960
   142   1 H    0.994 --    26 C    0.955
   143   1 H    0.994 --    26 C    0.959
   144   1 H    0.998 --    27 C    0.986
   145   1 H    0.998 --    27 C    0.987
   146   1 H    0.997 --    27 C    0.985
   147   1 H    0.998 --    33 C    0.962
   148   1 H    0.997 --    34 C    0.961
   149   1 H    0.996 --    36 C    0.969
   150   1 H    0.995 --    36 C    0.964
   151   1 H    0.998 --    37 C    0.987
   152   1 H    0.997 --    37 C    0.985
   153   1 H    0.998 --    37 C    0.984
   154   1 H    0.996 --    41 C    0.951
   155   1 H    0.997 --    48 C    0.965
   156   1 H    0.996 --    49 C    0.963
   157   1 H    0.993 --    52 C    0.975
   158   1 H    0.995 --    52 C    0.977
   159   1 H    0.994 --    52 C    0.979
   160   1 H    0.998 --    53 C    0.968
   161   1 H    0.998 --    54 C    0.966
   162   1 H    0.997 --    56 C    0.965
   163   1 H    0.996 --    57 C    0.967
   164   1 H    0.996 --    60 C    0.981
   165   1 H    0.994 --    60 C    0.980
   166   1 H    0.995 --    60 C    0.975
   167   1 H    0.996 --    61 C    0.964
   168   1 H    0.998 --    62 C    0.966
   169   1 H    0.997 --    69 C    0.965
   170   1 H    0.997 --    70 C    0.966
   171   1 H    0.995 --    73 C    0.981
   172   1 H    0.993 --    73 C    0.976
   173   1 H    0.996 --    73 C    0.981
   174   1 H    0.997 --    74 C    0.965
   175   1 H    0.999 --    75 C    0.966
   176   1 H    0.997 --    77 C    0.965
   177   1 H    0.996 --    78 C    0.963
   178   1 H    0.995 --    81 C    0.978
   179   1 H    0.993 --    81 C    0.974
   180   1 H    0.994 --    81 C    0.979
   181   1 H    0.997 --    82 C    0.967
   182   1 H    0.998 --    83 C    0.967
   183   1 H    0.996 --    87 C    0.951
   184   1 H    0.998 --    91 C    0.962
   185   1 H    0.997 --    92 C    0.962
   186   1 H    0.995 --    94 C    0.958
   187   1 H    0.994 --    94 C    0.954
   188   1 H    0.998 --    95 C    0.987
   189   1 H    0.998 --    95 C    0.987
   190   1 H    0.997 --    95 C    0.985
   191   1 H    0.997 --   101 C    0.958
   192   1 H    0.997 --   102 C    0.961
   193   1 H    0.994 --   104 C    0.960
   194   1 H    0.996 --   104 C    0.969
   195   1 H    0.998 --   105 C    0.985
   196   1 H    0.999 --   105 C    0.989
   197   1 H    0.997 --   105 C    0.985
   198   1 H    0.996 --   109 C    0.950
   199   1 H    0.988 --   112 C    0.948
 ---------------------------------------------------------------------------

Topologies differ in bond orders
Writing corrected topology to xtbtopo.mol

molecular dipole:
                 x           y           z       tot (Debye)
 q only:        0.192       3.169       0.186
   full:        1.101       3.156      -0.391       8.553
molecular quadrupole (traceless):
                xx          xy          yy          xz          yz          zz
 q only:     -114.885     162.279     -29.459      79.633    -150.214     144.344
  q+dip:     -103.829     154.693     -28.550      81.317    -151.284     132.378
   full:     -108.819     159.845     -18.744      85.926    -145.381     127.563


           -------------------------------------------------
          | TOTAL ENERGY             -348.830917536706 Eh   |
          | GRADIENT NORM               0.035124502010 Eh/α |
          | HOMO-LUMO GAP               0.260829611470 eV   |
           -------------------------------------------------

------------------------------------------------------------------------
 * finished run on 2022/02/03 at 20:40:47.596     
------------------------------------------------------------------------
 total:
 * wall-time:     0 d,  0 h,  0 min,  1.156 sec
 *  cpu-time:     0 d,  0 h,  0 min,  9.149 sec
 * ratio c/w:     7.911 speedup
 SCF:
 * wall-time:     0 d,  0 h,  0 min,  1.032 sec
 *  cpu-time:     0 d,  0 h,  0 min,  8.256 sec
 * ratio c/w:     7.996 speedup

