      -----------------------------------------------------------      
     |                   =====================                   |     
     |                           x T B                           |     
     |                   =====================                   |     
     |                         S. Grimme                         |     
     |          Mulliken Center for Theoretical Chemistry        |     
     |                    University of Bonn                     |     
      -----------------------------------------------------------      

   * xtb version 6.4.1 (unknown) compiled by 'oda6@login1.crc.pitt.edu' on 2021-06-25

   xtb is free software: you can redistribute it and/or modify it under
   the terms of the GNU Lesser General Public License as published by
   the Free Software Foundation, either version 3 of the License, or
   (at your option) any later version.
   
   xtb is distributed in the hope that it will be useful,
   but WITHOUT ANY WARRANTY; without even the implied warranty of
   MERCHANTABILITY or FITNESS FOR A PARTICULAR PURPOSE.  See the
   GNU Lesser General Public License for more details.
   
   Cite this work as:
   * C. Bannwarth, E. Caldeweyher, S. Ehlert, A. Hansen, P. Pracht,
     J. Seibert, S. Spicher, S. Grimme, WIREs Comput. Mol. Sci., 2020, 11,
     e01493. DOI: 10.1002/wcms.1493
   
   for GFN2-xTB:
   * C. Bannwarth, S. Ehlert and S. Grimme., J. Chem. Theory Comput., 2019,
     15, 1652-1671. DOI: 10.1021/acs.jctc.8b01176
   for GFN1-xTB:
   * S. Grimme, C. Bannwarth, P. Shushkov, J. Chem. Theory Comput., 2017,
     13, 1989-2009. DOI: 10.1021/acs.jctc.7b00118
   for GFN0-xTB:
   * P. Pracht, E. Caldeweyher, S. Ehlert, S. Grimme, ChemRxiv, 2019, preprint.
     DOI: 10.26434/chemrxiv.8326202.v1
   for GFN-FF:
   * S. Spicher and S. Grimme, Angew. Chem. Int. Ed., 2020, 59, 15665-15673.
     DOI: 10.1002/anie.202004239
   
   for DFT-D4:
   * E. Caldeweyher, C. Bannwarth and S. Grimme, J. Chem. Phys., 2017,
     147, 034112. DOI: 10.1063/1.4993215
   * E. Caldeweyher, S. Ehlert, A. Hansen, H. Neugebauer, S. Spicher,
     C. Bannwarth and S. Grimme, J. Chem. Phys., 2019, 150, 154122.
     DOI: 10.1063/1.5090222
   * E. Caldeweyher, J.-M. Mewes, S. Ehlert and S. Grimme, Phys. Chem. Chem. Phys.
     2020, 22, 8499-8512. DOI: 10.1039/D0CP00502A
   
   for sTDA-xTB:
   * S. Grimme and C. Bannwarth, J. Chem. Phys., 2016, 145, 054103.
     DOI: 10.1063/1.4959605
   
   in the mass-spec context:
   * V. Asgeirsson, C. Bauer and S. Grimme, Chem. Sci., 2017, 8, 4879.
     DOI: 10.1039/c7sc00601b
   * J. Koopman and S. Grimme, ACS Omega 2019, 4, 12, 15120-15133.
     DOI: 10.1021/acsomega.9b02011
   
   for metadynamics refer to:
   * S. Grimme, J. Chem. Theory Comput., 2019, 155, 2847-2862
     DOI: 10.1021/acs.jctc.9b00143
   
   for SPH calculations refer to:
   * S. Spicher and S. Grimme, J. Chem. Theory Comput., 2021, 17, 1701-1714
     DOI: 10.1021/acs.jctc.0c01306
   
   with help from (in alphabetical order)
   P. Atkinson, C. Bannwarth, F. Bohle, G. Brandenburg, E. Caldeweyher
   M. Checinski, S. Dohm, S. Ehlert, S. Ehrlich, I. Gerasimov, J. Koopman
   C. Lavigne, S. Lehtola, F. März, M. Müller, F. Musil, H. Neugebauer
   J. Pisarek, C. Plett, P. Pracht, J. Seibert, P. Shushkov, S. Spicher
   M. Stahn, M. Steiner, T. Strunk, J. Stückrath, T. Rose, and J. Unsleber
   
 * started run on 2022/02/05 at 01:14:54.011     

           -------------------------------------------------
          |                Calculation Setup                |
           -------------------------------------------------

          program call               : /ihome/ghutchison/oda6/xtb/xtb-641/bin/xtb ../../GFN2_output/48_50_130_133_48.mol --sp --alpb water
          hostname                   : smp-n57
          coordinate file            : ../../GFN2_output/48_50_130_133_48.mol
          omp threads                :                     8
          number of atoms            :                   150
          number of electrons        :                   474
          charge                     :                     0
          spin                       :                   0.0
          first test random number   :      0.19098888022548

   ID    Z sym.   atoms
    1    6 C      1, 2, 4, 6-16, 18-20, 22-24, 26, 27, 29-32, 34-40, 42-45,
                  47, 48, 50-53, 55-61, 63-66, 68-70, 74, 75, 79-84, 87-89,
                  91-96
    2    7 N      3, 28, 49, 71, 73, 76, 78, 86
    3    8 O      5, 17, 85, 90
    4   16 S      21, 25, 33, 41, 46, 54, 62, 67, 72, 77
    5    1 H      97-150

           -------------------------------------------------
          |                 G F N 2 - x T B                 |
           -------------------------------------------------

        Reference                      10.1021/acs.jctc.8b01176
      * Hamiltonian:
        H0-scaling (s, p, d)           1.850000    2.230000    2.230000
        zeta-weighting                 0.500000
      * Dispersion:
        s8                             2.700000
        a1                             0.520000
        a2                             5.000000
        s9                             5.000000
      * Repulsion:
        kExp                           1.500000    1.000000
        rExp                           1.000000
      * Coulomb:
        alpha                          2.000000
        third order                    shell-resolved
        anisotropic                    true
        a3                             3.000000
        a5                             4.000000
        cn-shift                       1.200000
        cn-exp                         4.000000
        max-rad                        5.000000

      * Solvation model:               ALPB
        Solvent                        water
        Parameter file                 internal GFN2-xTB/ALPB
        Dielectric constant                8.0200E+01
        Reference state                gsolv [1 M gas/solution]
        Free energy shift                  1.0808E-03 Eh       6.7819E-01 kcal/mol
        Temperature                        2.9815E+02 K
        Density                            1.0000E+00 kg/L
        Solvent mass                       1.8000E+01 g/mol
        Interaction kernel             P16
        Born radius scaling (c1)           1.4744E+00
        Born radii integrator          GBOBC
        Born offset                        0.0000E+00 a0       0.0000E+00 AA
        H-bond correction              true
        Ion screening                  false
        Surface tension                    1.0000E-05 Eh       1.5569E+01 dyn/cm
        Grid points                               230 per atom

          ...................................................
          :                      SETUP                      :
          :.................................................:
          :  # basis functions                 498          :
          :  # atomic orbitals                 488          :
          :  # shells                          256          :
          :  # electrons                       474          :
          :  max. iterations                   250          :
          :  Hamiltonian                  GFN2-xTB          :
          :  restarted?                      false          :
          :  GBSA solvation                   true          :
          :  PC potential                    false          :
          :  electronic temp.          300.0000000     K    :
          :  accuracy                    1.0000000          :
          :  -> integral cutoff          0.2500000E+02      :
          :  -> integral neglect         0.1000000E-07      :
          :  -> SCF convergence          0.1000000E-05 Eh   :
          :  -> wf. convergence          0.1000000E-03 e    :
          :  Broyden damping             0.4000000          :
          ...................................................

 iter      E             dE          RMSdq      gap      omega  full diag
   1   -261.8139356 -0.261814E+03  0.457E+00    0.30       0.0  T
   2   -262.0783750 -0.264439E+00  0.261E+00    0.63       1.0  T
   3   -262.0116046  0.667704E-01  0.114E+00    0.21       1.0  T
   4   -262.0916150 -0.800104E-01  0.564E-01    0.46       1.0  T
   5   -262.1238464 -0.322315E-01  0.249E-01    0.33       1.0  T
   6   -262.1268430 -0.299657E-02  0.129E-01    0.29       1.0  T
   7   -262.1277001 -0.857084E-03  0.613E-02    0.29       1.0  T
   8   -262.1279872 -0.287144E-03  0.306E-02    0.29       1.0  T
   9   -262.1280205 -0.332868E-04  0.167E-02    0.29       1.0  T
  10   -262.1280293 -0.881106E-05  0.962E-03    0.29       1.0  T
  11   -262.1280316 -0.225503E-05  0.442E-03    0.29       1.8  T
  12   -262.1280321 -0.526233E-06  0.270E-03    0.29       3.0  T
  13   -262.1280324 -0.249376E-06  0.137E-03    0.29       6.0  T
  14   -262.1280324 -0.496051E-07  0.682E-04    0.29      12.0  T
  15   -262.1280324 -0.186282E-07  0.313E-04    0.29      26.1  T

   *** convergence criteria satisfied after 15 iterations ***

         #    Occupation            Energy/Eh            Energy/eV
      -------------------------------------------------------------
         1        2.0000           -0.7770668             -21.1451
       ...           ...                  ...                  ...
       231        2.0000           -0.3844976             -10.4627
       232        2.0000           -0.3730027             -10.1499
       233        2.0000           -0.3713163             -10.1040
       234        2.0000           -0.3666619              -9.9774
       235        2.0000           -0.3662145              -9.9652
       236        1.9974           -0.3521181              -9.5816
       237        1.9936           -0.3512655              -9.5584 (HOMO)
       238        0.0090           -0.3406714              -9.2701 (LUMO)
       239                         -0.3174817              -8.6391
       240                         -0.3149029              -8.5689
       241                         -0.2967157              -8.0740
       242                         -0.2940527              -8.0016
       ...                                ...                  ...
       488                          0.7369131              20.0524
      -------------------------------------------------------------
                  HL-Gap            0.0105941 Eh            0.2883 eV
             Fermi-level           -0.3458051 Eh           -9.4098 eV

 SCC (total)                   0 d,  0 h,  0 min,  0.483 sec
 SCC setup                      ...        0 min,  0.004 sec (  0.852%)
 Dispersion                     ...        0 min,  0.008 sec (  1.627%)
 classical contributions        ...        0 min,  0.000 sec (  0.050%)
 integral evaluation            ...        0 min,  0.030 sec (  6.302%)
 iterations                     ...        0 min,  0.368 sec ( 76.175%)
 molecular gradient             ...        0 min,  0.070 sec ( 14.570%)
 printout                       ...        0 min,  0.002 sec (  0.407%)

         :::::::::::::::::::::::::::::::::::::::::::::::::::::
         ::                     SUMMARY                     ::
         :::::::::::::::::::::::::::::::::::::::::::::::::::::
         :: total energy            -258.331234067583 Eh    ::
         :: total w/o Gsasa/hb      -258.328487356591 Eh    ::
         :: gradient norm              0.041858912737 Eh/a0 ::
         :: HOMO-LUMO gap              0.288280773611 eV    ::
         ::.................................................::
         :: SCC energy              -262.128032445306 Eh    ::
         :: -> isotropic ES            0.231726527419 Eh    ::
         :: -> anisotropic ES          0.004407107248 Eh    ::
         :: -> anisotropic XC          0.120573865437 Eh    ::
         :: -> dispersion             -0.265302060956 Eh    ::
         :: -> Gsolv                  -0.043611595207 Eh    ::
         ::    -> Gelec               -0.040864884215 Eh    ::
         ::    -> Gsasa                0.004658107754 Eh    ::
         ::    -> Ghb                 -0.008485578444 Eh    ::
         ::    -> Gshift               0.001080759698 Eh    ::
         :: repulsion energy           3.791468873151 Eh    ::
         :: add. restraining           0.000000000000 Eh    ::
         :: total charge               0.000000000094 e     ::
         :::::::::::::::::::::::::::::::::::::::::::::::::::::

           -------------------------------------------------
          |                Property Printout                |
           -------------------------------------------------

    * Orbital Energies and Occupations

         #    Occupation            Energy/Eh            Energy/eV
      -------------------------------------------------------------
         1        2.0000           -0.7770668             -21.1451
       ...           ...                  ...                  ...
       225        2.0000           -0.4110108             -11.1842
       226        2.0000           -0.4092007             -11.1349
       227        2.0000           -0.4053907             -11.0312
       228        2.0000           -0.4004372             -10.8965
       229        2.0000           -0.3947400             -10.7414
       230        2.0000           -0.3858343             -10.4991
       231        2.0000           -0.3844976             -10.4627
       232        2.0000           -0.3730027             -10.1499
       233        2.0000           -0.3713163             -10.1040
       234        2.0000           -0.3666619              -9.9774
       235        2.0000           -0.3662145              -9.9652
       236        1.9974           -0.3521181              -9.5816
       237        1.9936           -0.3512655              -9.5584 (HOMO)
       238        0.0090           -0.3406714              -9.2701 (LUMO)
       239                         -0.3174817              -8.6391
       240                         -0.3149029              -8.5689
       241                         -0.2967157              -8.0740
       242                         -0.2940527              -8.0016
       243                         -0.2650424              -7.2122
       244                         -0.2558977              -6.9633
       245                         -0.2520601              -6.8589
       246                         -0.2516169              -6.8468
       247                         -0.2506208              -6.8197
       248                         -0.2444071              -6.6507
       ...                                ...                  ...
       488                          0.7369131              20.0524
      -------------------------------------------------------------
                  HL-Gap            0.0105941 Eh            0.2883 eV
             Fermi-level           -0.3458051 Eh           -9.4098 eV

     #   Z          covCN         q      C6AA      α(0)
     1   6 C        3.752    -0.116    22.772     6.805
     2   6 C        3.754     0.005    20.547     6.464
     3   7 N        2.740    -0.104    23.275     7.165
     4   6 C        2.772     0.277    22.319     7.737
     5   8 O        0.859    -0.470    23.129     6.448
     6   6 C        2.977    -0.031    28.768     8.798
     7   6 C        2.919    -0.013    28.332     8.729
     8   6 C        2.923    -0.034    28.845     8.808
     9   6 C        3.001     0.023    27.474     8.598
    10   6 C        2.983     0.017    27.614     8.620
    11   6 C        2.918    -0.024    28.606     8.771
    12   6 C        2.915    -0.029    28.715     8.787
    13   6 C        2.922    -0.011    28.300     8.724
    14   6 C        2.978    -0.028    28.692     8.786
    15   6 C        2.995     0.012    27.727     8.638
    16   6 C        2.773     0.277    22.310     7.736
    17   8 O        0.859    -0.468    23.081     6.441
    18   6 C        2.994     0.024    27.458     8.596
    19   6 C        3.127    -0.052    29.078     8.829
    20   6 C        3.154     0.032    26.989     8.496
    21  16 S        2.270    -0.199   149.521    20.580
    22   6 C        3.793     0.007    20.475     6.444
    23   6 C        3.775    -0.113    22.680     6.786
    24   6 C        3.040     0.018    27.568     8.612
    25  16 S        2.372    -0.019   141.845    20.045
    26   6 C        3.021     0.007    27.830     8.653
    27   6 C        3.064     0.048    26.869     8.500
    28   7 N        2.749    -0.060    22.402     7.030
    29   6 C        2.941     0.059    26.687     8.473
    30   6 C        2.926    -0.044    29.086     8.844
    31   6 C        2.943    -0.043    29.057     8.841
    32   6 C        2.967     0.047    26.933     8.512
    33  16 S        2.042    -0.180   148.682    20.523
    34   6 C        3.744    -0.074    21.979     6.688
    35   6 C        2.984    -0.042    29.025     8.837
    36   6 C        2.920    -0.043    29.059     8.840
    37   6 C        2.929     0.059    26.667     8.469
    38   6 C        2.921    -0.047    29.177     8.858
    39   6 C        2.985    -0.042    29.025     8.837
    40   6 C        2.965     0.045    26.979     8.520
    41  16 S        2.034    -0.197   149.425    20.574
    42   6 C        3.744    -0.065    21.811     6.662
    43   6 C        2.942    -0.045    29.119     8.850
    44   6 C        2.924    -0.049    29.218     8.864
    45   6 C        3.175     0.002    27.587     8.578
    46  16 S        2.334    -0.045   142.938    20.122
    47   6 C        2.996     0.010    27.794     8.648
    48   6 C        3.068     0.050    26.808     8.490
    49   7 N        2.748    -0.073    22.652     7.069
    50   6 C        2.938     0.060    26.647     8.466
    51   6 C        2.922    -0.047    29.168     8.857
    52   6 C        2.942    -0.044    29.102     8.848
    53   6 C        2.965     0.045    26.998     8.523
    54  16 S        2.033    -0.180   148.700    20.524
    55   6 C        3.744    -0.066    21.833     6.666
    56   6 C        2.984    -0.042    29.039     8.839
    57   6 C        2.924    -0.046    29.134     8.852
    58   6 C        2.923     0.066    26.532     8.447
    59   6 C        2.923    -0.047    29.179     8.858
    60   6 C        2.986    -0.047    29.153     8.857
    61   6 C        2.966     0.042    27.046     8.530
    62  16 S        2.035    -0.192   149.189    20.558
    63   6 C        3.744    -0.067    21.851     6.668
    64   6 C        2.942    -0.046    29.136     8.853
    65   6 C        2.924    -0.043    29.061     8.840
    66   6 C        3.193    -0.004    27.610     8.569
    67  16 S        2.515    -0.060   143.542    20.165
    68   6 C        3.012    -0.026    28.630     8.777
    69   6 C        3.346     0.065    24.001     7.731
    70   6 C        3.345     0.063    24.054     7.743
    71   7 N        1.851    -0.313    28.961     7.976
    72  16 S        2.669     0.410   125.468    18.852
    73   7 N        1.876    -0.305    28.764     7.950
    74   6 C        2.964    -0.030    28.757     8.796
    75   6 C        3.343     0.065    24.073     7.752
    76   7 N        1.851    -0.306    28.783     7.951
    77  16 S        2.659     0.395   125.971    18.890
    78   7 N        1.853    -0.302    28.671     7.936
    79   6 C        3.340     0.063    24.172     7.776
    80   6 C        2.972     0.029    27.347     8.578
    81   6 C        2.922    -0.030    28.757     8.794
    82   6 C        2.920    -0.013    28.349     8.731
    83   6 C        2.977    -0.030    28.747     8.795
    84   6 C        2.772     0.277    22.308     7.736
    85   8 O        0.859    -0.465    23.029     6.434
    86   7 N        2.740    -0.102    23.234     7.159
    87   6 C        3.754     0.004    20.571     6.467
    88   6 C        3.752    -0.117    22.792     6.808
    89   6 C        2.772     0.278    22.305     7.735
    90   8 O        0.859    -0.463    22.975     6.426
    91   6 C        2.978    -0.027    28.670     8.783
    92   6 C        2.922    -0.012    28.315     8.726
    93   6 C        2.915    -0.029    28.735     8.790
    94   6 C        2.918    -0.015    28.394     8.738
    95   6 C        2.984     0.019    27.574     8.614
    96   6 C        2.995     0.012    27.736     8.639
    97   1 H        0.925     0.050     2.326     2.385
    98   1 H        0.925     0.050     2.324     2.384
    99   1 H        0.925     0.065     2.141     2.288
   100   1 H        0.924     0.071     2.074     2.252
   101   1 H        0.924     0.070     2.081     2.256
   102   1 H        0.926     0.073     2.058     2.243
   103   1 H        0.926     0.071     2.075     2.252
   104   1 H        0.926     0.075     2.035     2.231
   105   1 H        0.926     0.074     2.042     2.234
   106   1 H        0.926     0.071     2.079     2.255
   107   1 H        0.926     0.078     2.004     2.214
   108   1 H        0.925     0.043     2.414     2.430
   109   1 H        0.925     0.056     2.244     2.343
   110   1 H        0.925     0.049     2.336     2.390
   111   1 H        0.925     0.061     2.187     2.313
   112   1 H        0.925     0.062     2.179     2.309
   113   1 H        0.926     0.045     2.379     2.412
   114   1 H        0.926     0.058     2.225     2.332
   115   1 H        0.925     0.089     1.891     2.151
   116   1 H        0.925     0.067     2.117     2.275
   117   1 H        0.925     0.085     1.925     2.170
   118   1 H        0.926     0.054     2.274     2.358
   119   1 H        0.926     0.051     2.309     2.376
   120   1 H        0.926     0.034     2.534     2.489
   121   1 H        0.926     0.048     2.349     2.397
   122   1 H        0.925     0.079     1.986     2.204
   123   1 H        0.925     0.073     2.052     2.240
   124   1 H        0.925     0.071     2.071     2.251
   125   1 H        0.926     0.056     2.251     2.346
   126   1 H        0.926     0.052     2.290     2.366
   127   1 H        0.926     0.047     2.358     2.401
   128   1 H        0.926     0.057     2.238     2.340
   129   1 H        0.925     0.085     1.927     2.171
   130   1 H        0.925     0.072     2.065     2.247
   131   1 H        0.925     0.072     2.059     2.244
   132   1 H        0.926     0.050     2.321     2.383
   133   1 H        0.926     0.029     2.594     2.519
   134   1 H        0.926     0.045     2.378     2.411
   135   1 H        0.926     0.053     2.283     2.363
   136   1 H        0.925     0.070     2.084     2.258
   137   1 H        0.925     0.074     2.045     2.236
   138   1 H        0.925     0.084     1.943     2.180
   139   1 H        0.926     0.054     2.269     2.355
   140   1 H        0.926     0.036     2.502     2.474
   141   1 H        0.926     0.063     2.165     2.301
   142   1 H        0.926     0.075     2.031     2.229
   143   1 H        0.924     0.072     2.062     2.245
   144   1 H        0.924     0.073     2.052     2.240
   145   1 H        0.925     0.050     2.318     2.381
   146   1 H        0.925     0.050     2.320     2.382
   147   1 H        0.925     0.067     2.116     2.275
   148   1 H        0.926     0.076     2.016     2.220
   149   1 H        0.926     0.074     2.044     2.236
   150   1 H        0.926     0.052     2.290     2.367

 Mol. C6AA /au·bohr⁶  :     409905.772953
 Mol. C8AA /au·bohr⁸  :   11837287.070951
 Mol. α(0) /au        :       1027.330455


Wiberg/Mayer (AO) data.
largest (>0.10) Wiberg bond orders for each atom

 ---------------------------------------------------------------------------
     #   Z sym  total        # sym  WBO       # sym  WBO       # sym  WBO
 ---------------------------------------------------------------------------
     1   6 C    3.991 --     2 C    1.010    98 H    0.987    97 H    0.987
                            99 H    0.982
     2   6 C    3.952 --     1 C    1.010   100 H    0.968   101 H    0.968
                             3 N    0.962
     3   7 N    3.576 --    16 C    1.136     4 C    1.131     2 C    0.962
                            17 O    0.133     5 O    0.132
     4   6 C    3.932 --     5 O    1.652     3 N    1.131     6 C    1.046
     5   8 O    1.959 --     4 C    1.652     3 N    0.132
     6   6 C    3.962 --     7 C    1.424    15 C    1.254     4 C    1.046
     7   6 C    3.969 --     6 C    1.424     8 C    1.396   102 H    0.963
     8   6 C    3.973 --     9 C    1.427     7 C    1.396   103 H    0.960
     9   6 C    3.976 --     8 C    1.427    10 C    1.215    18 C    1.120
    10   6 C    3.984 --    11 C    1.300    15 C    1.256     9 C    1.215
    11   6 C    3.979 --    12 C    1.516    10 C    1.300   104 H    0.959
    12   6 C    3.981 --    11 C    1.516    13 C    1.363   105 H    0.965
    13   6 C    3.971 --    14 C    1.450    12 C    1.363   106 H    0.964
    14   6 C    3.982 --    13 C    1.450    15 C    1.256    16 C    1.038
    15   6 C    3.989 --    10 C    1.256    14 C    1.256     6 C    1.254
    16   6 C    3.935 --    17 O    1.657     3 N    1.136    14 C    1.038
    17   8 O    1.968 --    16 C    1.657     3 N    0.133
    18   6 C    3.920 --    19 C    1.487    25 S    1.123     9 C    1.120
    19   6 C    3.972 --    18 C    1.487    20 C    1.322   107 H    0.956
    20   6 C    3.924 --    24 C    1.401    19 C    1.322    21 S    1.006
    21  16 S    2.220 --    20 C    1.006    22 C    0.953
    22   6 C    3.965 --    23 C    1.029   108 H    0.972   109 H    0.967
                            21 S    0.953
    23   6 C    3.990 --    22 C    1.029   111 H    0.985   110 H    0.984
                           112 H    0.974
    24   6 C    3.935 --    20 C    1.401    26 C    1.210    25 S    1.132
    25  16 S    2.620 --    24 C    1.132    18 C    1.123
    26   6 C    3.904 --    27 C    1.383    24 C    1.210    67 S    1.087
    27   6 C    3.949 --    26 C    1.383    45 C    1.226    28 N    1.084
    28   7 N    3.481 --    27 C    1.084    37 C    1.065    29 C    1.033
    29   6 C    3.959 --    30 C    1.368    36 C    1.358    28 N    1.033
    30   6 C    3.983 --    31 C    1.455    29 C    1.368   113 H    0.966
                            35 C    0.101
    31   6 C    3.987 --    30 C    1.455    32 C    1.386   114 H    0.963
    32   6 C    3.952 --    31 C    1.386    35 C    1.369    33 S    1.049
    33  16 S    2.279 --    32 C    1.049    34 C    1.009
    34   6 C    3.963 --    33 S    1.009   117 H    0.977   116 H    0.976
                           115 H    0.973
    35   6 C    3.987 --    36 C    1.474    32 C    1.369   118 H    0.967
                            30 C    0.101
    36   6 C    3.982 --    35 C    1.474    29 C    1.358   119 H    0.965
    37   6 C    3.962 --    44 C    1.353    38 C    1.343    28 N    1.065
    38   6 C    3.983 --    39 C    1.477    37 C    1.343   120 H    0.966
    39   6 C    3.989 --    38 C    1.477    40 C    1.367   121 H    0.967
                            44 C    0.100
    40   6 C    3.949 --    43 C    1.381    39 C    1.367    41 S    1.050
    41  16 S    2.251 --    40 C    1.050    42 C    1.009
    42   6 C    3.967 --    41 S    1.009   124 H    0.979   123 H    0.979
                           122 H    0.975
    43   6 C    3.987 --    44 C    1.460    40 C    1.381   125 H    0.963
    44   6 C    3.979 --    43 C    1.460    37 C    1.353   126 H    0.965
                            39 C    0.100
    45   6 C    3.925 --    66 C    1.369    27 C    1.226    46 S    1.117
    46  16 S    2.582 --    45 C    1.117    47 C    1.100
    47   6 C    3.923 --    48 C    1.416    68 C    1.158    46 S    1.100
    48   6 C    3.924 --    47 C    1.416    66 C    1.233    49 N    1.052
    49   7 N    3.446 --    50 C    1.060    58 C    1.053    48 C    1.052
    50   6 C    3.958 --    51 C    1.362    57 C    1.341    49 N    1.060
    51   6 C    3.974 --    52 C    1.455    50 C    1.362   127 H    0.964
    52   6 C    3.985 --    51 C    1.455    53 C    1.383   128 H    0.963
    53   6 C    3.947 --    52 C    1.383    56 C    1.361    54 S    1.053
    54  16 S    2.251 --    53 C    1.053    55 C    1.009
    55   6 C    3.966 --    54 S    1.009   131 H    0.979   130 H    0.978
                           129 H    0.974
    56   6 C    3.987 --    57 C    1.484    53 C    1.361   132 H    0.967
    57   6 C    3.979 --    56 C    1.484    50 C    1.341   133 H    0.967
    58   6 C    3.961 --    65 C    1.369    59 C    1.347    49 N    1.053
    59   6 C    3.982 --    60 C    1.481    58 C    1.347   134 H    0.966
    60   6 C    3.987 --    59 C    1.481    61 C    1.362   135 H    0.967
                            65 C    0.100
    61   6 C    3.952 --    64 C    1.388    60 C    1.362    62 S    1.049
    62  16 S    2.252 --    61 C    1.049    63 C    1.009
    63   6 C    3.967 --    62 S    1.009   136 H    0.979   137 H    0.979
                           138 H    0.974
    64   6 C    3.987 --    65 C    1.450    61 C    1.388   139 H    0.963
    65   6 C    3.980 --    64 C    1.450    58 C    1.369   140 H    0.966
                            60 C    0.100
    66   6 C    3.934 --    45 C    1.369    48 C    1.233    67 S    1.095
    67  16 S    2.600 --    66 C    1.095    26 C    1.087
    68   6 C    3.942 --    79 C    1.250    69 C    1.249    47 C    1.158
    69   6 C    3.966 --    73 N    1.357    68 C    1.249    70 C    1.135
    70   6 C    3.969 --    71 N    1.342    74 C    1.278    69 C    1.135
    71   7 N    3.040 --    72 S    1.436    70 C    1.342    73 N    0.156
    72  16 S    3.169 --    71 N    1.436    73 N    1.428
    73   7 N    3.069 --    72 S    1.428    69 C    1.357    71 N    0.156
    74   6 C    3.900 --    70 C    1.278    75 C    1.278    80 C    1.076
    75   6 C    3.968 --    76 N    1.340    74 C    1.278    79 C    1.128
    76   7 N    3.046 --    77 S    1.439    75 C    1.340    78 N    0.163
    77  16 S    3.177 --    76 N    1.439    78 N    1.438
    78   7 N    3.061 --    77 S    1.438    79 C    1.362    76 N    0.163
    79   6 C    3.967 --    78 N    1.362    68 C    1.250    75 C    1.128
    80   6 C    3.979 --    81 C    1.446    95 C    1.226    74 C    1.076
    81   6 C    3.973 --    80 C    1.446    82 C    1.385   141 H    0.964
    82   6 C    3.970 --    83 C    1.433    81 C    1.385   142 H    0.962
    83   6 C    3.969 --    82 C    1.433    96 C    1.253    84 C    1.044
    84   6 C    3.935 --    85 O    1.656    86 N    1.132    83 C    1.044
    85   8 O    1.965 --    84 C    1.656    86 N    0.132
    86   7 N    3.577 --    89 C    1.137    84 C    1.132    87 C    0.961
                            90 O    0.134    85 O    0.132
    87   6 C    3.950 --    88 C    1.009   143 H    0.967   144 H    0.967
                            86 N    0.961
    88   6 C    3.990 --    87 C    1.009   145 H    0.987   146 H    0.987
                           147 H    0.981
    89   6 C    3.938 --    90 O    1.659    86 N    1.137    91 C    1.037
    90   8 O    1.971 --    89 C    1.659    86 N    0.134
    91   6 C    3.984 --    92 C    1.452    96 C    1.255    89 C    1.037
                            94 C    0.101
    92   6 C    3.971 --    91 C    1.452    93 C    1.361   148 H    0.963
    93   6 C    3.982 --    94 C    1.520    92 C    1.361   149 H    0.966
    94   6 C    3.982 --    93 C    1.520    95 C    1.296   150 H    0.964
                            91 C    0.101
    95   6 C    3.977 --    94 C    1.296    96 C    1.257    80 C    1.226
    96   6 C    3.989 --    95 C    1.257    91 C    1.255    83 C    1.253
    97   1 H    0.998 --     1 C    0.987
    98   1 H    0.998 --     1 C    0.987
    99   1 H    0.995 --     1 C    0.982
   100   1 H    0.994 --     2 C    0.968
   101   1 H    0.995 --     2 C    0.968
   102   1 H    0.993 --     7 C    0.963
   103   1 H    0.994 --     8 C    0.960
   104   1 H    0.993 --    11 C    0.959
   105   1 H    0.994 --    12 C    0.965
   106   1 H    0.994 --    13 C    0.964
   107   1 H    0.993 --    19 C    0.956
   108   1 H    0.998 --    22 C    0.972
   109   1 H    0.996 --    22 C    0.967
   110   1 H    0.997 --    23 C    0.984
   111   1 H    0.996 --    23 C    0.985
   112   1 H    0.996 --    23 C    0.974
   113   1 H    0.998 --    30 C    0.966
   114   1 H    0.996 --    31 C    0.963
   115   1 H    0.992 --    34 C    0.973
   116   1 H    0.995 --    34 C    0.976
   117   1 H    0.992 --    34 C    0.977
   118   1 H    0.997 --    35 C    0.967
   119   1 H    0.997 --    36 C    0.965
   120   1 H    0.998 --    38 C    0.966
   121   1 H    0.997 --    39 C    0.967
   122   1 H    0.993 --    42 C    0.975
   123   1 H    0.994 --    42 C    0.979
   124   1 H    0.994 --    42 C    0.979
   125   1 H    0.996 --    43 C    0.963
   126   1 H    0.997 --    44 C    0.965
   127   1 H    0.998 --    51 C    0.964
   128   1 H    0.996 --    52 C    0.963
   129   1 H    0.992 --    55 C    0.974
   130   1 H    0.994 --    55 C    0.978
   131   1 H    0.994 --    55 C    0.979
   132   1 H    0.997 --    56 C    0.967
   133   1 H    0.999 --    57 C    0.967
   134   1 H    0.997 --    59 C    0.966
   135   1 H    0.997 --    60 C    0.967
   136   1 H    0.995 --    63 C    0.979
   137   1 H    0.994 --    63 C    0.979
   138   1 H    0.993 --    63 C    0.974
   139   1 H    0.996 --    64 C    0.963
   140   1 H    0.999 --    65 C    0.966
   141   1 H    0.995 --    81 C    0.964
   142   1 H    0.993 --    82 C    0.962
   143   1 H    0.994 --    87 C    0.967
   144   1 H    0.994 --    87 C    0.967
   145   1 H    0.997 --    88 C    0.987
   146   1 H    0.997 --    88 C    0.987
   147   1 H    0.995 --    88 C    0.981
   148   1 H    0.993 --    92 C    0.963
   149   1 H    0.994 --    93 C    0.966
   150   1 H    0.996 --    94 C    0.964
 ---------------------------------------------------------------------------

Topologies differ in bond orders
Writing corrected topology to xtbtopo.mol

molecular dipole:
                 x           y           z       tot (Debye)
 q only:       -1.111      -1.217       3.242
   full:       -0.998      -1.165       2.891       8.319
molecular quadrupole (traceless):
                xx          xy          yy          xz          yz          zz
 q only:      102.926      10.144     114.069      18.159     -29.468    -216.995
  q+dip:      112.337      10.332     111.324      15.218     -27.590    -223.662
   full:      121.785       7.528     107.336      15.194     -26.128    -229.121


           -------------------------------------------------
          | TOTAL ENERGY             -258.331234067583 Eh   |
          | GRADIENT NORM               0.041858912737 Eh/α |
          | HOMO-LUMO GAP               0.288280773611 eV   |
           -------------------------------------------------

------------------------------------------------------------------------
 * finished run on 2022/02/05 at 01:14:54.583     
------------------------------------------------------------------------
 total:
 * wall-time:     0 d,  0 h,  0 min,  0.572 sec
 *  cpu-time:     0 d,  0 h,  0 min,  4.470 sec
 * ratio c/w:     7.822 speedup
 SCF:
 * wall-time:     0 d,  0 h,  0 min,  0.487 sec
 *  cpu-time:     0 d,  0 h,  0 min,  3.878 sec
 * ratio c/w:     7.964 speedup

