      -----------------------------------------------------------      
     |                   =====================                   |     
     |                           x T B                           |     
     |                   =====================                   |     
     |                         S. Grimme                         |     
     |          Mulliken Center for Theoretical Chemistry        |     
     |                    University of Bonn                     |     
      -----------------------------------------------------------      

   * xtb version 6.4.1 (unknown) compiled by 'oda6@login1.crc.pitt.edu' on 2021-06-25

   xtb is free software: you can redistribute it and/or modify it under
   the terms of the GNU Lesser General Public License as published by
   the Free Software Foundation, either version 3 of the License, or
   (at your option) any later version.
   
   xtb is distributed in the hope that it will be useful,
   but WITHOUT ANY WARRANTY; without even the implied warranty of
   MERCHANTABILITY or FITNESS FOR A PARTICULAR PURPOSE.  See the
   GNU Lesser General Public License for more details.
   
   Cite this work as:
   * C. Bannwarth, E. Caldeweyher, S. Ehlert, A. Hansen, P. Pracht,
     J. Seibert, S. Spicher, S. Grimme, WIREs Comput. Mol. Sci., 2020, 11,
     e01493. DOI: 10.1002/wcms.1493
   
   for GFN2-xTB:
   * C. Bannwarth, S. Ehlert and S. Grimme., J. Chem. Theory Comput., 2019,
     15, 1652-1671. DOI: 10.1021/acs.jctc.8b01176
   for GFN1-xTB:
   * S. Grimme, C. Bannwarth, P. Shushkov, J. Chem. Theory Comput., 2017,
     13, 1989-2009. DOI: 10.1021/acs.jctc.7b00118
   for GFN0-xTB:
   * P. Pracht, E. Caldeweyher, S. Ehlert, S. Grimme, ChemRxiv, 2019, preprint.
     DOI: 10.26434/chemrxiv.8326202.v1
   for GFN-FF:
   * S. Spicher and S. Grimme, Angew. Chem. Int. Ed., 2020, 59, 15665-15673.
     DOI: 10.1002/anie.202004239
   
   for DFT-D4:
   * E. Caldeweyher, C. Bannwarth and S. Grimme, J. Chem. Phys., 2017,
     147, 034112. DOI: 10.1063/1.4993215
   * E. Caldeweyher, S. Ehlert, A. Hansen, H. Neugebauer, S. Spicher,
     C. Bannwarth and S. Grimme, J. Chem. Phys., 2019, 150, 154122.
     DOI: 10.1063/1.5090222
   * E. Caldeweyher, J.-M. Mewes, S. Ehlert and S. Grimme, Phys. Chem. Chem. Phys.
     2020, 22, 8499-8512. DOI: 10.1039/D0CP00502A
   
   for sTDA-xTB:
   * S. Grimme and C. Bannwarth, J. Chem. Phys., 2016, 145, 054103.
     DOI: 10.1063/1.4959605
   
   in the mass-spec context:
   * V. Asgeirsson, C. Bauer and S. Grimme, Chem. Sci., 2017, 8, 4879.
     DOI: 10.1039/c7sc00601b
   * J. Koopman and S. Grimme, ACS Omega 2019, 4, 12, 15120-15133.
     DOI: 10.1021/acsomega.9b02011
   
   for metadynamics refer to:
   * S. Grimme, J. Chem. Theory Comput., 2019, 155, 2847-2862
     DOI: 10.1021/acs.jctc.9b00143
   
   for SPH calculations refer to:
   * S. Spicher and S. Grimme, J. Chem. Theory Comput., 2021, 17, 1701-1714
     DOI: 10.1021/acs.jctc.0c01306
   
   with help from (in alphabetical order)
   P. Atkinson, C. Bannwarth, F. Bohle, G. Brandenburg, E. Caldeweyher
   M. Checinski, S. Dohm, S. Ehlert, S. Ehrlich, I. Gerasimov, J. Koopman
   C. Lavigne, S. Lehtola, F. März, M. Müller, F. Musil, H. Neugebauer
   J. Pisarek, C. Plett, P. Pracht, J. Seibert, P. Shushkov, S. Spicher
   M. Stahn, M. Steiner, T. Strunk, J. Stückrath, T. Rose, and J. Unsleber
   
 * started run on 2022/02/11 at 08:03:15.624     

           -------------------------------------------------
          |                Calculation Setup                |
           -------------------------------------------------

          program call               : /ihome/ghutchison/oda6/xtb/xtb-641/bin/xtb ../../GFN2_output/64_28_54_28_65.mol --sp --alpb water
          hostname                   : smp-n25
          coordinate file            : ../../GFN2_output/64_28_54_28_65.mol
          omp threads                :                     8
          number of atoms            :                   222
          number of electrons        :                   690
          charge                     :                     0
          spin                       :                   0.0
          first test random number   :      0.15934450856609

   ID    Z sym.   atoms
    1    6 C      1-3, 5-7, 9, 11-15, 17, 19, 20, 22-36, 38, 39, 41-55,
                  57-80, 82, 83, 85, 86, 88-102, 104, 105, 107-121, 123-125,
                  127, 128, 130, 132, 134, 136-139, 141
    2    8 O      4, 126
    3   17 Cl     8, 129, 131, 133, 135
    4    9 F      10
    5    7 N      16, 18, 21, 40, 87, 106, 140, 142
    6   16 S      37, 56, 81, 84, 103, 122
    7    1 H      143-222

           -------------------------------------------------
          |                 G F N 2 - x T B                 |
           -------------------------------------------------

        Reference                      10.1021/acs.jctc.8b01176
      * Hamiltonian:
        H0-scaling (s, p, d)           1.850000    2.230000    2.230000
        zeta-weighting                 0.500000
      * Dispersion:
        s8                             2.700000
        a1                             0.520000
        a2                             5.000000
        s9                             5.000000
      * Repulsion:
        kExp                           1.500000    1.000000
        rExp                           1.000000
      * Coulomb:
        alpha                          2.000000
        third order                    shell-resolved
        anisotropic                    true
        a3                             3.000000
        a5                             4.000000
        cn-shift                       1.200000
        cn-exp                         4.000000
        max-rad                        5.000000

      * Solvation model:               ALPB
        Solvent                        water
        Parameter file                 internal GFN2-xTB/ALPB
        Dielectric constant                8.0200E+01
        Reference state                gsolv [1 M gas/solution]
        Free energy shift                  1.0808E-03 Eh       6.7819E-01 kcal/mol
        Temperature                        2.9815E+02 K
        Density                            1.0000E+00 kg/L
        Solvent mass                       1.8000E+01 g/mol
        Interaction kernel             P16
        Born radius scaling (c1)           1.4744E+00
        Born radii integrator          GBOBC
        Born offset                        0.0000E+00 a0       0.0000E+00 AA
        H-bond correction              true
        Ion screening                  false
        Surface tension                    1.0000E-05 Eh       1.5569E+01 dyn/cm
        Grid points                               230 per atom

          ...................................................
          :                      SETUP                      :
          :.................................................:
          :  # basis functions                 714          :
          :  # atomic orbitals                 703          :
          :  # shells                          375          :
          :  # electrons                       690          :
          :  max. iterations                   250          :
          :  Hamiltonian                  GFN2-xTB          :
          :  restarted?                      false          :
          :  GBSA solvation                   true          :
          :  PC potential                    false          :
          :  electronic temp.          300.0000000     K    :
          :  accuracy                    1.0000000          :
          :  -> integral cutoff          0.2500000E+02      :
          :  -> integral neglect         0.1000000E-07      :
          :  -> SCF convergence          0.1000000E-05 Eh   :
          :  -> wf. convergence          0.1000000E-03 e    :
          :  Broyden damping             0.4000000          :
          ...................................................

 iter      E             dE          RMSdq      gap      omega  full diag
   1   -382.1355836 -0.382136E+03  0.431E+00    0.34       0.0  T
   2   -382.3763959 -0.240812E+00  0.258E+00    0.49       1.0  T
   3   -382.1812828  0.195113E+00  0.128E+00    0.21       1.0  T
   4   -382.4271833 -0.245900E+00  0.498E-01    0.58       1.0  T
   5   -382.4707560 -0.435727E-01  0.150E-01    0.33       1.0  T
   6   -382.4724319 -0.167590E-02  0.684E-02    0.33       1.0  T
   7   -382.4726344 -0.202488E-03  0.371E-02    0.32       1.0  T
   8   -382.4727032 -0.687238E-04  0.251E-02    0.33       1.0  T
   9   -382.4727436 -0.404169E-04  0.177E-02    0.33       1.0  T
  10   -382.4727638 -0.202567E-04  0.121E-02    0.34       1.0  T
  11   -382.4727747 -0.109059E-04  0.762E-03    0.34       1.0  T
  12   -382.4727806 -0.588580E-05  0.390E-03    0.34       1.7  T
  13   -382.4727820 -0.139966E-05  0.234E-03    0.34       2.9  T
  14   -382.4727824 -0.401791E-06  0.161E-03    0.34       4.2  T
  15   -382.4727826 -0.142702E-06  0.115E-03    0.34       5.8  T
  16   -382.4727827 -0.117583E-06  0.652E-04    0.34      10.3  T
  17   -382.4727827 -0.451855E-07  0.356E-04    0.34      18.8  T

   *** convergence criteria satisfied after 17 iterations ***

         #    Occupation            Energy/Eh            Energy/eV
      -------------------------------------------------------------
         1        2.0000           -1.0890436             -29.6344
       ...           ...                  ...                  ...
       339        2.0000           -0.3862691             -10.5109
       340        2.0000           -0.3776783             -10.2771
       341        2.0000           -0.3706787             -10.0867
       342        2.0000           -0.3643853              -9.9154
       343        2.0000           -0.3613671              -9.8333
       344        2.0000           -0.3520231              -9.5790
       345        1.9970           -0.3478749              -9.4662 (HOMO)
       346        0.0030           -0.3355195              -9.1300 (LUMO)
       347        0.0000           -0.3298934              -8.9769
       348                         -0.3241813              -8.8214
       349                         -0.3210364              -8.7358
       350                         -0.2903854              -7.9018
       ...                                ...                  ...
       703                          1.1551417              31.4330
      -------------------------------------------------------------
                  HL-Gap            0.0123553 Eh            0.3362 eV
             Fermi-level           -0.3416925 Eh           -9.2979 eV

 SCC (total)                   0 d,  0 h,  0 min,  1.124 sec
 SCC setup                      ...        0 min,  0.010 sec (  0.878%)
 Dispersion                     ...        0 min,  0.013 sec (  1.121%)
 classical contributions        ...        0 min,  0.001 sec (  0.047%)
 integral evaluation            ...        0 min,  0.047 sec (  4.171%)
 iterations                     ...        0 min,  0.892 sec ( 79.379%)
 molecular gradient             ...        0 min,  0.156 sec ( 13.917%)
 printout                       ...        0 min,  0.005 sec (  0.478%)

         :::::::::::::::::::::::::::::::::::::::::::::::::::::
         ::                     SUMMARY                     ::
         :::::::::::::::::::::::::::::::::::::::::::::::::::::
         :: total energy            -376.324811524153 Eh    ::
         :: total w/o Gsasa/hb      -376.301775808268 Eh    ::
         :: gradient norm              0.040332245695 Eh/a0 ::
         :: HOMO-LUMO gap              0.336205639273 eV    ::
         ::.................................................::
         :: SCC energy              -382.472782727269 Eh    ::
         :: -> isotropic ES            0.170116771081 Eh    ::
         :: -> anisotropic ES          0.021800174872 Eh    ::
         :: -> anisotropic XC          0.209935857534 Eh    ::
         :: -> dispersion             -0.411208832154 Eh    ::
         :: -> Gsolv                  -0.056238525411 Eh    ::
         ::    -> Gelec               -0.033202809525 Eh    ::
         ::    -> Gsasa               -0.017065214432 Eh    ::
         ::    -> Ghb                 -0.007051261152 Eh    ::
         ::    -> Gshift               0.001080759698 Eh    ::
         :: repulsion energy           6.134914197470 Eh    ::
         :: add. restraining           0.000000000000 Eh    ::
         :: total charge               0.000000000250 e     ::
         :::::::::::::::::::::::::::::::::::::::::::::::::::::

           -------------------------------------------------
          |                Property Printout                |
           -------------------------------------------------

    * Orbital Energies and Occupations

         #    Occupation            Energy/Eh            Energy/eV
      -------------------------------------------------------------
         1        2.0000           -1.0890436             -29.6344
       ...           ...                  ...                  ...
       333        2.0000           -0.3963120             -10.7842
       334        2.0000           -0.3954355             -10.7603
       335        2.0000           -0.3938408             -10.7170
       336        2.0000           -0.3926493             -10.6845
       337        2.0000           -0.3921754             -10.6716
       338        2.0000           -0.3907194             -10.6320
       339        2.0000           -0.3862691             -10.5109
       340        2.0000           -0.3776783             -10.2771
       341        2.0000           -0.3706787             -10.0867
       342        2.0000           -0.3643853              -9.9154
       343        2.0000           -0.3613671              -9.8333
       344        2.0000           -0.3520231              -9.5790
       345        1.9970           -0.3478749              -9.4662 (HOMO)
       346        0.0030           -0.3355195              -9.1300 (LUMO)
       347        0.0000           -0.3298934              -8.9769
       348                         -0.3241813              -8.8214
       349                         -0.3210364              -8.7358
       350                         -0.2903854              -7.9018
       351                         -0.2841562              -7.7323
       352                         -0.2715732              -7.3899
       353                         -0.2622041              -7.1349
       354                         -0.2559148              -6.9638
       355                         -0.2518464              -6.8531
       356                         -0.2503288              -6.8118
       ...                                ...                  ...
       703                          1.1551417              31.4330
      -------------------------------------------------------------
                  HL-Gap            0.0123553 Eh            0.3362 eV
             Fermi-level           -0.3416925 Eh           -9.2979 eV

     #   Z          covCN         q      C6AA      α(0)
     1   6 C        2.967    -0.016    28.404     8.742
     2   6 C        3.014    -0.047    29.139     8.855
     3   6 C        2.874     0.234    23.110     7.880
     4   8 O        0.856    -0.418    22.043     6.295
     5   6 C        3.046    -0.018    28.413     8.742
     6   6 C        2.947    -0.028    28.709     8.788
     7   6 C        2.885     0.089    26.016     8.362
     8  17 Cl       0.960    -0.141   103.569    15.569
     9   6 C        2.819     0.175    24.236     8.066
    10   9 F        0.788    -0.220    11.445     3.996
    11   6 C        2.913    -0.044    29.101     8.846
    12   6 C        3.042     0.011    27.737     8.638
    13   6 C        3.024     0.034    27.211     8.557
    14   6 C        2.948    -0.008    28.207     8.711
    15   6 C        1.930     0.130    27.911     8.532
    16   7 N        0.911    -0.291    27.508     7.585
    17   6 C        1.932     0.132    27.851     8.523
    18   7 N        0.911    -0.301    27.740     7.617
    19   6 C        2.986     0.005    27.895     8.664
    20   6 C        3.033     0.063    26.547     8.451
    21   7 N        2.747    -0.049    22.189     6.996
    22   6 C        2.939     0.054    26.780     8.487
    23   6 C        2.922    -0.039    28.980     8.828
    24   6 C        2.926    -0.039    28.968     8.826
    25   6 C        2.966     0.026    27.429     8.591
    26   6 C        3.758    -0.121    22.877     6.819
    27   6 C        2.925    -0.040    28.999     8.831
    28   6 C        2.920    -0.042    29.033     8.836
    29   6 C        2.924     0.058    26.693     8.473
    30   6 C        2.922    -0.043    29.075     8.843
    31   6 C        2.925    -0.043    29.064     8.841
    32   6 C        2.965     0.019    27.579     8.614
    33   6 C        3.758    -0.125    22.946     6.829
    34   6 C        2.925    -0.041    29.030     8.836
    35   6 C        2.920    -0.047    29.157     8.855
    36   6 C        3.172     0.000    27.644     8.589
    37  16 S        2.287    -0.045   142.904    20.120
    38   6 C        3.022     0.002    27.947     8.672
    39   6 C        3.052     0.051    26.813     8.492
    40   7 N        2.748    -0.065    22.494     7.044
    41   6 C        2.926     0.060    26.663     8.468
    42   6 C        2.920    -0.050    29.247     8.869
    43   6 C        2.926    -0.042    29.053     8.839
    44   6 C        2.965     0.012    27.751     8.641
    45   6 C        3.757    -0.121    22.863     6.817
    46   6 C        2.925    -0.039    28.979     8.828
    47   6 C        2.921    -0.047    29.172     8.857
    48   6 C        2.933     0.057    26.715     8.477
    49   6 C        2.922    -0.048    29.191     8.860
    50   6 C        2.925    -0.043    29.059     8.840
    51   6 C        2.966     0.015    27.677     8.629
    52   6 C        3.758    -0.124    22.930     6.827
    53   6 C        2.926    -0.043    29.062     8.841
    54   6 C        2.920    -0.047    29.166     8.856
    55   6 C        3.177     0.014    27.298     8.531
    56  16 S        2.287    -0.041   142.730    20.108
    57   6 C        3.032     0.028    27.354     8.579
    58   6 C        3.068    -0.054    29.261     8.870
    59   6 C        3.130    -0.002    27.881     8.645
    60   6 C        2.995    -0.005    28.127     8.700
    61   6 C        2.977     0.008    27.841     8.655
    62   6 C        2.924    -0.036    28.897     8.816
    63   6 C        2.924    -0.039    28.975     8.827
    64   6 C        2.969     0.014    27.698     8.633
    65   6 C        3.806    -0.064    21.724     6.635
    66   6 C        3.753    -0.107    22.609     6.780
    67   6 C        2.924    -0.043    29.061     8.840
    68   6 C        2.923    -0.035    28.879     8.813
    69   6 C        3.008     0.023    27.466     8.597
    70   6 C        3.140    -0.003    27.853     8.637
    71   6 C        2.996    -0.004    28.113     8.698
    72   6 C        2.978     0.008    27.841     8.655
    73   6 C        2.923    -0.035    28.881     8.813
    74   6 C        2.924    -0.042    29.031     8.836
    75   6 C        2.971     0.014    27.689     8.631
    76   6 C        3.806    -0.064    21.718     6.634
    77   6 C        3.754    -0.107    22.599     6.779
    78   6 C        2.924    -0.038    28.949     8.823
    79   6 C        2.923    -0.034    28.839     8.807
    80   6 C        3.010     0.022    27.494     8.601
    81  16 S        2.265    -0.069   143.934    20.192
    82   6 C        3.065    -0.051    29.209     8.862
    83   6 C        3.016     0.028    27.351     8.579
    84  16 S        2.280    -0.072   144.067    20.202
    85   6 C        3.027     0.001    27.981     8.677
    86   6 C        3.051     0.051    26.812     8.492
    87   7 N        2.748    -0.065    22.489     7.043
    88   6 C        2.932     0.059    26.687     8.472
    89   6 C        2.921    -0.046    29.151     8.854
    90   6 C        2.926    -0.040    29.000     8.831
    91   6 C        2.966     0.015    27.666     8.628
    92   6 C        3.758    -0.115    22.757     6.801
    93   6 C        2.926    -0.040    28.998     8.831
    94   6 C        2.922    -0.047    29.161     8.856
    95   6 C        2.926     0.059    26.684     8.471
    96   6 C        2.922    -0.046    29.149     8.854
    97   6 C        2.925    -0.040    28.983     8.829
    98   6 C        2.966     0.011    27.768     8.643
    99   6 C        3.758    -0.113    22.705     6.794
   100   6 C        2.926    -0.041    29.015     8.834
   101   6 C        2.920    -0.051    29.263     8.871
   102   6 C        3.166     0.003    27.601     8.585
   103  16 S        2.301    -0.031   142.347    20.081
   104   6 C        2.983     0.010    27.776     8.645
   105   6 C        3.040     0.064    26.531     8.448
   106   7 N        2.748    -0.031    21.845     6.942
   107   6 C        2.935     0.056    26.734     8.480
   108   6 C        2.921    -0.041    29.030     8.835
   109   6 C        2.926    -0.040    28.991     8.830
   110   6 C        2.966     0.024    27.464     8.596
   111   6 C        3.758    -0.129    23.023     6.841
   112   6 C        2.925    -0.040    29.003     8.832
   113   6 C        2.920    -0.042    29.041     8.837
   114   6 C        2.926     0.055    26.774     8.486
   115   6 C        2.920    -0.040    28.991     8.830
   116   6 C        2.926    -0.040    28.996     8.831
   117   6 C        2.965     0.018    27.609     8.619
   118   6 C        3.758    -0.125    22.949     6.830
   119   6 C        2.925    -0.043    29.061     8.840
   120   6 C        2.919    -0.049    29.214     8.863
   121   6 C        3.146     0.001    27.738     8.616
   122  16 S        2.239    -0.035   142.520    20.093
   123   6 C        2.921    -0.017    28.427     8.743
   124   6 C        3.013    -0.046    29.133     8.854
   125   6 C        2.875     0.236    23.083     7.876
   126   8 O        0.949    -0.398    21.588     6.232
   127   6 C        3.085    -0.029    28.628     8.771
   128   6 C        2.912     0.096    25.868     8.340
   129  17 Cl       0.992    -0.090   101.954    15.448
   130   6 C        2.961     0.080    26.208     8.397
   131  17 Cl       1.030    -0.088   101.898    15.444
   132   6 C        2.964     0.083    26.148     8.388
   133  17 Cl       1.055    -0.090   101.966    15.449
   134   6 C        2.915     0.088    26.035     8.367
   135  17 Cl       1.015    -0.105   102.442    15.485
   136   6 C        3.057     0.002    27.918     8.665
   137   6 C        3.026     0.038    27.131     8.544
   138   6 C        2.947     0.002    27.980     8.676
   139   6 C        1.965     0.133    27.820     8.518
   140   7 N        0.911    -0.290    27.476     7.581
   141   6 C        1.958     0.128    27.936     8.535
   142   7 N        0.911    -0.276    27.123     7.532
   143   1 H        0.925     0.080     1.981     2.201
   144   1 H        0.926     0.108     1.716     2.049
   145   1 H        0.926     0.093     1.847     2.125
   146   1 H        0.926     0.026     2.650     2.545
   147   1 H        0.926     0.052     2.298     2.371
   148   1 H        0.925     0.061     2.186     2.312
   149   1 H        0.925     0.058     2.226     2.333
   150   1 H        0.925     0.066     2.135     2.285
   151   1 H        0.926     0.060     2.203     2.321
   152   1 H        0.926     0.049     2.331     2.388
   153   1 H        0.926     0.041     2.432     2.439
   154   1 H        0.926     0.049     2.329     2.387
   155   1 H        0.925     0.056     2.242     2.341
   156   1 H        0.924     0.078     2.003     2.213
   157   1 H        0.925     0.049     2.334     2.389
   158   1 H        0.926     0.053     2.289     2.366
   159   1 H        0.926     0.041     2.440     2.443
   160   1 H        0.926     0.022     2.698     2.568
   161   1 H        0.926     0.037     2.483     2.464
   162   1 H        0.925     0.051     2.303     2.373
   163   1 H        0.925     0.051     2.305     2.374
   164   1 H        0.924     0.058     2.227     2.334
   165   1 H        0.926     0.042     2.417     2.431
   166   1 H        0.926     0.040     2.450     2.448
   167   1 H        0.926     0.033     2.549     2.497
   168   1 H        0.926     0.044     2.401     2.423
   169   1 H        0.924     0.059     2.206     2.323
   170   1 H        0.925     0.053     2.284     2.363
   171   1 H        0.925     0.054     2.275     2.359
   172   1 H        0.926     0.044     2.397     2.421
   173   1 H        0.926     0.039     2.464     2.455
   174   1 H        0.926     0.057     2.237     2.339
   175   1 H        0.926     0.036     2.506     2.476
   176   1 H        0.926     0.038     2.479     2.462
   177   1 H        0.924     0.043     2.408     2.426
   178   1 H        0.924     0.044     2.399     2.422
   179   1 H        0.925     0.042     2.418     2.432
   180   1 H        0.925     0.040     2.449     2.447
   181   1 H        0.925     0.038     2.471     2.458
   182   1 H        0.925     0.043     2.413     2.429
   183   1 H        0.926     0.040     2.449     2.447
   184   1 H        0.926     0.033     2.548     2.496
   185   1 H        0.926     0.038     2.473     2.459
   186   1 H        0.924     0.043     2.416     2.431
   187   1 H        0.924     0.042     2.428     2.437
   188   1 H        0.925     0.040     2.448     2.447
   189   1 H        0.925     0.039     2.457     2.451
   190   1 H        0.925     0.043     2.409     2.427
   191   1 H        0.926     0.038     2.478     2.461
   192   1 H        0.926     0.034     2.524     2.484
   193   1 H        0.926     0.058     2.228     2.334
   194   1 H        0.926     0.038     2.474     2.460
   195   1 H        0.926     0.040     2.455     2.450
   196   1 H        0.925     0.051     2.304     2.374
   197   1 H        0.925     0.052     2.298     2.371
   198   1 H        0.924     0.047     2.359     2.402
   199   1 H        0.926     0.038     2.475     2.460
   200   1 H        0.926     0.035     2.511     2.478
   201   1 H        0.926     0.037     2.491     2.468
   202   1 H        0.926     0.041     2.439     2.442
   203   1 H        0.924     0.045     2.389     2.417
   204   1 H        0.925     0.051     2.313     2.378
   205   1 H        0.925     0.054     2.273     2.358
   206   1 H        0.926     0.035     2.522     2.484
   207   1 H        0.926     0.026     2.642     2.542
   208   1 H        0.926     0.038     2.481     2.463
   209   1 H        0.926     0.053     2.281     2.362
   210   1 H        0.925     0.056     2.250     2.346
   211   1 H        0.925     0.063     2.163     2.300
   212   1 H        0.925     0.066     2.130     2.282
   213   1 H        0.926     0.055     2.260     2.351
   214   1 H        0.926     0.049     2.333     2.389
   215   1 H        0.926     0.058     2.224     2.332
   216   1 H        0.926     0.051     2.304     2.374
   217   1 H        0.925     0.053     2.286     2.365
   218   1 H        0.925     0.056     2.251     2.346
   219   1 H        0.925     0.065     2.143     2.289
   220   1 H        0.926     0.047     2.357     2.401
   221   1 H        0.926     0.038     2.481     2.463
   222   1 H        0.925     0.070     2.082     2.256

 Mol. C6AA /au·bohr⁶  :     855323.934913
 Mol. C8AA /au·bohr⁸  :   23742515.897591
 Mol. α(0) /au        :       1482.362255


Wiberg/Mayer (AO) data.
largest (>0.10) Wiberg bond orders for each atom

 ---------------------------------------------------------------------------
     #   Z sym  total        # sym  WBO       # sym  WBO       # sym  WBO
 ---------------------------------------------------------------------------
     1   6 C    3.945 --     2 C    1.422    19 C    1.358   143 H    0.949
     2   6 C    3.956 --     1 C    1.422    13 C    1.196     3 C    1.048
     3   6 C    3.917 --     4 O    1.733     2 C    1.048     5 C    1.004
     4   8 O    2.006 --     3 C    1.733
     5   6 C    3.977 --     6 C    1.430    12 C    1.298     3 C    1.004
     6   6 C    3.970 --     5 C    1.430     7 C    1.379   144 H    0.957
     7   6 C    3.906 --     6 C    1.379     9 C    1.352     8 Cl   0.996
     8  17 Cl   1.138 --     7 C    0.996
     9   6 C    3.876 --    11 C    1.387     7 C    1.352    10 F    0.964
    10   9 F    1.095 --     9 C    0.964
    11   6 C    3.970 --    12 C    1.404     9 C    1.387   145 H    0.954
    12   6 C    3.985 --    11 C    1.404     5 C    1.298    13 C    1.072
    13   6 C    3.974 --    14 C    1.402     2 C    1.196    12 C    1.072
    14   6 C    3.959 --    13 C    1.402    17 C    1.121    15 C    1.117
    15   6 C    3.942 --    16 N    2.737    14 C    1.117
    16   7 N    2.951 --    15 C    2.737
    17   6 C    3.942 --    18 N    2.726    14 C    1.121
    18   7 N    2.956 --    17 C    2.726
    19   6 C    3.923 --     1 C    1.358    20 C    1.275    56 S    1.060
    20   6 C    3.960 --    19 C    1.275    36 C    1.249    21 N    1.169
    21   7 N    3.548 --    20 C    1.169    29 C    1.053    22 C    1.002
    22   6 C    3.954 --    28 C    1.381    23 C    1.372    21 N    1.002
    23   6 C    3.986 --    24 C    1.458    22 C    1.372   146 H    0.965
                            27 C    0.102
    24   6 C    3.987 --    23 C    1.458    25 C    1.397   147 H    0.968
                            28 C    0.104
    25   6 C    3.973 --    27 C    1.404    24 C    1.397    26 C    1.031
    26   6 C    3.992 --    25 C    1.031   149 H    0.984   148 H    0.971
                           150 H    0.961
    27   6 C    3.987 --    28 C    1.452    25 C    1.404   151 H    0.966
                            23 C    0.102
    28   6 C    3.978 --    27 C    1.452    22 C    1.381   152 H    0.966
                            24 C    0.104
    29   6 C    3.959 --    35 C    1.360    30 C    1.350    21 N    1.053
    30   6 C    3.982 --    31 C    1.465    29 C    1.350   153 H    0.965
    31   6 C    3.989 --    30 C    1.465    32 C    1.393   154 H    0.967
    32   6 C    3.972 --    34 C    1.395    31 C    1.393    33 C    1.032
    33   6 C    3.992 --    32 C    1.032   157 H    0.980   155 H    0.979
                           156 H    0.959
    34   6 C    3.986 --    35 C    1.460    32 C    1.395   158 H    0.967
    35   6 C    3.980 --    34 C    1.460    29 C    1.360   159 H    0.966
    36   6 C    3.934 --    55 C    1.354    20 C    1.249    37 S    1.104
    37  16 S    2.551 --    36 C    1.104    38 C    1.090
    38   6 C    3.903 --    39 C    1.388    57 C    1.177    37 S    1.090
    39   6 C    3.949 --    38 C    1.388    55 C    1.226    40 N    1.104
    40   7 N    3.495 --    39 C    1.104    41 C    1.051    48 C    1.035
    41   6 C    3.962 --    42 C    1.364    47 C    1.362    40 N    1.051
    42   6 C    3.985 --    43 C    1.462    41 C    1.364   160 H    0.968
                            46 C    0.102
    43   6 C    3.990 --    42 C    1.462    44 C    1.398   161 H    0.969
                            47 C    0.103
    44   6 C    3.978 --    46 C    1.402    43 C    1.398    45 C    1.028
    45   6 C    3.994 --    44 C    1.028   163 H    0.983   162 H    0.978
                           164 H    0.966
    46   6 C    3.990 --    47 C    1.458    44 C    1.402   165 H    0.967
                            42 C    0.102
    47   6 C    3.983 --    46 C    1.458    41 C    1.362   166 H    0.967
                            43 C    0.103
    48   6 C    3.962 --    54 C    1.371    49 C    1.368    40 N    1.035
    49   6 C    3.984 --    50 C    1.455    48 C    1.368   167 H    0.968
                            53 C    0.103
    50   6 C    3.990 --    49 C    1.455    51 C    1.404   168 H    0.968
                            54 C    0.104
    51   6 C    3.976 --    50 C    1.404    53 C    1.399    52 C    1.028
    52   6 C    3.994 --    51 C    1.028   170 H    0.981   171 H    0.980
                           169 H    0.964
    53   6 C    3.989 --    54 C    1.460    51 C    1.399   172 H    0.968
                            49 C    0.103
    54   6 C    3.983 --    53 C    1.460    48 C    1.371   173 H    0.967
                            50 C    0.104
    55   6 C    3.934 --    36 C    1.354    39 C    1.226    56 S    1.125
    56  16 S    2.523 --    55 C    1.125    19 C    1.060
    57   6 C    3.930 --    58 C    1.517    38 C    1.177    81 S    1.085
    58   6 C    3.941 --    57 C    1.517    59 C    1.241   174 H    0.954
    59   6 C    3.970 --    60 C    1.276    58 C    1.241    80 C    1.239
    60   6 C    3.957 --    69 C    1.390    59 C    1.276    61 C    1.047
    61   6 C    3.986 --    68 C    1.384    62 C    1.378    60 C    1.047
                            64 C    0.101
    62   6 C    3.984 --    63 C    1.459    61 C    1.378   175 H    0.965
                            67 C    0.103
    63   6 C    3.990 --    62 C    1.459    64 C    1.401   176 H    0.968
                            68 C    0.106
    64   6 C    3.979 --    67 C    1.407    63 C    1.401    65 C    1.014
                            61 C    0.101
    65   6 C    3.996 --    64 C    1.014    66 C    1.002   177 H    0.976
                           178 H    0.968
    66   6 C    3.994 --    65 C    1.002   181 H    0.987   180 H    0.986
                           179 H    0.986
    67   6 C    3.989 --    68 C    1.452    64 C    1.407   182 H    0.966
                            62 C    0.103
    68   6 C    3.985 --    67 C    1.452    61 C    1.384   183 H    0.966
                            63 C    0.106
    69   6 C    3.944 --    60 C    1.390    70 C    1.243    84 S    1.094
    70   6 C    3.966 --    71 C    1.288    69 C    1.243    82 C    1.223
    71   6 C    3.962 --    80 C    1.389    70 C    1.288    72 C    1.037
    72   6 C    3.987 --    73 C    1.386    79 C    1.386    71 C    1.037
                            75 C    0.102
    73   6 C    3.987 --    74 C    1.455    72 C    1.386   184 H    0.967
                            78 C    0.106
    74   6 C    3.990 --    73 C    1.455    75 C    1.405   185 H    0.968
                            79 C    0.106
    75   6 C    3.981 --    78 C    1.407    74 C    1.405    76 C    1.014
                            72 C    0.102
    76   6 C    3.996 --    75 C    1.014    77 C    1.000   187 H    0.974
                           186 H    0.973
    77   6 C    3.994 --    76 C    1.000   189 H    0.988   188 H    0.988
                           190 H    0.986
    78   6 C    3.990 --    79 C    1.453    75 C    1.407   191 H    0.967
                            73 C    0.106
    79   6 C    3.985 --    78 C    1.453    72 C    1.386   192 H    0.966
                            74 C    0.106
    80   6 C    3.941 --    71 C    1.389    59 C    1.239    81 S    1.096
    81  16 S    2.516 --    80 C    1.096    57 C    1.085
    82   6 C    3.952 --    83 C    1.556    70 C    1.223   193 H    0.957
    83   6 C    3.928 --    82 C    1.556    85 C    1.137    84 S    1.080
    84  16 S    2.509 --    69 C    1.094    83 C    1.080
    85   6 C    3.892 --    86 C    1.400    83 C    1.137   122 S    1.097
    86   6 C    3.952 --    85 C    1.400   102 C    1.220    87 N    1.111
    87   7 N    3.496 --    86 C    1.111    95 C    1.046    88 C    1.034
    88   6 C    3.963 --    89 C    1.372    94 C    1.368    87 N    1.034
    89   6 C    3.983 --    90 C    1.460    88 C    1.372   194 H    0.968
                            93 C    0.105
    90   6 C    3.990 --    89 C    1.460    91 C    1.400   195 H    0.969
                            94 C    0.103
    91   6 C    3.977 --    93 C    1.405    90 C    1.400    92 C    1.027
    92   6 C    3.995 --    91 C    1.027   196 H    0.981   197 H    0.981
                           198 H    0.965
    93   6 C    3.990 --    94 C    1.453    91 C    1.405   199 H    0.969
                            89 C    0.105
    94   6 C    3.985 --    93 C    1.453    88 C    1.368   200 H    0.968
                            90 C    0.103
    95   6 C    3.962 --    96 C    1.369   101 C    1.364    87 N    1.046
    96   6 C    3.985 --    97 C    1.456    95 C    1.369   201 H    0.968
                           100 C    0.103
    97   6 C    3.990 --    96 C    1.456    98 C    1.404   202 H    0.967
                           101 C    0.101
    98   6 C    3.981 --    97 C    1.404   100 C    1.398    99 C    1.027
    99   6 C    3.995 --    98 C    1.027   204 H    0.984   205 H    0.976
                           203 H    0.967
   100   6 C    3.990 --   101 C    1.461    98 C    1.398   206 H    0.968
                            96 C    0.103
   101   6 C    3.986 --   100 C    1.461    95 C    1.364   207 H    0.968
                            97 C    0.101
   102   6 C    3.942 --   121 C    1.343    86 C    1.220   103 S    1.133
   103  16 S    2.668 --   102 C    1.133   104 C    1.069   126 O    0.112
   104   6 C    3.926 --   123 C    1.407   105 C    1.223   103 S    1.069
   105   6 C    3.951 --   121 C    1.271   104 C    1.223   106 N    1.195
   106   7 N    3.551 --   105 C    1.195   114 C    1.030   107 C    1.021
   107   6 C    3.953 --   113 C    1.376   108 C    1.362   106 N    1.021
   108   6 C    3.981 --   109 C    1.466   107 C    1.362   208 H    0.967
                           112 C    0.102
   109   6 C    3.987 --   108 C    1.466   110 C    1.392   209 H    0.967
                           113 C    0.103
   110   6 C    3.968 --   112 C    1.404   109 C    1.392   111 C    1.031
   111   6 C    3.992 --   110 C    1.031   210 H    0.984   211 H    0.969
                           212 H    0.966
   112   6 C    3.988 --   113 C    1.453   110 C    1.404   213 H    0.966
                           108 C    0.102
   113   6 C    3.969 --   112 C    1.453   107 C    1.376   214 H    0.966
                           109 C    0.103
   114   6 C    3.957 --   120 C    1.366   115 C    1.365   106 N    1.030
   115   6 C    3.978 --   116 C    1.458   114 C    1.365   215 H    0.965
   116   6 C    3.990 --   115 C    1.458   117 C    1.401   216 H    0.968
                           120 C    0.106
   117   6 C    3.977 --   116 C    1.401   119 C    1.397   118 C    1.030
   118   6 C    3.993 --   117 C    1.030   217 H    0.985   219 H    0.970
                           218 H    0.968
   119   6 C    3.988 --   120 C    1.460   117 C    1.397   220 H    0.967
   120   6 C    3.984 --   119 C    1.460   114 C    1.366   221 H    0.968
                           116 C    0.106
   121   6 C    3.935 --   102 C    1.343   105 C    1.271   122 S    1.096
   122  16 S    2.533 --    85 C    1.097   121 C    1.096
   123   6 C    3.947 --   104 C    1.407   124 C    1.390   222 H    0.930
   124   6 C    3.952 --   123 C    1.390   137 C    1.171   125 C    1.101
   125   6 C    3.920 --   126 O    1.670   124 C    1.101   127 C    1.010
   126   8 O    2.068 --   125 C    1.670   103 S    0.112
   127   6 C    3.969 --   128 C    1.390   136 C    1.274   125 C    1.010
   128   6 C    3.924 --   127 C    1.390   130 C    1.309   129 Cl   1.028
   129  17 Cl   1.192 --   128 C    1.028
   130   6 C    3.919 --   132 C    1.374   128 C    1.309   131 Cl   1.025
   131  17 Cl   1.182 --   130 C    1.025
   132   6 C    3.926 --   130 C    1.374   134 C    1.315   133 Cl   1.025
   133  17 Cl   1.181 --   132 C    1.025
   134   6 C    3.909 --   136 C    1.374   132 C    1.315   135 Cl   1.014
   135  17 Cl   1.184 --   134 C    1.014
   136   6 C    3.977 --   134 C    1.374   127 C    1.274   137 C    1.078
   137   6 C    3.962 --   138 C    1.438   124 C    1.171   136 C    1.078
   138   6 C    3.942 --   137 C    1.438   141 C    1.106   139 C    1.106
   139   6 C    3.937 --   140 N    2.739   138 C    1.106
   140   7 N    2.945 --   139 C    2.739
   141   6 C    3.942 --   142 N    2.728   138 C    1.106
   142   7 N    2.959 --   141 C    2.728
   143   1 H    0.990 --     1 C    0.949
   144   1 H    0.988 --     6 C    0.957
   145   1 H    0.991 --    11 C    0.954
   146   1 H    0.999 --    23 C    0.965
   147   1 H    0.997 --    24 C    0.968
   148   1 H    0.995 --    26 C    0.971
   149   1 H    0.996 --    26 C    0.984
   150   1 H    0.994 --    26 C    0.961
   151   1 H    0.996 --    27 C    0.966
   152   1 H    0.997 --    28 C    0.966
   153   1 H    0.998 --    30 C    0.965
   154   1 H    0.997 --    31 C    0.967
   155   1 H    0.996 --    33 C    0.979
   156   1 H    0.991 --    33 C    0.959
   157   1 H    0.997 --    33 C    0.980
   158   1 H    0.997 --    34 C    0.967
   159   1 H    0.998 --    35 C    0.966
   160   1 H    0.999 --    42 C    0.968
   161   1 H    0.998 --    43 C    0.969
   162   1 H    0.996 --    45 C    0.978
   163   1 H    0.997 --    45 C    0.983
   164   1 H    0.995 --    45 C    0.966
   165   1 H    0.998 --    46 C    0.967
   166   1 H    0.998 --    47 C    0.967
   167   1 H    0.999 --    49 C    0.968
   168   1 H    0.998 --    50 C    0.968
   169   1 H    0.995 --    52 C    0.964
   170   1 H    0.997 --    52 C    0.981
   171   1 H    0.996 --    52 C    0.980
   172   1 H    0.998 --    53 C    0.968
   173   1 H    0.998 --    54 C    0.967
   174   1 H    0.996 --    58 C    0.954
   175   1 H    0.998 --    62 C    0.965
   176   1 H    0.998 --    63 C    0.968
   177   1 H    0.998 --    65 C    0.976
   178   1 H    0.997 --    65 C    0.968
   179   1 H    0.997 --    66 C    0.986
   180   1 H    0.998 --    66 C    0.986
   181   1 H    0.999 --    66 C    0.987
   182   1 H    0.997 --    67 C    0.966
   183   1 H    0.998 --    68 C    0.966
   184   1 H    0.999 --    73 C    0.967
   185   1 H    0.998 --    74 C    0.968
   186   1 H    0.998 --    76 C    0.973
   187   1 H    0.998 --    76 C    0.974
   188   1 H    0.998 --    77 C    0.988
   189   1 H    0.998 --    77 C    0.988
   190   1 H    0.997 --    77 C    0.986
   191   1 H    0.998 --    78 C    0.967
   192   1 H    0.998 --    79 C    0.966
   193   1 H    0.996 --    82 C    0.957
   194   1 H    0.998 --    89 C    0.968
   195   1 H    0.998 --    90 C    0.969
   196   1 H    0.997 --    92 C    0.981
   197   1 H    0.997 --    92 C    0.981
   198   1 H    0.996 --    92 C    0.965
   199   1 H    0.998 --    93 C    0.969
   200   1 H    0.998 --    94 C    0.968
   201   1 H    0.998 --    96 C    0.968
   202   1 H    0.998 --    97 C    0.967
   203   1 H    0.997 --    99 C    0.967
   204   1 H    0.997 --    99 C    0.984
   205   1 H    0.996 --    99 C    0.976
   206   1 H    0.998 --   100 C    0.968
   207   1 H    0.999 --   101 C    0.968
   208   1 H    0.998 --   108 C    0.967
   209   1 H    0.996 --   109 C    0.967
   210   1 H    0.997 --   111 C    0.984
   211   1 H    0.994 --   111 C    0.969
   212   1 H    0.994 --   111 C    0.966
   213   1 H    0.996 --   112 C    0.966
   214   1 H    0.997 --   113 C    0.966
   215   1 H    0.996 --   115 C    0.965
   216   1 H    0.997 --   116 C    0.968
   217   1 H    0.997 --   118 C    0.985
   218   1 H    0.995 --   118 C    0.968
   219   1 H    0.994 --   118 C    0.970
   220   1 H    0.997 --   119 C    0.967
   221   1 H    0.998 --   120 C    0.968
   222   1 H    0.994 --   123 C    0.930
 ---------------------------------------------------------------------------

Topologies differ in bond orders
Writing corrected topology to xtbtopo.mol

molecular dipole:
                 x           y           z       tot (Debye)
 q only:       -3.933       0.475       0.805
   full:       -3.456      -0.601       0.773       9.130
molecular quadrupole (traceless):
                xx          xy          yy          xz          yz          zz
 q only:       71.885    -108.533     101.640    -211.404    -135.980    -173.524
  q+dip:       59.568     -97.566      89.535    -182.047    -119.009    -149.102
   full:       53.173     -98.291      86.748    -176.792    -119.535    -139.922


           -------------------------------------------------
          | TOTAL ENERGY             -376.324811524153 Eh   |
          | GRADIENT NORM               0.040332245695 Eh/α |
          | HOMO-LUMO GAP               0.336205639273 eV   |
           -------------------------------------------------

------------------------------------------------------------------------
 * finished run on 2022/02/11 at 08:03:16.863     
------------------------------------------------------------------------
 total:
 * wall-time:     0 d,  0 h,  0 min,  1.239 sec
 *  cpu-time:     0 d,  0 h,  0 min,  9.795 sec
 * ratio c/w:     7.903 speedup
 SCF:
 * wall-time:     0 d,  0 h,  0 min,  1.127 sec
 *  cpu-time:     0 d,  0 h,  0 min,  8.984 sec
 * ratio c/w:     7.969 speedup

