      -----------------------------------------------------------      
     |                   =====================                   |     
     |                           x T B                           |     
     |                   =====================                   |     
     |                         S. Grimme                         |     
     |          Mulliken Center for Theoretical Chemistry        |     
     |                    University of Bonn                     |     
      -----------------------------------------------------------      

   * xtb version 6.4.1 (unknown) compiled by 'oda6@login1.crc.pitt.edu' on 2021-06-25

   xtb is free software: you can redistribute it and/or modify it under
   the terms of the GNU Lesser General Public License as published by
   the Free Software Foundation, either version 3 of the License, or
   (at your option) any later version.
   
   xtb is distributed in the hope that it will be useful,
   but WITHOUT ANY WARRANTY; without even the implied warranty of
   MERCHANTABILITY or FITNESS FOR A PARTICULAR PURPOSE.  See the
   GNU Lesser General Public License for more details.
   
   Cite this work as:
   * C. Bannwarth, E. Caldeweyher, S. Ehlert, A. Hansen, P. Pracht,
     J. Seibert, S. Spicher, S. Grimme, WIREs Comput. Mol. Sci., 2020, 11,
     e01493. DOI: 10.1002/wcms.1493
   
   for GFN2-xTB:
   * C. Bannwarth, S. Ehlert and S. Grimme., J. Chem. Theory Comput., 2019,
     15, 1652-1671. DOI: 10.1021/acs.jctc.8b01176
   for GFN1-xTB:
   * S. Grimme, C. Bannwarth, P. Shushkov, J. Chem. Theory Comput., 2017,
     13, 1989-2009. DOI: 10.1021/acs.jctc.7b00118
   for GFN0-xTB:
   * P. Pracht, E. Caldeweyher, S. Ehlert, S. Grimme, ChemRxiv, 2019, preprint.
     DOI: 10.26434/chemrxiv.8326202.v1
   for GFN-FF:
   * S. Spicher and S. Grimme, Angew. Chem. Int. Ed., 2020, 59, 15665-15673.
     DOI: 10.1002/anie.202004239
   
   for DFT-D4:
   * E. Caldeweyher, C. Bannwarth and S. Grimme, J. Chem. Phys., 2017,
     147, 034112. DOI: 10.1063/1.4993215
   * E. Caldeweyher, S. Ehlert, A. Hansen, H. Neugebauer, S. Spicher,
     C. Bannwarth and S. Grimme, J. Chem. Phys., 2019, 150, 154122.
     DOI: 10.1063/1.5090222
   * E. Caldeweyher, J.-M. Mewes, S. Ehlert and S. Grimme, Phys. Chem. Chem. Phys.
     2020, 22, 8499-8512. DOI: 10.1039/D0CP00502A
   
   for sTDA-xTB:
   * S. Grimme and C. Bannwarth, J. Chem. Phys., 2016, 145, 054103.
     DOI: 10.1063/1.4959605
   
   in the mass-spec context:
   * V. Asgeirsson, C. Bauer and S. Grimme, Chem. Sci., 2017, 8, 4879.
     DOI: 10.1039/c7sc00601b
   * J. Koopman and S. Grimme, ACS Omega 2019, 4, 12, 15120-15133.
     DOI: 10.1021/acsomega.9b02011
   
   for metadynamics refer to:
   * S. Grimme, J. Chem. Theory Comput., 2019, 155, 2847-2862
     DOI: 10.1021/acs.jctc.9b00143
   
   for SPH calculations refer to:
   * S. Spicher and S. Grimme, J. Chem. Theory Comput., 2021, 17, 1701-1714
     DOI: 10.1021/acs.jctc.0c01306
   
   with help from (in alphabetical order)
   P. Atkinson, C. Bannwarth, F. Bohle, G. Brandenburg, E. Caldeweyher
   M. Checinski, S. Dohm, S. Ehlert, S. Ehrlich, I. Gerasimov, J. Koopman
   C. Lavigne, S. Lehtola, F. März, M. Müller, F. Musil, H. Neugebauer
   J. Pisarek, C. Plett, P. Pracht, J. Seibert, P. Shushkov, S. Spicher
   M. Stahn, M. Steiner, T. Strunk, J. Stückrath, T. Rose, and J. Unsleber
   
 * started run on 2022/02/10 at 21:14:18.123     

           -------------------------------------------------
          |                Calculation Setup                |
           -------------------------------------------------

          program call               : /ihome/ghutchison/oda6/xtb/xtb-641/bin/xtb ../../GFN2_output/65_15_127_15_64.mol --sp --alpb water
          hostname                   : smp-n25
          coordinate file            : ../../GFN2_output/65_15_127_15_64.mol
          omp threads                :                     8
          number of atoms            :                   108
          number of electrons        :                   392
          charge                     :                     0
          spin                       :                   0.0
          first test random number   :      0.04301599071192

   ID    Z sym.   atoms
    1    6 C      1-3, 5, 6, 8, 10, 12, 14-17, 19, 21-24, 26-36, 38, 40, 41,
                  43-46, 48-54, 56-67, 69-71, 73, 75-79, 81
    2    8 O      4, 25, 55, 68
    3   17 Cl     7, 9, 11, 13, 72
    4    7 N      18, 20, 42, 47, 80, 82
    5    9 F      37, 39, 74
    6    1 H      83-108

           -------------------------------------------------
          |                 G F N 2 - x T B                 |
           -------------------------------------------------

        Reference                      10.1021/acs.jctc.8b01176
      * Hamiltonian:
        H0-scaling (s, p, d)           1.850000    2.230000    2.230000
        zeta-weighting                 0.500000
      * Dispersion:
        s8                             2.700000
        a1                             0.520000
        a2                             5.000000
        s9                             5.000000
      * Repulsion:
        kExp                           1.500000    1.000000
        rExp                           1.000000
      * Coulomb:
        alpha                          2.000000
        third order                    shell-resolved
        anisotropic                    true
        a3                             3.000000
        a5                             4.000000
        cn-shift                       1.200000
        cn-exp                         4.000000
        max-rad                        5.000000

      * Solvation model:               ALPB
        Solvent                        water
        Parameter file                 internal GFN2-xTB/ALPB
        Dielectric constant                8.0200E+01
        Reference state                gsolv [1 M gas/solution]
        Free energy shift                  1.0808E-03 Eh       6.7819E-01 kcal/mol
        Temperature                        2.9815E+02 K
        Density                            1.0000E+00 kg/L
        Solvent mass                       1.8000E+01 g/mol
        Interaction kernel             P16
        Born radius scaling (c1)           1.4744E+00
        Born radii integrator          GBOBC
        Born offset                        0.0000E+00 a0       0.0000E+00 AA
        H-bond correction              true
        Ion screening                  false
        Surface tension                    1.0000E-05 Eh       1.5569E+01 dyn/cm
        Grid points                               230 per atom

          ...................................................
          :                      SETUP                      :
          :.................................................:
          :  # basis functions                 384          :
          :  # atomic orbitals                 379          :
          :  # shells                          195          :
          :  # electrons                       392          :
          :  max. iterations                   250          :
          :  Hamiltonian                  GFN2-xTB          :
          :  restarted?                      false          :
          :  GBSA solvation                   true          :
          :  PC potential                    false          :
          :  electronic temp.          300.0000000     K    :
          :  accuracy                    1.0000000          :
          :  -> integral cutoff          0.2500000E+02      :
          :  -> integral neglect         0.1000000E-07      :
          :  -> SCF convergence          0.1000000E-05 Eh   :
          :  -> wf. convergence          0.1000000E-03 e    :
          :  Broyden damping             0.4000000          :
          ...................................................

 iter      E             dE          RMSdq      gap      omega  full diag
   1   -224.0142436 -0.224014E+03  0.545E+00    0.87       0.0  T
   2   -224.1686363 -0.154393E+00  0.316E+00    0.67       1.0  T
   3   -224.0442306  0.124406E+00  0.170E+00    0.69       1.0  T
   4   -224.2263502 -0.182120E+00  0.465E-01    0.63       1.0  T
   5   -224.2411298 -0.147796E-01  0.136E-01    0.52       1.0  T
   6   -224.2416377 -0.507856E-03  0.827E-02    0.53       1.0  T
   7   -224.2418075 -0.169896E-03  0.488E-02    0.52       1.0  T
   8   -224.2418684 -0.608349E-04  0.337E-02    0.53       1.0  T
   9   -224.2419026 -0.342522E-04  0.240E-02    0.54       1.0  T
  10   -224.2419229 -0.202222E-04  0.142E-02    0.54       1.0  T
  11   -224.2419325 -0.959667E-05  0.718E-03    0.55       1.3  T
  12   -224.2419343 -0.188112E-05  0.446E-03    0.54       2.2  T
  13   -224.2419350 -0.695908E-06  0.304E-03    0.55       3.2  T
  14   -224.2419353 -0.302391E-06  0.194E-03    0.55       5.0  T
  15   -224.2419355 -0.137188E-06  0.118E-03    0.54       8.1  T
  16   -224.2419355 -0.537193E-07  0.632E-04    0.54      15.2  T
  17   -224.2419355 -0.131174E-07  0.320E-04    0.54      30.1  T

   *** convergence criteria satisfied after 17 iterations ***

         #    Occupation            Energy/Eh            Energy/eV
      -------------------------------------------------------------
         1        2.0000           -1.0915297             -29.7020
       ...           ...                  ...                  ...
       190        2.0000           -0.4204466             -11.4409
       191        2.0000           -0.4168395             -11.3428
       192        2.0000           -0.4043314             -11.0024
       193        2.0000           -0.4039895             -10.9931
       194        2.0000           -0.4019922             -10.9388
       195        2.0000           -0.3934776             -10.7071
       196        1.9999           -0.3649305              -9.9303 (HOMO)
       197        0.0001           -0.3449281              -9.3860 (LUMO)
       198        0.0000           -0.3426936              -9.3252
       199                         -0.3351312              -9.1194
       200                         -0.3301525              -8.9839
       201                         -0.3182074              -8.6589
       ...                                ...                  ...
       379                          1.1492723              31.2733
      -------------------------------------------------------------
                  HL-Gap            0.0200023 Eh            0.5443 eV
             Fermi-level           -0.3549725 Eh           -9.6593 eV

 SCC (total)                   0 d,  0 h,  0 min,  0.568 sec
 SCC setup                      ...        0 min,  0.007 sec (  1.149%)
 Dispersion                     ...        0 min,  0.008 sec (  1.385%)
 classical contributions        ...        0 min,  0.000 sec (  0.079%)
 integral evaluation            ...        0 min,  0.023 sec (  4.006%)
 iterations                     ...        0 min,  0.498 sec ( 87.622%)
 molecular gradient             ...        0 min,  0.031 sec (  5.520%)
 printout                       ...        0 min,  0.001 sec (  0.223%)

         :::::::::::::::::::::::::::::::::::::::::::::::::::::
         ::                     SUMMARY                     ::
         :::::::::::::::::::::::::::::::::::::::::::::::::::::
         :: total energy            -220.948205179311 Eh    ::
         :: total w/o Gsasa/hb      -220.927326826910 Eh    ::
         :: gradient norm              0.038348353951 Eh/a0 ::
         :: HOMO-LUMO gap              0.544290999050 eV    ::
         ::.................................................::
         :: SCC energy              -224.241935535536 Eh    ::
         :: -> isotropic ES            0.241600966023 Eh    ::
         :: -> anisotropic ES         -0.004610151387 Eh    ::
         :: -> anisotropic XC          0.122734632254 Eh    ::
         :: -> dispersion             -0.170019534066 Eh    ::
         :: -> Gsolv                  -0.060460582447 Eh    ::
         ::    -> Gelec               -0.039582230046 Eh    ::
         ::    -> Gsasa               -0.014832788363 Eh    ::
         ::    -> Ghb                 -0.007126323736 Eh    ::
         ::    -> Gshift               0.001080759698 Eh    ::
         :: repulsion energy           3.294817581252 Eh    ::
         :: add. restraining           0.000000000000 Eh    ::
         :: total charge               0.000000000000 e     ::
         :::::::::::::::::::::::::::::::::::::::::::::::::::::

           -------------------------------------------------
          |                Property Printout                |
           -------------------------------------------------

    * Orbital Energies and Occupations

         #    Occupation            Energy/Eh            Energy/eV
      -------------------------------------------------------------
         1        2.0000           -1.0915297             -29.7020
       ...           ...                  ...                  ...
       184        2.0000           -0.4280567             -11.6480
       185        2.0000           -0.4257308             -11.5847
       186        2.0000           -0.4242172             -11.5435
       187        2.0000           -0.4231095             -11.5134
       188        2.0000           -0.4228102             -11.5053
       189        2.0000           -0.4209438             -11.4545
       190        2.0000           -0.4204466             -11.4409
       191        2.0000           -0.4168395             -11.3428
       192        2.0000           -0.4043314             -11.0024
       193        2.0000           -0.4039895             -10.9931
       194        2.0000           -0.4019922             -10.9388
       195        2.0000           -0.3934776             -10.7071
       196        1.9999           -0.3649305              -9.9303 (HOMO)
       197        0.0001           -0.3449281              -9.3860 (LUMO)
       198        0.0000           -0.3426936              -9.3252
       199                         -0.3351312              -9.1194
       200                         -0.3301525              -8.9839
       201                         -0.3182074              -8.6589
       202                         -0.3157825              -8.5929
       203                         -0.3070486              -8.3552
       204                         -0.2867206              -7.8021
       205                         -0.2772440              -7.5442
       206                         -0.2671462              -7.2694
       207                         -0.2643192              -7.1925
       ...                                ...                  ...
       379                          1.1492723              31.2733
      -------------------------------------------------------------
                  HL-Gap            0.0200023 Eh            0.5443 eV
             Fermi-level           -0.3549725 Eh           -9.6593 eV

     #   Z          covCN         q      C6AA      α(0)
     1   6 C        2.904     0.003    27.950     8.669
     2   6 C        3.007    -0.022    28.542     8.764
     3   6 C        2.862     0.250    22.817     7.830
     4   8 O        0.856    -0.369    21.073     6.155
     5   6 C        3.078    -0.025    28.533     8.758
     6   6 C        2.912     0.104    25.708     8.314
     7  17 Cl       0.993    -0.077   101.557    15.418
     8   6 C        2.960     0.086    26.079     8.376
     9  17 Cl       1.034    -0.076   101.527    15.415
    10   6 C        2.962     0.089    26.022     8.367
    11  17 Cl       1.053    -0.077   101.580    15.419
    12   6 C        2.914     0.095    25.900     8.345
    13  17 Cl       1.009    -0.092   102.026    15.453
    14   6 C        3.051     0.008    27.795     8.646
    15   6 C        3.022     0.050    26.853     8.500
    16   6 C        2.948     0.024    27.468     8.596
    17   6 C        1.944     0.136    27.765     8.509
    18   7 N        0.911    -0.247    26.437     7.436
    19   6 C        1.946     0.139    27.705     8.500
    20   7 N        0.911    -0.258    26.703     7.474
    21   6 C        2.972     0.028    27.368     8.581
    22   6 C        2.920    -0.015    28.395     8.738
    23   6 C        3.042    -0.021    28.501     8.756
    24   6 C        2.864     0.242    22.966     7.855
    25   8 O        0.856    -0.404    21.757     6.254
    26   6 C        3.044    -0.022    28.504     8.757
    27   6 C        3.039     0.014    27.655     8.625
    28   6 C        3.038     0.023    27.464     8.596
    29   6 C        2.911    -0.025    28.639     8.775
    30   6 C        2.924    -0.008    28.216     8.711
    31   6 C        2.912    -0.027    28.673     8.781
    32   6 C        2.925    -0.022    28.544     8.762
    33   6 C        2.977     0.032    27.276     8.567
    34   6 C        2.918    -0.010    28.277     8.720
    35   6 C        2.974    -0.014    28.360     8.735
    36   6 C        2.782     0.147    24.787     8.155
    37   9 F        0.787    -0.226    11.507     4.007
    38   6 C        2.781     0.147    24.786     8.155
    39   9 F        0.787    -0.226    11.505     4.007
    40   6 C        2.974    -0.014    28.360     8.735
    41   6 C        2.964     0.068    26.478     8.440
    42   7 N        1.852    -0.234    26.982     7.699
    43   6 C        2.940     0.096    25.867     8.341
    44   6 C        3.810    -0.072    21.876     6.658
    45   6 C        3.754    -0.106    22.585     6.776
    46   6 C        2.940     0.096    25.872     8.342
    47   7 N        1.852    -0.234    26.981     7.699
    48   6 C        2.964     0.068    26.480     8.441
    49   6 C        3.810    -0.071    21.859     6.655
    50   6 C        3.754    -0.110    22.656     6.787
    51   6 C        2.977     0.032    27.270     8.566
    52   6 C        2.918    -0.009    28.247     8.715
    53   6 C        3.044    -0.021    28.490     8.754
    54   6 C        2.864     0.243    22.949     7.852
    55   8 O        0.856    -0.399    21.665     6.240
    56   6 C        3.042    -0.018    28.428     8.745
    57   6 C        3.040     0.024    27.442     8.592
    58   6 C        3.039     0.015    27.651     8.625
    59   6 C        2.912    -0.027    28.667     8.780
    60   6 C        2.925    -0.021    28.542     8.761
    61   6 C        2.911    -0.027    28.682     8.782
    62   6 C        2.925    -0.019    28.493     8.754
    63   6 C        2.971     0.024    27.462     8.596
    64   6 C        2.919    -0.013    28.345     8.731
    65   6 C        2.907    -0.000    28.039     8.683
    66   6 C        3.005    -0.024    28.591     8.771
    67   6 C        2.870     0.243    22.946     7.852
    68   8 O        0.856    -0.390    21.487     6.215
    69   6 C        3.039    -0.011    28.256     8.719
    70   6 C        2.947    -0.027    28.666     8.781
    71   6 C        2.884     0.096    25.871     8.339
    72  17 Cl       0.962    -0.130   103.199    15.542
    73   6 C        2.819     0.181    24.111     8.046
    74   9 F        0.788    -0.212    11.361     3.981
    75   6 C        2.912    -0.042    29.034     8.836
    76   6 C        3.038     0.016    27.614     8.619
    77   6 C        3.016     0.048    26.893     8.507
    78   6 C        2.947     0.020    27.558     8.610
    79   6 C        1.932     0.136    27.777     8.511
    80   7 N        0.911    -0.258    26.685     7.471
    81   6 C        1.932     0.136    27.761     8.509
    82   7 N        0.911    -0.255    26.620     7.462
    83   1 H        0.925     0.091     1.871     2.139
    84   1 H        0.926     0.073     2.055     2.242
    85   1 H        0.926     0.079     1.986     2.204
    86   1 H        0.926     0.081     1.968     2.194
    87   1 H        0.926     0.076     2.024     2.225
    88   1 H        0.926     0.069     2.100     2.266
    89   1 H        0.926     0.070     2.091     2.261
    90   1 H        0.925     0.064     2.148     2.292
    91   1 H        0.924     0.071     2.074     2.252
    92   1 H        0.925     0.059     2.214     2.327
    93   1 H        0.925     0.042     2.421     2.433
    94   1 H        0.925     0.043     2.405     2.425
    95   1 H        0.925     0.063     2.161     2.299
    96   1 H        0.924     0.069     2.102     2.267
    97   1 H        0.925     0.048     2.347     2.396
    98   1 H        0.925     0.060     2.204     2.321
    99   1 H        0.925     0.043     2.404     2.425
   100   1 H        0.926     0.069     2.098     2.265
   101   1 H        0.926     0.075     2.031     2.229
   102   1 H        0.926     0.069     2.091     2.261
   103   1 H        0.926     0.077     2.011     2.218
   104   1 H        0.926     0.062     2.170     2.304
   105   1 H        0.926     0.075     2.035     2.231
   106   1 H        0.925     0.100     1.781     2.087
   107   1 H        0.926     0.118     1.632     1.998
   108   1 H        0.926     0.106     1.731     2.057

 Mol. C6AA /au·bohr⁶  :     229167.867852
 Mol. C8AA /au·bohr⁸  :    6292063.546944
 Mol. α(0) /au        :        757.619756


Wiberg/Mayer (AO) data.
largest (>0.10) Wiberg bond orders for each atom

 ---------------------------------------------------------------------------
     #   Z sym  total        # sym  WBO       # sym  WBO       # sym  WBO
 ---------------------------------------------------------------------------
     1   6 C    3.943 --     2 C    1.625    21 C    1.142    83 H    0.944
     2   6 C    3.971 --     1 C    1.625    15 C    1.100     3 C    1.014
     3   6 C    3.930 --     4 O    1.770     5 C    1.018     2 C    1.014
     4   8 O    2.070 --     3 C    1.770
     5   6 C    3.972 --     6 C    1.376    14 C    1.270     3 C    1.018
     6   6 C    3.934 --     5 C    1.376     8 C    1.314     7 Cl   1.041
     7  17 Cl   1.212 --     6 C    1.041
     8   6 C    3.925 --    10 C    1.363     6 C    1.314     9 Cl   1.035
     9  17 Cl   1.196 --     8 C    1.035
    10   6 C    3.931 --     8 C    1.363    12 C    1.321    11 Cl   1.035
    11  17 Cl   1.196 --    10 C    1.035
    12   6 C    3.922 --    14 C    1.362    10 C    1.321    13 Cl   1.025
    13  17 Cl   1.202 --    12 C    1.025
    14   6 C    3.981 --    12 C    1.362     5 C    1.270    15 C    1.093
    15   6 C    3.973 --    16 C    1.511     2 C    1.100    14 C    1.093
    16   6 C    3.964 --    15 C    1.511    19 C    1.093    17 C    1.087
    17   6 C    3.946 --    18 N    2.771    16 C    1.087
    18   7 N    2.977 --    17 C    2.771
    19   6 C    3.944 --    20 N    2.766    16 C    1.093
    20   7 N    2.971 --    19 C    2.766
    21   6 C    3.966 --    30 C    1.359    22 C    1.311     1 C    1.142
    22   6 C    3.971 --    23 C    1.473    21 C    1.311    84 H    0.963
    23   6 C    3.982 --    22 C    1.473    28 C    1.276    24 C    1.007
    24   6 C    3.913 --    25 O    1.782    26 C    1.013    23 C    1.007
    25   8 O    2.050 --    24 C    1.782
    26   6 C    3.978 --    34 C    1.452    27 C    1.284    24 C    1.013
    27   6 C    3.975 --    31 C    1.421    26 C    1.284    28 C    1.069
    28   6 C    3.972 --    29 C    1.415    23 C    1.276    27 C    1.069
    29   6 C    3.971 --    30 C    1.430    28 C    1.415    85 H    0.962
    30   6 C    3.971 --    29 C    1.430    21 C    1.359    86 H    0.963
    31   6 C    3.968 --    27 C    1.421    32 C    1.418    87 H    0.963
    32   6 C    3.976 --    31 C    1.418    33 C    1.399    88 H    0.967
    33   6 C    3.961 --    32 C    1.399    34 C    1.342    35 C    1.058
    34   6 C    3.980 --    26 C    1.452    33 C    1.342    89 H    0.961
    35   6 C    3.970 --    36 C    1.429    48 C    1.216    33 C    1.058
    36   6 C    3.869 --    35 C    1.429    38 C    1.277    37 F    0.956
    37   9 F    1.084 --    36 C    0.956
    38   6 C    3.869 --    40 C    1.429    36 C    1.277    39 F    0.956
    39   9 F    1.084 --    38 C    0.956
    40   6 C    3.970 --    38 C    1.429    41 C    1.215    51 C    1.059
    41   6 C    3.980 --    42 N    1.295    48 C    1.238    40 C    1.215
    42   7 N    3.070 --    43 C    1.523    41 C    1.295
    43   6 C    3.956 --    42 N    1.523    46 C    1.207    44 C    1.015
    44   6 C    3.990 --    43 C    1.015    45 C    0.989    91 H    0.968
                            90 H    0.965
    45   6 C    3.988 --    44 C    0.989    94 H    0.988    93 H    0.986
                            92 H    0.983
    46   6 C    3.956 --    47 N    1.524    43 C    1.207    49 C    1.015
    47   7 N    3.069 --    46 C    1.524    48 C    1.295
    48   6 C    3.980 --    47 N    1.295    41 C    1.238    35 C    1.216
    49   6 C    3.990 --    46 C    1.015    50 C    0.989    96 H    0.968
                            95 H    0.966
    50   6 C    3.987 --    49 C    0.989    97 H    0.988    99 H    0.986
                            98 H    0.983
    51   6 C    3.961 --    60 C    1.399    52 C    1.341    40 C    1.059
    52   6 C    3.980 --    53 C    1.452    51 C    1.341   100 H    0.961
    53   6 C    3.979 --    52 C    1.452    58 C    1.284    54 C    1.013
    54   6 C    3.913 --    55 O    1.787    53 C    1.013    56 C    1.003
    55   8 O    2.054 --    54 C    1.787
    56   6 C    3.982 --    64 C    1.472    57 C    1.282    54 C    1.003
    57   6 C    3.971 --    61 C    1.406    56 C    1.282    58 C    1.070
    58   6 C    3.975 --    59 C    1.421    53 C    1.284    57 C    1.070
    59   6 C    3.967 --    58 C    1.421    60 C    1.418   101 H    0.963
    60   6 C    3.976 --    59 C    1.418    51 C    1.399   102 H    0.966
    61   6 C    3.972 --    62 C    1.441    57 C    1.406   103 H    0.963
    62   6 C    3.978 --    61 C    1.441    63 C    1.354   104 H    0.965
    63   6 C    3.966 --    62 C    1.354    64 C    1.312    65 C    1.147
    64   6 C    3.973 --    56 C    1.472    63 C    1.312   105 H    0.963
    65   6 C    3.940 --    66 C    1.619    63 C    1.147   106 H    0.945
    66   6 C    3.973 --    65 C    1.619    77 C    1.115    67 C    1.006
    67   6 C    3.919 --    68 O    1.772    69 C    1.018    66 C    1.006
    68   8 O    2.048 --    67 C    1.772
    69   6 C    3.977 --    70 C    1.418    76 C    1.290    67 C    1.018
    70   6 C    3.972 --    69 C    1.418    71 C    1.388   107 H    0.954
    71   6 C    3.909 --    70 C    1.388    73 C    1.337    72 Cl   1.007
    72  17 Cl   1.153 --    71 C    1.007
    73   6 C    3.878 --    75 C    1.397    71 C    1.337    74 F    0.972
    74   9 F    1.106 --    73 C    0.972
    75   6 C    3.971 --    73 C    1.397    76 C    1.394   108 H    0.952
    76   6 C    3.985 --    75 C    1.394    69 C    1.290    77 C    1.086
    77   6 C    3.976 --    78 C    1.501    66 C    1.115    76 C    1.086
    78   6 C    3.973 --    77 C    1.501    79 C    1.096    81 C    1.095
    79   6 C    3.945 --    80 N    2.767    78 C    1.096
    80   7 N    2.969 --    79 C    2.767
    81   6 C    3.945 --    82 N    2.769    78 C    1.095
    82   7 N    2.978 --    81 C    2.769
    83   1 H    0.990 --     1 C    0.944
    84   1 H    0.994 --    22 C    0.963
    85   1 H    0.993 --    29 C    0.962
    86   1 H    0.993 --    30 C    0.963
    87   1 H    0.993 --    31 C    0.963
    88   1 H    0.995 --    32 C    0.967
    89   1 H    0.995 --    34 C    0.961
    90   1 H    0.994 --    44 C    0.965
    91   1 H    0.995 --    44 C    0.968
    92   1 H    0.995 --    45 C    0.983
    93   1 H    0.998 --    45 C    0.986
    94   1 H    0.998 --    45 C    0.988
    95   1 H    0.995 --    49 C    0.966
    96   1 H    0.995 --    49 C    0.968
    97   1 H    0.998 --    50 C    0.988
    98   1 H    0.995 --    50 C    0.983
    99   1 H    0.998 --    50 C    0.986
   100   1 H    0.995 --    52 C    0.961
   101   1 H    0.993 --    59 C    0.963
   102   1 H    0.994 --    60 C    0.966
   103   1 H    0.993 --    61 C    0.963
   104   1 H    0.995 --    62 C    0.965
   105   1 H    0.994 --    64 C    0.963
   106   1 H    0.988 --    65 C    0.945
   107   1 H    0.985 --    70 C    0.954
   108   1 H    0.988 --    75 C    0.952
 ---------------------------------------------------------------------------

Topologies differ in bond orders
Writing corrected topology to xtbtopo.mol

molecular dipole:
                 x           y           z       tot (Debye)
 q only:       -0.553      -1.643       0.834
   full:        0.617      -1.814      -0.013       4.869
molecular quadrupole (traceless):
                xx          xy          yy          xz          yz          zz
 q only:       52.242     -40.722     -31.286     -44.267     -92.100     -20.956
  q+dip:       37.383     -27.575     -32.509     -23.581     -67.225      -4.874
   full:       48.791     -27.559     -41.119     -29.282     -72.870      -7.673


           -------------------------------------------------
          | TOTAL ENERGY             -220.948205179311 Eh   |
          | GRADIENT NORM               0.038348353951 Eh/α |
          | HOMO-LUMO GAP               0.544290999050 eV   |
           -------------------------------------------------

------------------------------------------------------------------------
 * finished run on 2022/02/10 at 21:14:18.777     
------------------------------------------------------------------------
 total:
 * wall-time:     0 d,  0 h,  0 min,  0.654 sec
 *  cpu-time:     0 d,  0 h,  0 min,  4.391 sec
 * ratio c/w:     6.710 speedup
 SCF:
 * wall-time:     0 d,  0 h,  0 min,  0.570 sec
 *  cpu-time:     0 d,  0 h,  0 min,  3.913 sec
 * ratio c/w:     6.864 speedup

