      -----------------------------------------------------------      
     |                   =====================                   |     
     |                           x T B                           |     
     |                   =====================                   |     
     |                         S. Grimme                         |     
     |          Mulliken Center for Theoretical Chemistry        |     
     |                    University of Bonn                     |     
      -----------------------------------------------------------      

   * xtb version 6.4.1 (unknown) compiled by 'oda6@login1.crc.pitt.edu' on 2021-06-25

   xtb is free software: you can redistribute it and/or modify it under
   the terms of the GNU Lesser General Public License as published by
   the Free Software Foundation, either version 3 of the License, or
   (at your option) any later version.
   
   xtb is distributed in the hope that it will be useful,
   but WITHOUT ANY WARRANTY; without even the implied warranty of
   MERCHANTABILITY or FITNESS FOR A PARTICULAR PURPOSE.  See the
   GNU Lesser General Public License for more details.
   
   Cite this work as:
   * C. Bannwarth, E. Caldeweyher, S. Ehlert, A. Hansen, P. Pracht,
     J. Seibert, S. Spicher, S. Grimme, WIREs Comput. Mol. Sci., 2020, 11,
     e01493. DOI: 10.1002/wcms.1493
   
   for GFN2-xTB:
   * C. Bannwarth, S. Ehlert and S. Grimme., J. Chem. Theory Comput., 2019,
     15, 1652-1671. DOI: 10.1021/acs.jctc.8b01176
   for GFN1-xTB:
   * S. Grimme, C. Bannwarth, P. Shushkov, J. Chem. Theory Comput., 2017,
     13, 1989-2009. DOI: 10.1021/acs.jctc.7b00118
   for GFN0-xTB:
   * P. Pracht, E. Caldeweyher, S. Ehlert, S. Grimme, ChemRxiv, 2019, preprint.
     DOI: 10.26434/chemrxiv.8326202.v1
   for GFN-FF:
   * S. Spicher and S. Grimme, Angew. Chem. Int. Ed., 2020, 59, 15665-15673.
     DOI: 10.1002/anie.202004239
   
   for DFT-D4:
   * E. Caldeweyher, C. Bannwarth and S. Grimme, J. Chem. Phys., 2017,
     147, 034112. DOI: 10.1063/1.4993215
   * E. Caldeweyher, S. Ehlert, A. Hansen, H. Neugebauer, S. Spicher,
     C. Bannwarth and S. Grimme, J. Chem. Phys., 2019, 150, 154122.
     DOI: 10.1063/1.5090222
   * E. Caldeweyher, J.-M. Mewes, S. Ehlert and S. Grimme, Phys. Chem. Chem. Phys.
     2020, 22, 8499-8512. DOI: 10.1039/D0CP00502A
   
   for sTDA-xTB:
   * S. Grimme and C. Bannwarth, J. Chem. Phys., 2016, 145, 054103.
     DOI: 10.1063/1.4959605
   
   in the mass-spec context:
   * V. Asgeirsson, C. Bauer and S. Grimme, Chem. Sci., 2017, 8, 4879.
     DOI: 10.1039/c7sc00601b
   * J. Koopman and S. Grimme, ACS Omega 2019, 4, 12, 15120-15133.
     DOI: 10.1021/acsomega.9b02011
   
   for metadynamics refer to:
   * S. Grimme, J. Chem. Theory Comput., 2019, 155, 2847-2862
     DOI: 10.1021/acs.jctc.9b00143
   
   for SPH calculations refer to:
   * S. Spicher and S. Grimme, J. Chem. Theory Comput., 2021, 17, 1701-1714
     DOI: 10.1021/acs.jctc.0c01306
   
   with help from (in alphabetical order)
   P. Atkinson, C. Bannwarth, F. Bohle, G. Brandenburg, E. Caldeweyher
   M. Checinski, S. Dohm, S. Ehlert, S. Ehrlich, I. Gerasimov, J. Koopman
   C. Lavigne, S. Lehtola, F. März, M. Müller, F. Musil, H. Neugebauer
   J. Pisarek, C. Plett, P. Pracht, J. Seibert, P. Shushkov, S. Spicher
   M. Stahn, M. Steiner, T. Strunk, J. Stückrath, T. Rose, and J. Unsleber
   
 * started run on 2022/02/10 at 18:34:28.199     

           -------------------------------------------------
          |                Calculation Setup                |
           -------------------------------------------------

          program call               : /ihome/ghutchison/oda6/xtb/xtb-641/bin/xtb ../../GFN2_output/66_56_5_56_66.mol --sp --alpb water
          hostname                   : smp-n25
          coordinate file            : ../../GFN2_output/66_56_5_56_66.mol
          omp threads                :                     8
          number of atoms            :                   166
          number of electrons        :                   566
          charge                     :                     0
          spin                       :                   0.0
          first test random number   :      0.06241669473491

   ID    Z sym.   atoms
    1    6 C      1-3, 5-9, 11, 13-19, 21, 23-27, 29-32, 34, 36-44, 46, 48,
                  49, 51-62, 64, 65, 67-71, 73-76, 78, 80-88, 90, 92, 93,
                  95-97, 99-103, 105, 107-113, 115
    2    8 O      4, 98
    3    9 F      10, 12, 104, 106
    4    7 N      20, 22, 114, 116
    5   16 S      28, 45, 47, 50, 63, 66, 72, 89, 91, 94
    6   17 Cl     33, 35, 77, 79
    7    1 H      117-166

           -------------------------------------------------
          |                 G F N 2 - x T B                 |
           -------------------------------------------------

        Reference                      10.1021/acs.jctc.8b01176
      * Hamiltonian:
        H0-scaling (s, p, d)           1.850000    2.230000    2.230000
        zeta-weighting                 0.500000
      * Dispersion:
        s8                             2.700000
        a1                             0.520000
        a2                             5.000000
        s9                             5.000000
      * Repulsion:
        kExp                           1.500000    1.000000
        rExp                           1.000000
      * Coulomb:
        alpha                          2.000000
        third order                    shell-resolved
        anisotropic                    true
        a3                             3.000000
        a5                             4.000000
        cn-shift                       1.200000
        cn-exp                         4.000000
        max-rad                        5.000000

      * Solvation model:               ALPB
        Solvent                        water
        Parameter file                 internal GFN2-xTB/ALPB
        Dielectric constant                8.0200E+01
        Reference state                gsolv [1 M gas/solution]
        Free energy shift                  1.0808E-03 Eh       6.7819E-01 kcal/mol
        Temperature                        2.9815E+02 K
        Density                            1.0000E+00 kg/L
        Solvent mass                       1.8000E+01 g/mol
        Interaction kernel             P16
        Born radius scaling (c1)           1.4744E+00
        Born radii integrator          GBOBC
        Born offset                        0.0000E+00 a0       0.0000E+00 AA
        H-bond correction              true
        Ion screening                  false
        Surface tension                    1.0000E-05 Eh       1.5569E+01 dyn/cm
        Grid points                               230 per atom

          ...................................................
          :                      SETUP                      :
          :.................................................:
          :  # basis functions                 598          :
          :  # atomic orbitals                 584          :
          :  # shells                          296          :
          :  # electrons                       566          :
          :  max. iterations                   250          :
          :  Hamiltonian                  GFN2-xTB          :
          :  restarted?                      false          :
          :  GBSA solvation                   true          :
          :  PC potential                    false          :
          :  electronic temp.          300.0000000     K    :
          :  accuracy                    1.0000000          :
          :  -> integral cutoff          0.2500000E+02      :
          :  -> integral neglect         0.1000000E-07      :
          :  -> SCF convergence          0.1000000E-05 Eh   :
          :  -> wf. convergence          0.1000000E-03 e    :
          :  Broyden damping             0.4000000          :
          ...................................................

 iter      E             dE          RMSdq      gap      omega  full diag
   1   -316.3400838 -0.316340E+03  0.466E+00    0.68       0.0  T
   2   -316.4799700 -0.139886E+00  0.266E+00    0.78       1.0  T
   3   -316.3146258  0.165344E+00  0.140E+00    0.54       1.0  T
   4   -316.5373047 -0.222679E+00  0.401E-01    0.60       1.0  T
   5   -316.5466454 -0.934068E-02  0.158E-01    0.60       1.0  T
   6   -316.5476639 -0.101853E-02  0.739E-02    0.62       1.0  T
   7   -316.5478940 -0.230104E-03  0.409E-02    0.61       1.0  T
   8   -316.5479637 -0.696144E-04  0.291E-02    0.62       1.0  T
   9   -316.5479969 -0.332706E-04  0.202E-02    0.61       1.0  T
  10   -316.5480207 -0.238005E-04  0.132E-02    0.61       1.0  T
  11   -316.5480308 -0.100856E-04  0.774E-03    0.61       1.0  T
  12   -316.5480351 -0.429422E-05  0.334E-03    0.61       2.3  T
  13   -316.5480357 -0.630928E-06  0.193E-03    0.61       4.0  T
  14   -316.5480359 -0.136028E-06  0.122E-03    0.61       6.3  T
  15   -316.5480359 -0.589583E-07  0.784E-04    0.61       9.9  T
  16   -316.5480360 -0.358846E-07  0.495E-04    0.61      15.7  T

   *** convergence criteria satisfied after 16 iterations ***

         #    Occupation            Energy/Eh            Energy/eV
      -------------------------------------------------------------
         1        2.0000           -1.0794341             -29.3729
       ...           ...                  ...                  ...
       277        2.0000           -0.3972002             -10.8084
       278        2.0000           -0.3952195             -10.7545
       279        2.0000           -0.3929248             -10.6920
       280        2.0000           -0.3848156             -10.4714
       281        2.0000           -0.3712799             -10.1030
       282        2.0000           -0.3707775             -10.0894
       283        2.0000           -0.3643079              -9.9133 (HOMO)
       284        0.0000           -0.3418423              -9.3020 (LUMO)
       285        0.0000           -0.3392941              -9.2327
       286                         -0.3262083              -8.8766
       287                         -0.3213331              -8.7439
       288                         -0.3052803              -8.3071
       ...                                ...                  ...
       584                          1.1515996              31.3366
      -------------------------------------------------------------
                  HL-Gap            0.0224656 Eh            0.6113 eV
             Fermi-level           -0.3531057 Eh           -9.6085 eV

 SCC (total)                   0 d,  0 h,  0 min,  0.971 sec
 SCC setup                      ...        0 min,  0.007 sec (  0.674%)
 Dispersion                     ...        0 min,  0.007 sec (  0.761%)
 classical contributions        ...        0 min,  0.000 sec (  0.026%)
 integral evaluation            ...        0 min,  0.032 sec (  3.337%)
 iterations                     ...        0 min,  0.851 sec ( 87.619%)
 molecular gradient             ...        0 min,  0.071 sec (  7.261%)
 printout                       ...        0 min,  0.003 sec (  0.311%)

         :::::::::::::::::::::::::::::::::::::::::::::::::::::
         ::                     SUMMARY                     ::
         :::::::::::::::::::::::::::::::::::::::::::::::::::::
         :: total energy            -311.954479414430 Eh    ::
         :: total w/o Gsasa/hb      -311.939281708128 Eh    ::
         :: gradient norm              0.040628364064 Eh/a0 ::
         :: HOMO-LUMO gap              0.611321039582 eV    ::
         ::.................................................::
         :: SCC energy              -316.548035969501 Eh    ::
         :: -> isotropic ES            0.203551261861 Eh    ::
         :: -> anisotropic ES         -0.007413898500 Eh    ::
         :: -> anisotropic XC          0.145292950340 Eh    ::
         :: -> dispersion             -0.285333887558 Eh    ::
         :: -> Gsolv                  -0.058538943876 Eh    ::
         ::    -> Gelec               -0.043341237574 Eh    ::
         ::    -> Gsasa               -0.007316362194 Eh    ::
         ::    -> Ghb                 -0.008962103807 Eh    ::
         ::    -> Gshift               0.001080759698 Eh    ::
         :: repulsion energy           4.594576565021 Eh    ::
         :: add. restraining           0.000000000000 Eh    ::
         :: total charge              -0.000000000341 e     ::
         :::::::::::::::::::::::::::::::::::::::::::::::::::::

           -------------------------------------------------
          |                Property Printout                |
           -------------------------------------------------

    * Orbital Energies and Occupations

         #    Occupation            Energy/Eh            Energy/eV
      -------------------------------------------------------------
         1        2.0000           -1.0794341             -29.3729
       ...           ...                  ...                  ...
       271        2.0000           -0.4026030             -10.9554
       272        2.0000           -0.4022914             -10.9469
       273        2.0000           -0.4011713             -10.9164
       274        2.0000           -0.4010457             -10.9130
       275        2.0000           -0.4002728             -10.8920
       276        2.0000           -0.3982292             -10.8364
       277        2.0000           -0.3972002             -10.8084
       278        2.0000           -0.3952195             -10.7545
       279        2.0000           -0.3929248             -10.6920
       280        2.0000           -0.3848156             -10.4714
       281        2.0000           -0.3712799             -10.1030
       282        2.0000           -0.3707775             -10.0894
       283        2.0000           -0.3643079              -9.9133 (HOMO)
       284        0.0000           -0.3418423              -9.3020 (LUMO)
       285        0.0000           -0.3392941              -9.2327
       286                         -0.3262083              -8.8766
       287                         -0.3213331              -8.7439
       288                         -0.3052803              -8.3071
       289                         -0.3006424              -8.1809
       290                         -0.2922043              -7.9513
       291                         -0.2856706              -7.7735
       292                         -0.2794741              -7.6049
       293                         -0.2715357              -7.3889
       294                         -0.2610723              -7.1041
       ...                                ...                  ...
       584                          1.1515996              31.3366
      -------------------------------------------------------------
                  HL-Gap            0.0224656 Eh            0.6113 eV
             Fermi-level           -0.3531057 Eh           -9.6085 eV

     #   Z          covCN         q      C6AA      α(0)
     1   6 C        2.951    -0.008    28.206     8.711
     2   6 C        2.999    -0.032    28.786     8.801
     3   6 C        2.862     0.235    23.101     7.878
     4   8 O        0.856    -0.419    22.074     6.299
     5   6 C        3.036    -0.016    28.368     8.736
     6   6 C        2.913    -0.015    28.392     8.737
     7   6 C        2.990     0.024    27.469     8.597
     8   6 C        2.919    -0.054    29.351     8.884
     9   6 C        2.775     0.167    24.395     8.089
    10   9 F        0.787    -0.227    11.520     4.009
    11   6 C        2.775     0.167    24.385     8.088
    12   9 F        0.787    -0.227    11.516     4.009
    13   6 C        2.920    -0.054    29.353     8.885
    14   6 C        2.988     0.025    27.444     8.593
    15   6 C        2.916    -0.025    28.623     8.773
    16   6 C        3.021     0.011    27.746     8.640
    17   6 C        3.018     0.039    27.111     8.541
    18   6 C        2.947     0.007    27.874     8.659
    19   6 C        1.943     0.132    27.847     8.522
    20   7 N        0.911    -0.275    27.110     7.530
    21   6 C        1.946     0.135    27.784     8.512
    22   7 N        0.911    -0.273    27.047     7.522
    23   6 C        2.980     0.037    27.175     8.551
    24   6 C        3.058    -0.036    28.839     8.807
    25   6 C        3.145     0.002    27.732     8.616
    26   6 C        3.015     0.005    27.896     8.664
    27   6 C        3.014     0.001    27.981     8.677
    28  16 S        2.386     0.045   139.231    19.860
    29   6 C        3.009     0.018    27.593     8.617
    30   6 C        3.825    -0.064    21.712     6.631
    31   6 C        3.754    -0.118    22.819     6.811
    32   6 C        3.110     0.064    26.419     8.421
    33  17 Cl       0.950    -0.175   104.655    15.651
    34   6 C        3.098     0.071    26.291     8.403
    35  17 Cl       0.947    -0.177   104.707    15.655
    36   6 C        3.007     0.026    27.404     8.587
    37   6 C        3.131     0.005    27.710     8.618
    38   6 C        3.011    -0.002    28.048     8.687
    39   6 C        2.993     0.017    27.630     8.623
    40   6 C        3.109    -0.053    29.161     8.847
    41   6 C        3.114    -0.062    29.376     8.878
    42   6 C        2.988     0.031    27.299     8.571
    43   6 C        3.826    -0.063    21.688     6.627
    44   6 C        3.754    -0.111    22.685     6.792
    45  16 S        2.407    -0.054   143.292    20.147
    46   6 C        3.001     0.030    27.320     8.574
    47  16 S        2.349    -0.048   143.054    20.130
    48   6 C        3.067    -0.057    29.337     8.881
    49   6 C        3.018     0.037    27.146     8.546
    50  16 S        2.322    -0.031   142.318    20.079
    51   6 C        3.017     0.029    27.339     8.577
    52   6 C        3.066    -0.050    29.178     8.858
    53   6 C        3.133    -0.004    27.895     8.646
    54   6 C        2.988     0.000    28.014     8.682
    55   6 C        3.806    -0.060    21.647     6.623
    56   6 C        3.754    -0.108    22.623     6.782
    57   6 C        3.009     0.023    27.483     8.600
    58   6 C        3.133    -0.004    27.900     8.647
    59   6 C        2.989     0.001    27.995     8.679
    60   6 C        3.806    -0.062    21.678     6.628
    61   6 C        3.754    -0.107    22.604     6.779
    62   6 C        3.009     0.022    27.505     8.603
    63  16 S        2.313    -0.056   143.395    20.154
    64   6 C        3.065    -0.048    29.132     8.851
    65   6 C        3.018     0.027    27.367     8.581
    66  16 S        2.271    -0.077   144.257    20.215
    67   6 C        3.020     0.034    27.211     8.557
    68   6 C        3.067    -0.051    29.205     8.861
    69   6 C        3.139     0.006    27.661     8.608
    70   6 C        3.013    -0.001    28.043     8.687
    71   6 C        3.013     0.002    27.956     8.673
    72  16 S        2.388     0.037   139.564    19.883
    73   6 C        3.009     0.018    27.590     8.616
    74   6 C        3.824    -0.064    21.715     6.631
    75   6 C        3.754    -0.117    22.800     6.809
    76   6 C        3.109     0.063    26.441     8.425
    77  17 Cl       0.948    -0.176   104.671    15.652
    78   6 C        3.098     0.068    26.357     8.414
    79  17 Cl       0.945    -0.176   104.688    15.653
    80   6 C        3.009     0.030    27.324     8.575
    81   6 C        3.132     0.001    27.795     8.631
    82   6 C        3.008     0.003    27.952     8.673
    83   6 C        2.990     0.015    27.674     8.629
    84   6 C        3.113    -0.049    29.052     8.830
    85   6 C        3.118    -0.060    29.309     8.867
    86   6 C        2.986     0.032    27.282     8.568
    87   6 C        3.826    -0.063    21.697     6.628
    88   6 C        3.753    -0.109    22.642     6.785
    89  16 S        2.361    -0.053   143.242    20.144
    90   6 C        3.006     0.023    27.468     8.597
    91  16 S        2.279    -0.053   143.233    20.143
    92   6 C        3.074    -0.038    28.852     8.807
    93   6 C        2.980     0.036    27.178     8.552
    94  16 S        2.291    -0.026   142.121    20.065
    95   6 C        2.934    -0.008    28.212     8.711
    96   6 C        3.007    -0.030    28.732     8.793
    97   6 C        2.868     0.237    23.063     7.872
    98   8 O        0.856    -0.414    21.956     6.282
    99   6 C        3.032    -0.015    28.342     8.732
   100   6 C        2.913    -0.015    28.398     8.738
   101   6 C        2.989     0.025    27.448     8.594
   102   6 C        2.919    -0.054    29.353     8.884
   103   6 C        2.775     0.167    24.396     8.090
   104   9 F        0.787    -0.229    11.534     4.012
   105   6 C        2.775     0.167    24.385     8.088
   106   9 F        0.787    -0.228    11.528     4.011
   107   6 C        2.920    -0.054    29.339     8.882
   108   6 C        2.989     0.025    27.427     8.591
   109   6 C        2.915    -0.023    28.588     8.768
   110   6 C        3.029     0.013    27.703     8.633
   111   6 C        3.014     0.044    27.002     8.524
   112   6 C        2.947     0.006    27.881     8.660
   113   6 C        1.935     0.135    27.802     8.515
   114   7 N        0.911    -0.279    27.202     7.543
   115   6 C        1.935     0.134    27.804     8.515
   116   7 N        0.911    -0.273    27.058     7.523
   117   1 H        0.925     0.073     2.054     2.241
   118   1 H        0.926     0.082     1.955     2.186
   119   1 H        0.926     0.106     1.733     2.058
   120   1 H        0.926     0.107     1.724     2.053
   121   1 H        0.926     0.075     2.030     2.228
   122   1 H        0.926     0.090     1.881     2.145
   123   1 H        0.924     0.080     1.983     2.202
   124   1 H        0.924     0.069     2.095     2.263
   125   1 H        0.925     0.059     2.207     2.323
   126   1 H        0.925     0.064     2.152     2.294
   127   1 H        0.925     0.047     2.353     2.399
   128   1 H        0.926     0.053     2.287     2.365
   129   1 H        0.926     0.053     2.282     2.362
   130   1 H        0.924     0.057     2.232     2.336
   131   1 H        0.924     0.055     2.260     2.351
   132   1 H        0.925     0.051     2.310     2.377
   133   1 H        0.925     0.044     2.390     2.418
   134   1 H        0.925     0.046     2.374     2.409
   135   1 H        0.926     0.067     2.118     2.276
   136   1 H        0.926     0.061     2.186     2.312
   137   1 H        0.924     0.054     2.274     2.358
   138   1 H        0.924     0.049     2.326     2.385
   139   1 H        0.925     0.045     2.379     2.412
   140   1 H        0.925     0.051     2.313     2.378
   141   1 H        0.925     0.042     2.428     2.437
   142   1 H        0.924     0.055     2.254     2.348
   143   1 H        0.924     0.056     2.250     2.346
   144   1 H        0.925     0.041     2.440     2.443
   145   1 H        0.925     0.051     2.301     2.372
   146   1 H        0.925     0.040     2.443     2.444
   147   1 H        0.926     0.062     2.175     2.306
   148   1 H        0.926     0.058     2.220     2.330
   149   1 H        0.924     0.070     2.086     2.259
   150   1 H        0.924     0.078     1.997     2.210
   151   1 H        0.925     0.048     2.348     2.396
   152   1 H        0.925     0.056     2.240     2.341
   153   1 H        0.925     0.063     2.167     2.302
   154   1 H        0.926     0.048     2.344     2.394
   155   1 H        0.926     0.052     2.292     2.367
   156   1 H        0.924     0.059     2.217     2.328
   157   1 H        0.924     0.063     2.160     2.298
   158   1 H        0.925     0.041     2.437     2.441
   159   1 H        0.925     0.044     2.390     2.418
   160   1 H        0.925     0.055     2.261     2.351
   161   1 H        0.926     0.065     2.140     2.287
   162   1 H        0.925     0.094     1.839     2.120
   163   1 H        0.926     0.088     1.896     2.153
   164   1 H        0.926     0.107     1.719     2.050
   165   1 H        0.926     0.107     1.724     2.053
   166   1 H        0.926     0.077     2.013     2.218

 Mol. C6AA /au·bohr⁶  :     567626.194344
 Mol. C8AA /au·bohr⁸  :   16897087.890799
 Mol. α(0) /au        :       1206.944525


Wiberg/Mayer (AO) data.
largest (>0.10) Wiberg bond orders for each atom

 ---------------------------------------------------------------------------
     #   Z sym  total        # sym  WBO       # sym  WBO       # sym  WBO
 ---------------------------------------------------------------------------
     1   6 C    3.940 --     2 C    1.525    23 C    1.260   117 H    0.943
     2   6 C    3.947 --     1 C    1.525    17 C    1.132     3 C    1.042
     3   6 C    3.911 --     4 O    1.725     2 C    1.042     5 C    1.025
     4   8 O    2.020 --     3 C    1.725
     5   6 C    3.979 --     6 C    1.520    16 C    1.203     3 C    1.025
     6   6 C    3.974 --     5 C    1.520     7 C    1.271   118 H    0.960
     7   6 C    3.979 --     8 C    1.287     6 C    1.271    14 C    1.240
     8   6 C    3.971 --     9 C    1.497     7 C    1.287   119 H    0.957
                            13 C    0.108
     9   6 C    3.867 --     8 C    1.497    11 C    1.249    10 F    0.959
    10   9 F    1.086 --     9 C    0.959
    11   6 C    3.871 --    13 C    1.499     9 C    1.249    12 F    0.959
    12   9 F    1.087 --    11 C    0.959
    13   6 C    3.969 --    11 C    1.499    14 C    1.284   120 H    0.956
                             8 C    0.108
    14   6 C    3.984 --    13 C    1.284    15 C    1.277     7 C    1.240
    15   6 C    3.967 --    16 C    1.498    14 C    1.277   121 H    0.956
    16   6 C    3.980 --    15 C    1.498     5 C    1.203    17 C    1.088
    17   6 C    3.967 --    18 C    1.481     2 C    1.132    16 C    1.088
    18   6 C    3.933 --    17 C    1.481    19 C    1.099    21 C    1.098
    19   6 C    3.942 --    20 N    2.746    18 C    1.099
    20   7 N    2.956 --    19 C    2.746
    21   6 C    3.941 --    22 N    2.754    18 C    1.098
    22   7 N    2.962 --    21 C    2.754
    23   6 C    3.934 --    24 C    1.455     1 C    1.260    47 S    1.067
    24   6 C    3.939 --    23 C    1.455    25 C    1.287   122 H    0.937
    25   6 C    3.969 --    24 C    1.287    26 C    1.240    46 C    1.227
    26   6 C    3.948 --    36 C    1.395    25 C    1.240    27 C    1.078
    27   6 C    3.948 --    34 C    1.507    28 S    1.129    26 C    1.078
    28  16 S    2.615 --    29 C    1.164    27 C    1.129
    29   6 C    3.938 --    32 C    1.535    28 S    1.164    30 C    1.027
    30   6 C    3.983 --    29 C    1.027    31 C    0.991   124 H    0.964
                           123 H    0.963
    31   6 C    3.987 --    30 C    0.991   127 H    0.988   125 H    0.986
                           126 H    0.982
    32   6 C    3.897 --    29 C    1.535    34 C    1.225    33 Cl   0.967
    33  17 Cl   1.110 --    32 C    0.967
    34   6 C    3.891 --    27 C    1.507    32 C    1.225    35 Cl   0.969
    35  17 Cl   1.117 --    34 C    0.969
    36   6 C    3.947 --    26 C    1.395    37 C    1.230    50 S    1.107
    37   6 C    3.962 --    38 C    1.261    48 C    1.251    36 C    1.230
    38   6 C    3.954 --    46 C    1.367    37 C    1.261    39 C    1.096
    39   6 C    3.944 --    40 C    1.536    45 S    1.125    38 C    1.096
                            42 C    0.102
    40   6 C    3.976 --    39 C    1.536    41 C    1.291   128 H    0.961
    41   6 C    3.980 --    42 C    1.577    40 C    1.291   129 H    0.962
    42   6 C    3.932 --    41 C    1.577    45 S    1.163    43 C    1.027
                            39 C    0.102
    43   6 C    3.993 --    42 C    1.027    44 C    0.997   130 H    0.968
                           131 H    0.967
    44   6 C    3.991 --    43 C    0.997   134 H    0.988   133 H    0.987
                           132 H    0.985
    45  16 S    2.596 --    42 C    1.163    39 C    1.125
    46   6 C    3.945 --    38 C    1.367    25 C    1.227    47 S    1.124
    47  16 S    2.520 --    46 C    1.124    23 C    1.067
    48   6 C    3.943 --    49 C    1.517    37 C    1.251   135 H    0.955
    49   6 C    3.922 --    48 C    1.517    51 C    1.161    50 S    1.103
    50  16 S    2.528 --    36 C    1.107    49 C    1.103
    51   6 C    3.935 --    52 C    1.527    49 C    1.161    63 S    1.096
    52   6 C    3.944 --    51 C    1.527    53 C    1.236   136 H    0.957
    53   6 C    3.969 --    54 C    1.297    52 C    1.236    62 C    1.235
    54   6 C    3.962 --    57 C    1.416    53 C    1.297    55 C    1.015
    55   6 C    3.994 --    54 C    1.015    56 C    0.997   137 H    0.967
                           138 H    0.966
    56   6 C    3.991 --    55 C    0.997   141 H    0.988   139 H    0.987
                           140 H    0.984
    57   6 C    3.943 --    54 C    1.416    58 C    1.235    66 S    1.089
    58   6 C    3.968 --    59 C    1.301    57 C    1.235    64 C    1.232
    59   6 C    3.963 --    62 C    1.412    58 C    1.301    60 C    1.015
    60   6 C    3.993 --    59 C    1.015    61 C    0.997   142 H    0.968
                           143 H    0.966
    61   6 C    3.991 --    60 C    0.997   144 H    0.988   146 H    0.987
                           145 H    0.984
    62   6 C    3.944 --    59 C    1.412    53 C    1.235    63 S    1.095
    63  16 S    2.509 --    51 C    1.096    62 C    1.095
    64   6 C    3.948 --    65 C    1.538    58 C    1.232   147 H    0.954
    65   6 C    3.934 --    64 C    1.538    67 C    1.164    66 S    1.082
    66  16 S    2.489 --    57 C    1.089    65 C    1.082
    67   6 C    3.927 --    68 C    1.531    65 C    1.164    91 S    1.090
    68   6 C    3.947 --    67 C    1.531    69 C    1.242   148 H    0.956
    69   6 C    3.965 --    70 C    1.265    90 C    1.242    68 C    1.242
    70   6 C    3.951 --    80 C    1.377    69 C    1.265    71 C    1.074
    71   6 C    3.949 --    78 C    1.512    72 S    1.130    70 C    1.074
    72  16 S    2.614 --    73 C    1.162    71 C    1.130
    73   6 C    3.940 --    76 C    1.538    72 S    1.162    74 C    1.027
    74   6 C    3.984 --    73 C    1.027    75 C    0.992   150 H    0.965
                           149 H    0.962
    75   6 C    3.989 --    74 C    0.992   151 H    0.988   152 H    0.986
                           153 H    0.982
    76   6 C    3.898 --    73 C    1.538    78 C    1.222    77 Cl   0.967
    77  17 Cl   1.109 --    76 C    0.967
    78   6 C    3.892 --    71 C    1.512    76 C    1.222    79 Cl   0.969
    79  17 Cl   1.115 --    78 C    0.969
    80   6 C    3.949 --    70 C    1.377    81 C    1.230    94 S    1.122
    81   6 C    3.971 --    92 C    1.283    82 C    1.241    80 C    1.230
    82   6 C    3.953 --    90 C    1.376    81 C    1.241    83 C    1.106
    83   6 C    3.944 --    84 C    1.531    89 S    1.118    82 C    1.106
    84   6 C    3.971 --    83 C    1.531    85 C    1.292   154 H    0.959
    85   6 C    3.980 --    86 C    1.576    84 C    1.292   155 H    0.962
    86   6 C    3.929 --    85 C    1.576    89 S    1.159    87 C    1.029
    87   6 C    3.992 --    86 C    1.029    88 C    1.000   156 H    0.969
                           157 H    0.960
    88   6 C    3.991 --    87 C    1.000   158 H    0.986   160 H    0.984
                           159 H    0.984
    89  16 S    2.582 --    86 C    1.159    83 C    1.118
    90   6 C    3.947 --    82 C    1.376    69 C    1.242    91 S    1.099
    91  16 S    2.507 --    90 C    1.099    67 C    1.090
    92   6 C    3.972 --    93 C    1.464    81 C    1.283   161 H    0.946
    93   6 C    3.932 --    92 C    1.464    95 C    1.236    94 S    1.080
    94  16 S    2.516 --    80 C    1.122    93 C    1.080
    95   6 C    3.940 --    96 C    1.544    93 C    1.236   162 H    0.949
    96   6 C    3.948 --    95 C    1.544   111 C    1.137    97 C    1.018
    97   6 C    3.912 --    98 O    1.749    99 C    1.021    96 C    1.018
    98   8 O    2.017 --    97 C    1.749
    99   6 C    3.977 --   100 C    1.522   110 C    1.199    97 C    1.021
   100   6 C    3.974 --    99 C    1.522   101 C    1.270   163 H    0.959
   101   6 C    3.979 --   102 C    1.288   100 C    1.270   108 C    1.241
   102   6 C    3.971 --   103 C    1.496   101 C    1.288   164 H    0.956
                           107 C    0.108
   103   6 C    3.867 --   102 C    1.496   105 C    1.250   104 F    0.958
   104   9 F    1.085 --   103 C    0.958
   105   6 C    3.871 --   107 C    1.498   103 C    1.250   106 F    0.958
   106   9 F    1.086 --   105 C    0.958
   107   6 C    3.970 --   105 C    1.498   108 C    1.284   165 H    0.956
                           102 C    0.108
   108   6 C    3.984 --   107 C    1.284   109 C    1.275   101 C    1.241
   109   6 C    3.968 --   110 C    1.503   108 C    1.275   166 H    0.956
   110   6 C    3.982 --   109 C    1.503    99 C    1.199   111 C    1.083
   111   6 C    3.970 --   112 C    1.471    96 C    1.137   110 C    1.083
   112   6 C    3.960 --   111 C    1.471   115 C    1.105   113 C    1.100
   113   6 C    3.941 --   114 N    2.753   112 C    1.100
   114   7 N    2.970 --   113 C    2.753
   115   6 C    3.943 --   116 N    2.748   112 C    1.105
   116   7 N    2.967 --   115 C    2.748
   117   1 H    0.994 --     1 C    0.943
   118   1 H    0.992 --     6 C    0.960
   119   1 H    0.988 --     8 C    0.957
   120   1 H    0.988 --    13 C    0.956
   121   1 H    0.993 --    15 C    0.956
   122   1 H    0.991 --    24 C    0.937
   123   1 H    0.993 --    30 C    0.963
   124   1 H    0.995 --    30 C    0.964
   125   1 H    0.996 --    31 C    0.986
   126   1 H    0.995 --    31 C    0.982
   127   1 H    0.998 --    31 C    0.988
   128   1 H    0.997 --    40 C    0.961
   129   1 H    0.997 --    41 C    0.962
   130   1 H    0.996 --    43 C    0.968
   131   1 H    0.996 --    43 C    0.967
   132   1 H    0.997 --    44 C    0.985
   133   1 H    0.998 --    44 C    0.987
   134   1 H    0.998 --    44 C    0.988
   135   1 H    0.995 --    48 C    0.955
   136   1 H    0.996 --    52 C    0.957
   137   1 H    0.996 --    55 C    0.967
   138   1 H    0.996 --    55 C    0.966
   139   1 H    0.998 --    56 C    0.987
   140   1 H    0.996 --    56 C    0.984
   141   1 H    0.998 --    56 C    0.988
   142   1 H    0.996 --    60 C    0.968
   143   1 H    0.995 --    60 C    0.966
   144   1 H    0.998 --    61 C    0.988
   145   1 H    0.996 --    61 C    0.984
   146   1 H    0.998 --    61 C    0.987
   147   1 H    0.996 --    64 C    0.954
   148   1 H    0.996 --    68 C    0.956
   149   1 H    0.994 --    74 C    0.962
   150   1 H    0.993 --    74 C    0.965
   151   1 H    0.998 --    75 C    0.988
   152   1 H    0.997 --    75 C    0.986
   153   1 H    0.995 --    75 C    0.982
   154   1 H    0.997 --    84 C    0.959
   155   1 H    0.997 --    85 C    0.962
   156   1 H    0.996 --    87 C    0.969
   157   1 H    0.994 --    87 C    0.960
   158   1 H    0.998 --    88 C    0.986
   159   1 H    0.998 --    88 C    0.984
   160   1 H    0.996 --    88 C    0.984
   161   1 H    0.995 --    92 C    0.946
   162   1 H    0.988 --    95 C    0.949
   163   1 H    0.991 --   100 C    0.959
   164   1 H    0.988 --   102 C    0.956
   165   1 H    0.988 --   107 C    0.956
   166   1 H    0.993 --   109 C    0.956
 ---------------------------------------------------------------------------

Topologies differ in bond orders
Writing corrected topology to xtbtopo.mol

molecular dipole:
                 x           y           z       tot (Debye)
 q only:       -3.387       4.243       4.082
   full:       -2.089       3.387       2.912      12.533
molecular quadrupole (traceless):
                xx          xy          yy          xz          yz          zz
 q only:      134.725     -12.957    -276.379      20.970     -55.351     141.654
  q+dip:      126.729     -30.758    -258.310      21.854     -51.960     131.580
   full:      122.103     -24.258    -264.259       8.456     -61.539     142.155


           -------------------------------------------------
          | TOTAL ENERGY             -311.954479414430 Eh   |
          | GRADIENT NORM               0.040628364064 Eh/α |
          | HOMO-LUMO GAP               0.611321039582 eV   |
           -------------------------------------------------

------------------------------------------------------------------------
 * finished run on 2022/02/10 at 18:34:29.261     
------------------------------------------------------------------------
 total:
 * wall-time:     0 d,  0 h,  0 min,  1.062 sec
 *  cpu-time:     0 d,  0 h,  0 min,  8.286 sec
 * ratio c/w:     7.802 speedup
 SCF:
 * wall-time:     0 d,  0 h,  0 min,  0.974 sec
 *  cpu-time:     0 d,  0 h,  0 min,  7.665 sec
 * ratio c/w:     7.866 speedup

