      -----------------------------------------------------------      
     |                   =====================                   |     
     |                           x T B                           |     
     |                   =====================                   |     
     |                         S. Grimme                         |     
     |          Mulliken Center for Theoretical Chemistry        |     
     |                    University of Bonn                     |     
     |                Version 6.2 RC2 (SAW190805)                |     
      -----------------------------------------------------------      

   This program is distributed in the hope that it will be useful,
   but WITHOUT ANY WARRANTY; without even the implied warranty of
   MERCHANTABILITY or FITNESS FOR A PARTICULAR PURPOSE.
   
   FOR NON-COMMERCIAL, ACADEMIA USE ONLY.
   
   Cite this work as:
   * S. Grimme, C. Bannwarth, P. Shushkov, J. Chem. Theory Comput., 2017,
     13, 1989-2009. DOI: 10.1021/acs.jctc.7b00118
   * C. Bannwarth, S. Ehlert and S. Grimme., J. Chem. Theory Comput., 2019,
     15, 1652-1671. DOI: 10.1021/acs.jctc.8b01176
   * P. Pracht, E. Caldeweyher, S. Ehlert, S. Grimme, ChemRxiv, 2019, preprint.
     DOI: 10.26434/chemrxiv.8326202.v1
   
   for DFT-D4:
   * E. Caldeweyher, C. Bannwarth and S. Grimme, J. Chem. Phys., 2017,
     147, 034112. DOI: 10.1063/1.4993215
   * E. Caldeweyher, S. Ehlert, A. Hansen, H. Neugebauer, S. Spicher,
     C. Bannwarth and S. Grimme, J. Chem. Phys., 2019, 150, 154122.
     DOI: 10.1063/1.5090222
   
   for sTDA-xTB:
   * S. Grimme and C. Bannwarth, J. Chem. Phys., 2016, 145, 054103.
     DOI: 10.1063/1.4959605
   
   in the mass-spec context:
   * V. Asgeirsson, C. Bauer and S. Grimme, Chem. Sci., 2017, 8, 4879.
     DOI: 10.1039/c7sc00601b
   
   for metadynamics refer to:
   * S. Grimme, J. Chem. Theory Comput., 2019, 155, 2847-2862
     DOI: 10.1021/acs.jctc.9b00143
   
   with help from (in alphabetical order)
   C. Bannwarth, F. Bohle, G. Brandenburg, E. Caldeweyher, M. Checinski,
   S. Dohm, S. Ehlert, S. Ehrlich, F. März, H. Neugebauer, J. Pisarek,
   P. Pracht, P. Shushkov, and S. Spicher.
   
 * started run on 2021/11/29 at 11:50:05.319     

           -------------------------------------------------
          |                Calculation Setup                |
           -------------------------------------------------

          program call               : /ihome/ghutchison/geoffh/xtb/xtb AY6.xyz -opt
          hostname                   : smp-n127
          coordinate file            : AY6.xyz
          omp threads                :                    12
          number of atoms            :                    94
          number of electrons        :                   330
          charge                     :                     0
          spin                       :                   0.0
          first test random number   :      0.36439873556322


########################################################################
# WARNING! Please study the warnings concerning your input carefully
#  - XTBPATH is not set, using XTBHOME instead
#  - the use of '-opt' is discouraged, please use '--opt' next time
########################################################################

           ------------------------------------------------- 
          |                 G F N 2 - x T B                 |
          | Geometry, Frequencies, Noncovalent interactions |
          |            JCTC 2019 parametrisation            |
           ------------------------------------------------- 
             KAB for C  - Si     :                1.0500
             KAB for H  - Pd     :                0.9500
             k(s)              :                1.8500
             k(p)              :                2.2300
             k(d)              :                2.2300
             k(f)              :                2.0000
             kEN (H0ij)        :               -2.0000
             D4 a1             :                0.5200
             D4 a2             :                5.0000
             D4 s6             :                1.0000
             D4 s8             :                2.7000
             D4 s9             :                5.0000
             alphaj            :                2.0000

  Z AO/shell   Hii/eV     exponent
  1     Wed Apr 25 08:07:45 CEST 2018   EN: 2.200 GM2: 0.406  GM3: 0.0800  RAES: 1.40
     1s    -10.707211    1.230000
  6     Wed Apr 25 08:07:45 CEST 2018   EN: 2.550 GM2: 0.538  GM3: 0.1500  RAES: 3.00
     2s    -13.970922    2.096432
     2p    -10.063292    1.800000
  7     Wed Apr 25 08:07:45 CEST 2018   EN: 3.040 GM2: 0.461  GM3:-0.0640  RAES: 1.90
     2s    -16.686243    2.339881
     2p    -12.523956    2.014332
  8     Wed Apr 25 08:07:45 CEST 2018   EN: 3.440 GM2: 0.452  GM3:-0.0517  RAES: 1.80
     2s    -20.229985    2.439742
     2p    -15.503117    2.137023
  9     Mon Apr 23 13:58:50 CEST 2018   EN: 3.980 GM2: 0.532  GM3: 0.1426  RAES: 2.40
     2s    -23.458179    2.416361
     2p    -15.746583    2.308399
 16     Tue Apr 24 11:44:34 CEST 2018   EN: 2.580 GM2: 0.340  GM3:-0.0502  RAES: 3.10
     3s    -20.029654    1.981333
     3p    -11.377694    2.025643
     3d     -0.420282    1.702555

           ------------------------------------------------- 
          |        Self-Consistent Charge Iterations        |
           ------------------------------------------------- 

          ...................................................
          :                      SETUP                      :
          :.................................................:
          :  # basis functions                 322          :
          :  # atomic orbitals                 318          :
          :  # shells                          166          :
          :  # electrons                       330          :
          :  max. iterations                   250          :
          :  Hamiltonian                  GFN2-xTB          :
          :  restarted?                      false          :
          :  GBSA solvation                  false          :
          :  PC potential                    false          :
          :  electronic temp.          300.0000000     K    :
          :  accuracy                    1.0000000          :
          :  -> integral cutoff          0.2500000E+02      :
          :  -> integral neglect         0.1000000E-07      :
          :  -> SCF convergence          0.1000000E-05 Eh   :
          :  -> wf. convergence          0.1000000E-03 e    :
          :  Broyden damping             0.4000000          :
          ...................................................

 iter      E             dE          RMSdq      gap      omega  full diag
   1   -185.3677594 -0.185368E+03  0.527E+00    1.41       0.0  T
   2   -185.4934535 -0.125694E+00  0.342E+00    1.08       1.0  T
   3   -185.3926835  0.100770E+00  0.236E+00    0.88       1.0  T
   4   -185.6942329 -0.301549E+00  0.873E-01    1.00       1.0  T
   5   -185.7536274 -0.593945E-01  0.253E-01    0.85       1.0  T
   6   -185.7555395 -0.191212E-02  0.140E-01    0.93       1.0  T
   7   -185.7565892 -0.104973E-02  0.681E-02    0.94       1.0  T
   8   -185.7568987 -0.309467E-03  0.253E-02    0.93       1.0  T
   9   -185.7569110 -0.123700E-04  0.157E-02    0.93       1.0  T
  10   -185.7569250 -0.139169E-04  0.745E-03    0.92       1.4  T
  11   -185.7569281 -0.311562E-05  0.332E-03    0.92       3.1  T
  12   -185.7569285 -0.411374E-06  0.200E-03    0.92       5.2  T
  13   -185.7569286 -0.151236E-06  0.117E-03    0.92       8.8  T
  14   -185.7569287 -0.846549E-07  0.546E-04    0.92      18.9  T
  15   -185.7569287 -0.132152E-07  0.221E-04    0.92      46.6  T

   *** convergence criteria satisfied after 15 iterations ***

         #    Occupation            Energy/Eh            Energy/eV
      -------------------------------------------------------------
         1        2.0000           -0.8498384             -23.1253
       ...           ...                  ...                  ...
       159        2.0000           -0.4217036             -11.4751
       160        2.0000           -0.4213926             -11.4667
       161        2.0000           -0.4117813             -11.2051
       162        2.0000           -0.4070799             -11.0772
       163        2.0000           -0.3925752             -10.6825
       164        2.0000           -0.3837846             -10.4433
       165        2.0000           -0.3782558             -10.2929 (HOMO)
       166                         -0.3442693              -9.3680 (LUMO)
       167                         -0.3408226              -9.2743
       168                         -0.3275280              -8.9125
       169                         -0.3222813              -8.7697
       170                         -0.3138948              -8.5415
       ...                                ...                  ...
       318                          1.0646609              28.9709
      -------------------------------------------------------------
                  HL-Gap            0.0339866 Eh            0.9248 eV
             Fermi-level           -0.3612736 Eh           -9.8308 eV

 SCC (total)                   0 d,  0 h,  0 min,  0.211 sec
 SCC setup                      ...        0 min,  0.002 sec (  0.918%)
 Dispersion                     ...        0 min,  0.005 sec (  2.289%)
 integral evaluation            ...        0 min,  0.020 sec (  9.273%)
 zeroth order Hamiltonian       ...        0 min,  0.001 sec (  0.653%)
 iterations                     ...        0 min,  0.163 sec ( 77.205%)
 molecular gradient             ...        0 min,  0.019 sec (  9.154%)
 printout                       ...        0 min,  0.001 sec (  0.460%)

         :::::::::::::::::::::::::::::::::::::::::::::::::::::
         ::                     SUMMARY                     ::
         :::::::::::::::::::::::::::::::::::::::::::::::::::::
         :: total energy            -183.304405180812 Eh    ::
         :: gradient norm              0.314316183036 Eh/a0 ::
         :: HOMO-LUMO gap              0.924821384304 eV    ::
         ::.................................................::
         :: SCC energy              -185.756928736147 Eh    ::
         :: -> isotropic ES            0.146856108598 Eh    ::
         :: -> anisotropic ES          0.015843421625 Eh    ::
         :: -> anisotropic XC          0.111864792461 Eh    ::
         :: -> dispersion             -0.143108697681 Eh    ::
         :: repulsion energy           2.452946738326 Eh    ::
         :: add. restraining           0.000000000000 Eh    ::
         :::::::::::::::::::::::::::::::::::::::::::::::::::::

      ----------------------------------------------------------- 
     |                   =====================                   |
     |                        A N C O P T                        |
     |                   =====================                   |
     |               Approximate Normal Coordinate               |
     |                Rational Function Optimizer                |
      ----------------------------------------------------------- 

          ...................................................
          :                      SETUP                      :
          :.................................................:
          :   optimization level            normal          :
          :   max. optcycles                   282          :
          :   ANC micro-cycles                  20          :
          :   degrees of freedom               276          :
          :.................................................:
          :   RF solver                   davidson          :
          :   input Hessian                  false          :
          :   write xtbopt.log                true          :
          :   linear?                        false          :
          :   energy convergence         0.5000000E-05 Eh   :
          :   grad. convergence          0.1000000E-02 Eh/α :
          :   maximium RF displ.         2.0000000          :
          :   Hlow (freq-cutoff)         0.5000000E-02      :
          :   Hmax (freq-cutoff)         5.0000000          :
          :   S6 in model hess.         20.0000000          :
          ...................................................

generating ANC from model Hessian ...
Using Lindh-Hessian (1995)
 Shifting diagonal of input Hessian by   5.675393735331657E-003
 Lowest  eigenvalues of input Hessian
    0.005000    0.005622   -0.000000   -0.000000    0.000000    0.000000
    0.000000    0.000000    0.005680    0.005698    0.005712    0.005751
    0.005755    0.005806    0.005853    0.005892    0.005956    0.005984
 Highest eigenvalues
    2.322073    2.346817    2.368620    2.454913    2.473946    2.541690
 

........................................................................
.............................. CYCLE    1 ..............................
........................................................................
   1   -185.7569287 -0.185757E+03  0.104E-04    0.92       0.0  T
   2   -185.7569287  0.996181E-10  0.879E-05    0.92     117.4  T
   3   -185.7569287 -0.585686E-09  0.448E-05    0.92     230.2  T
     SCC iter.                  ...        0 min,  0.032 sec
     gradient                   ...        0 min,  0.019 sec
 * total energy  :  -183.3044051 Eh     change        0.1161045E-06 Eh
   gradient norm :     0.3143156 Eh/α   predicted     0.0000000E+00 (-100.00%)
   displ. norm   :     0.5792645 α      lambda       -0.1271550E+00
   maximum displ.:     0.1135729 α      in ANC's #85, #165, #41, ...

........................................................................
.............................. CYCLE    2 ..............................
........................................................................
   1   -185.8833514 -0.185883E+03  0.411E-01    0.98       0.0  T
   2   -185.8840436 -0.692208E-03  0.228E-01    0.98       1.0  T
   3   -185.8826622  0.138147E-02  0.155E-01    0.98       1.0  T
   4   -185.8847276 -0.206542E-02  0.709E-02    0.99       1.0  T
   5   -185.8851103 -0.382756E-03  0.300E-02    0.98       1.0  T
   6   -185.8851256 -0.152870E-04  0.138E-02    0.98       1.0  T
   7   -185.8851416 -0.159382E-04  0.464E-03    0.98       2.2  T
   8   -185.8851430 -0.146932E-05  0.219E-03    0.98       4.7  T
   9   -185.8851431 -0.103754E-06  0.123E-03    0.98       8.4  T
     SCC iter.                  ...        0 min,  0.090 sec
     gradient                   ...        0 min,  0.018 sec
 * total energy  :  -183.4003750 Eh     change       -0.9596995E-01 Eh
   gradient norm :     0.1552647 Eh/α   predicted    -0.8491142E-01 ( -11.52%)
   displ. norm   :     0.6723624 α      lambda       -0.6787761E-01
   maximum displ.:     0.1548500 α      in ANC's #41, #31, #85, ...

........................................................................
.............................. CYCLE    3 ..............................
........................................................................
   1   -185.9606004 -0.185961E+03  0.341E-01    1.00       0.0  T
   2   -185.9611481 -0.547662E-03  0.188E-01    1.04       1.0  T
   3   -185.9604941  0.653974E-03  0.118E-01    1.02       1.0  T
   4   -185.9616191 -0.112498E-02  0.471E-02    1.04       1.0  T
   5   -185.9617408 -0.121684E-03  0.234E-02    1.03       1.0  T
   6   -185.9617616 -0.208532E-04  0.911E-03    1.03       1.1  T
   7   -185.9617684 -0.679641E-05  0.316E-03    1.03       3.3  T
   8   -185.9617690 -0.566384E-06  0.165E-03    1.03       6.2  T
   9   -185.9617691 -0.888005E-07  0.919E-04    1.03      11.2  T
     SCC iter.                  ...        0 min,  0.090 sec
     gradient                   ...        0 min,  0.018 sec
 * total energy  :  -183.4502757 Eh     change       -0.4990067E-01 Eh
   gradient norm :     0.0590718 Eh/α   predicted    -0.4928160E-01 (  -1.24%)
   displ. norm   :     0.7991859 α      lambda       -0.3603017E-01
   maximum displ.:     0.2492179 α      in ANC's #41, #31, #37, ...

........................................................................
.............................. CYCLE    4 ..............................
........................................................................
   1   -186.0162814 -0.186016E+03  0.256E-01    1.05       0.0  T
   2   -186.0164061 -0.124702E-03  0.143E-01    1.09       1.0  T
   3   -186.0156913  0.714790E-03  0.921E-02    1.06       1.0  T
   4   -186.0165396 -0.848385E-03  0.248E-02    1.09       1.0  T
   5   -186.0165714 -0.317252E-04  0.138E-02    1.08       1.0  T
   6   -186.0165801 -0.871626E-05  0.500E-03    1.09       2.1  T
   7   -186.0165818 -0.172543E-05  0.213E-03    1.08       4.8  T
   8   -186.0165819 -0.126552E-06  0.119E-03    1.08       8.7  T
     SCC iter.                  ...        0 min,  0.080 sec
     gradient                   ...        0 min,  0.018 sec
 * total energy  :  -183.4796328 Eh     change       -0.2935717E-01 Eh
   gradient norm :     0.0460418 Eh/α   predicted    -0.2952129E-01 (   0.56%)
   displ. norm   :     0.8895205 α      lambda       -0.3077348E-01
   maximum displ.:     0.2782833 α      in ANC's #23, #31, #41, ...

........................................................................
.............................. CYCLE    5 ..............................
........................................................................
   1   -186.0615081 -0.186062E+03  0.337E-01    1.05       0.0  T
   2   -186.0616612 -0.153029E-03  0.189E-01    1.11       1.0  T
   3   -186.0607381  0.923047E-03  0.102E-01    1.06       1.0  T
   4   -186.0618041 -0.106595E-02  0.225E-02    1.10       1.0  T
   5   -186.0618265 -0.224249E-04  0.139E-02    1.10       1.0  T
   6   -186.0618350 -0.848956E-05  0.558E-03    1.10       1.8  T
   7   -186.0618373 -0.227543E-05  0.222E-03    1.10       4.7  T
   8   -186.0618373 -0.646816E-07  0.123E-03    1.10       8.4  T
     SCC iter.                  ...        0 min,  0.079 sec
     gradient                   ...        0 min,  0.018 sec
 * total energy  :  -183.5009141 Eh     change       -0.2128123E-01 Eh
   gradient norm :     0.0505219 Eh/α   predicted    -0.2756147E-01 (  29.51%)
   displ. norm   :     0.8167285 α      lambda       -0.2526383E-01
   maximum displ.:     0.2708141 α      in ANC's #23, #22, #41, ...

........................................................................
.............................. CYCLE    6 ..............................
........................................................................
   1   -186.1023548 -0.186102E+03  0.280E-01    1.10       0.0  T
   2   -186.1024524 -0.976372E-04  0.157E-01    1.14       1.0  T
   3   -186.1017563  0.696176E-03  0.855E-02    1.09       1.0  T
   4   -186.1025477 -0.791436E-03  0.171E-02    1.13       1.0  T
   5   -186.1025585 -0.108503E-04  0.106E-02    1.13       1.0  T
   6   -186.1025630 -0.451168E-05  0.469E-03    1.13       2.2  T
   7   -186.1025645 -0.142357E-05  0.221E-03    1.13       4.7  T
     SCC iter.                  ...        0 min,  0.070 sec
     gradient                   ...        0 min,  0.018 sec
 * total energy  :  -183.5213734 Eh     change       -0.2045930E-01 Eh
   gradient norm :     0.0399685 Eh/α   predicted    -0.2105799E-01 (   2.93%)
   displ. norm   :     0.8530249 α      lambda       -0.1893745E-01
   maximum displ.:     0.3228955 α      in ANC's #23, #25, #31, ...

........................................................................
.............................. CYCLE    7 ..............................
........................................................................
   1   -186.1387290 -0.186139E+03  0.227E-01    1.10       0.0  T
   2   -186.1388055 -0.765322E-04  0.127E-01    1.14       1.0  T
   3   -186.1382490  0.556559E-03  0.768E-02    1.10       1.0  T
   4   -186.1388823 -0.633321E-03  0.178E-02    1.14       1.0  T
   5   -186.1388950 -0.126698E-04  0.981E-03    1.14       1.1  T
   6   -186.1388980 -0.298468E-05  0.469E-03    1.14       2.2  T
   7   -186.1388999 -0.192878E-05  0.186E-03    1.14       5.6  T
     SCC iter.                  ...        0 min,  0.074 sec
     gradient                   ...        0 min,  0.019 sec
 * total energy  :  -183.5366988 Eh     change       -0.1532538E-01 Eh
   gradient norm :     0.0395488 Eh/α   predicted    -0.1635866E-01 (   6.74%)
   displ. norm   :     0.8936069 α      lambda       -0.1941832E-01
   maximum displ.:     0.3846506 α      in ANC's #23, #22, #25, ...

........................................................................
.............................. CYCLE    8 ..............................
........................................................................
   1   -186.1632909 -0.186163E+03  0.325E-01    1.09       0.0  T
   2   -186.1634251 -0.134186E-03  0.180E-01    1.13       1.0  T
   3   -186.1628503  0.574817E-03  0.752E-02    1.10       1.0  T
   4   -186.1635048 -0.654536E-03  0.196E-02    1.13       1.0  T
   5   -186.1635224 -0.175657E-04  0.112E-02    1.13       1.0  T
   6   -186.1635276 -0.520191E-05  0.491E-03    1.13       2.1  T
   7   -186.1635293 -0.174725E-05  0.215E-03    1.13       4.8  T
     SCC iter.                  ...        0 min,  0.071 sec
     gradient                   ...        0 min,  0.018 sec
 * total energy  :  -183.5505138 Eh     change       -0.1381507E-01 Eh
   gradient norm :     0.0442341 Eh/α   predicted    -0.1746228E-01 (  26.40%)
   displ. norm   :     0.8078726 α      lambda       -0.1430242E-01
   maximum displ.:     0.3367686 α      in ANC's #23, #25, #22, ...

........................................................................
.............................. CYCLE    9 ..............................
........................................................................
   1   -186.1999576 -0.186200E+03  0.220E-01    1.10       0.0  T
   2   -186.2000229 -0.653632E-04  0.125E-01    1.13       1.0  T
   3   -186.1991335  0.889410E-03  0.877E-02    1.09       1.0  T
   4   -186.2001409 -0.100738E-02  0.188E-02    1.12       1.0  T
   5   -186.2001512 -0.102546E-04  0.107E-02    1.12       1.0  T
   6   -186.2001559 -0.469688E-05  0.465E-03    1.12       2.2  T
   7   -186.2001573 -0.144076E-05  0.213E-03    1.12       4.9  T
     SCC iter.                  ...        0 min,  0.069 sec
     gradient                   ...        0 min,  0.018 sec
 * total energy  :  -183.5622363 Eh     change       -0.1172252E-01 Eh
   gradient norm :     0.0336393 Eh/α   predicted    -0.1181853E-01 (   0.82%)
   displ. norm   :     0.8620009 α      lambda       -0.1205108E-01
   maximum displ.:     0.3976363 α      in ANC's #23, #25, #22, ...

........................................................................
.............................. CYCLE   10 ..............................
........................................................................
   1   -186.2181754 -0.186218E+03  0.220E-01    1.10       0.0  T
   2   -186.2183173 -0.141914E-03  0.121E-01    1.14       1.0  T
   3   -186.2178768  0.440566E-03  0.684E-02    1.10       1.0  T
   4   -186.2183784 -0.501641E-03  0.215E-02    1.13       1.0  T
   5   -186.2184078 -0.293804E-04  0.998E-03    1.13       1.0  T
   6   -186.2184111 -0.326595E-05  0.481E-03    1.13       2.1  T
   7   -186.2184129 -0.182246E-05  0.178E-03    1.13       5.8  T
     SCC iter.                  ...        0 min,  0.072 sec
     gradient                   ...        0 min,  0.018 sec
 * total energy  :  -183.5716271 Eh     change       -0.9390780E-02 Eh
   gradient norm :     0.0340581 Eh/α   predicted    -0.1050280E-01 (  11.84%)
   displ. norm   :     0.8480474 α      lambda       -0.1103548E-01
   maximum displ.:     0.3745533 α      in ANC's #23, #22, #25, ...

........................................................................
.............................. CYCLE   11 ..............................
........................................................................
   1   -186.2289601 -0.186229E+03  0.245E-01    1.10       0.0  T
   2   -186.2290501 -0.900364E-04  0.136E-01    1.11       1.0  T
   3   -186.2283631  0.686997E-03  0.790E-02    1.09       1.0  T
   4   -186.2291310 -0.767948E-03  0.192E-02    1.12       1.0  T
   5   -186.2291428 -0.117579E-04  0.108E-02    1.11       1.0  T
   6   -186.2291486 -0.580032E-05  0.448E-03    1.11       2.3  T
   7   -186.2291497 -0.106785E-05  0.211E-03    1.11       4.9  T
     SCC iter.                  ...        0 min,  0.070 sec
     gradient                   ...        0 min,  0.018 sec
 * total energy  :  -183.5802033 Eh     change       -0.8576168E-02 Eh
   gradient norm :     0.0310082 Eh/α   predicted    -0.9486014E-02 (  10.61%)
   displ. norm   :     0.8530776 α      lambda       -0.9912988E-02
   maximum displ.:     0.3505387 α      in ANC's #23, #18, #25, ...

........................................................................
.............................. CYCLE   12 ..............................
........................................................................
   1   -186.2415406 -0.186242E+03  0.322E-01    1.08       0.0  T
   2   -186.2417442 -0.203664E-03  0.180E-01    1.10       1.0  T
   3   -186.2408050  0.939213E-03  0.915E-02    1.07       1.0  T
   4   -186.2418711 -0.106610E-02  0.212E-02    1.10       1.0  T
   5   -186.2418978 -0.266594E-04  0.113E-02    1.09       1.0  T
   6   -186.2419025 -0.475002E-05  0.611E-03    1.10       1.7  T
   7   -186.2419048 -0.229474E-05  0.263E-03    1.10       3.9  T
   8   -186.2419050 -0.207367E-06  0.143E-03    1.10       7.2  T
     SCC iter.                  ...        0 min,  0.101 sec
     gradient                   ...        0 min,  0.018 sec
 * total energy  :  -183.5854090 Eh     change       -0.5205660E-02 Eh
   gradient norm :     0.0649809 Eh/α   predicted    -0.8563542E-02 (  64.50%)
   displ. norm   :     0.6670156 α      lambda       -0.1048438E-01
   maximum displ.:     0.2703143 α      in ANC's #23, #18, #22, ...

........................................................................
.............................. CYCLE   13 ..............................
........................................................................
   1   -186.2753812 -0.186275E+03  0.200E-01    1.10       0.0  T
   2   -186.2755890 -0.207749E-03  0.112E-01    1.13       1.0  T
   3   -186.2753987  0.190317E-03  0.539E-02    1.09       1.0  T
   4   -186.2756275 -0.228847E-03  0.192E-02    1.12       1.0  T
   5   -186.2756588 -0.312480E-04  0.813E-03    1.11       1.3  T
   6   -186.2756619 -0.314409E-05  0.424E-03    1.11       2.4  T
   7   -186.2756630 -0.105277E-05  0.170E-03    1.11       6.1  T
     SCC iter.                  ...        0 min,  0.070 sec
     gradient                   ...        0 min,  0.018 sec
 * total energy  :  -183.5924527 Eh     change       -0.7043703E-02 Eh
   gradient norm :     0.0338848 Eh/α   predicted    -0.7574498E-02 (   7.54%)
   displ. norm   :     0.8049416 α      lambda       -0.7437607E-02
   maximum displ.:     0.3256418 α      in ANC's #23, #18, #22, ...

........................................................................
.............................. CYCLE   14 ..............................
........................................................................
   1   -186.2549793 -0.186255E+03  0.235E-01    1.10       0.0  T
   2   -186.2550663 -0.869609E-04  0.133E-01    1.12       1.0  T
   3   -186.2545346  0.531752E-03  0.732E-02    1.09       1.0  T
   4   -186.2551372 -0.602697E-03  0.151E-02    1.11       1.0  T
   5   -186.2551454 -0.816068E-05  0.910E-03    1.11       1.1  T
   6   -186.2551498 -0.436488E-05  0.418E-03    1.11       2.5  T
   7   -186.2551507 -0.901092E-06  0.191E-03    1.11       5.4  T
     SCC iter.                  ...        0 min,  0.069 sec
     gradient                   ...        0 min,  0.018 sec
 * total energy  :  -183.5973390 Eh     change       -0.4886341E-02 Eh
   gradient norm :     0.0457764 Eh/α   predicted    -0.6128334E-02 (  25.42%)
   displ. norm   :     0.7638078 α      lambda       -0.7370485E-02
   maximum displ.:     0.3025472 α      in ANC's #18, #23, #22, ...

........................................................................
.............................. CYCLE   15 ..............................
........................................................................
   1   -186.2654689 -0.186265E+03  0.261E-01    1.10       0.0  T
   2   -186.2655778 -0.108988E-03  0.145E-01    1.12       1.0  T
   3   -186.2650326  0.545222E-03  0.711E-02    1.09       1.0  T
   4   -186.2656466 -0.613981E-03  0.172E-02    1.11       1.0  T
   5   -186.2656652 -0.185868E-04  0.870E-03    1.11       1.2  T
   6   -186.2656685 -0.326637E-05  0.388E-03    1.11       2.7  T
   7   -186.2656694 -0.946590E-06  0.157E-03    1.11       6.6  T
     SCC iter.                  ...        0 min,  0.069 sec
     gradient                   ...        0 min,  0.018 sec
 * total energy  :  -183.6012302 Eh     change       -0.3891212E-02 Eh
   gradient norm :     0.0560420 Eh/α   predicted    -0.5835229E-02 (  49.96%)
   displ. norm   :     0.6517258 α      lambda       -0.7977313E-02
   maximum displ.:     0.2673558 α      in ANC's #18, #25, #23, ...

........................................................................
.............................. CYCLE   16 ..............................
........................................................................
   1   -186.3028286 -0.186303E+03  0.277E-01    1.11       0.0  T
   2   -186.3029341 -0.105472E-03  0.155E-01    1.13       1.0  T
   3   -186.3022961  0.637966E-03  0.863E-02    1.10       1.0  T
   4   -186.3030411 -0.744959E-03  0.128E-02    1.12       1.0  T
   5   -186.3030484 -0.733432E-05  0.639E-03    1.12       1.6  T
   6   -186.3030494 -0.956524E-06  0.293E-03    1.12       3.5  T
   7   -186.3030498 -0.412494E-06  0.140E-03    1.12       7.4  T
     SCC iter.                  ...        0 min,  0.072 sec
     gradient                   ...        0 min,  0.018 sec
 * total energy  :  -183.6041531 Eh     change       -0.2922909E-02 Eh
   gradient norm :     0.0730445 Eh/α   predicted    -0.5682824E-02 (  94.42%)
   displ. norm   :     0.5571289 α      lambda       -0.8702089E-02
   maximum displ.:     0.1969412 α      in ANC's #18, #22, #4, ...

........................................................................
.............................. CYCLE   17 ..............................
........................................................................
   1   -186.3046924 -0.186305E+03  0.222E-01    1.09       0.0  T
   2   -186.3053689 -0.676463E-03  0.136E-01    1.09       1.0  T
   3   -186.3051634  0.205474E-03  0.917E-02    1.09       1.0  T
   4   -186.3057058 -0.542362E-03  0.334E-02    1.10       1.0  T
   5   -186.3058076 -0.101771E-03  0.105E-02    1.09       1.0  T
   6   -186.3058133 -0.569657E-05  0.577E-03    1.10       1.8  T
   7   -186.3058146 -0.138223E-05  0.335E-03    1.09       3.1  T
     SCC iter.                  ...        0 min,  0.071 sec
     gradient                   ...        0 min,  0.018 sec
 * total energy  :  -183.6044802 Eh     change       -0.3271105E-03 Eh
   gradient norm :     0.0992623 Eh/α   predicted    -0.5701581E-02 (1643.01%)
   displ. norm   :     0.4419817 α      lambda       -0.1044003E-01
   maximum displ.:     0.1501761 α      in ANC's #22, #18, #23, ...

........................................................................
.............................. CYCLE   18 ..............................
........................................................................
   1   -186.2737788 -0.186274E+03  0.193E-01    1.10       0.0  T
   2   -186.2740595 -0.280676E-03  0.114E-01    1.12       1.0  T
   3   -186.2736974  0.362074E-03  0.814E-02    1.10       1.0  T
   4   -186.2742151 -0.517706E-03  0.217E-02    1.11       1.0  T
   5   -186.2742549 -0.397303E-04  0.761E-03    1.11       1.4  T
   6   -186.2742579 -0.309312E-05  0.450E-03    1.11       2.3  T
   7   -186.2742592 -0.125857E-05  0.206E-03    1.11       5.0  T
     SCC iter.                  ...        0 min,  0.070 sec
     gradient                   ...        0 min,  0.018 sec
 * total energy  :  -183.6093459 Eh     change       -0.4865640E-02 Eh
   gradient norm :     0.0583292 Eh/α   predicted    -0.6239741E-02 (  28.24%)
   displ. norm   :     0.5647639 α      lambda       -0.5540532E-02
   maximum displ.:     0.2190159 α      in ANC's #18, #15, #11, ...

........................................................................
.............................. CYCLE   19 ..............................
........................................................................
   1   -186.2976208 -0.186298E+03  0.179E-01    1.10       0.0  T
   2   -186.2977086 -0.877490E-04  0.103E-01    1.12       1.0  T
   3   -186.2973736  0.334934E-03  0.689E-02    1.10       1.0  T
   4   -186.2977878 -0.414163E-03  0.127E-02    1.11       1.0  T
   5   -186.2977995 -0.117152E-04  0.503E-03    1.11       2.1  T
   6   -186.2978000 -0.538940E-06  0.290E-03    1.11       3.6  T
   7   -186.2978004 -0.398404E-06  0.123E-03    1.11       8.4  T
     SCC iter.                  ...        0 min,  0.071 sec
     gradient                   ...        0 min,  0.018 sec
 * total energy  :  -183.6114385 Eh     change       -0.2092632E-02 Eh
   gradient norm :     0.0567161 Eh/α   predicted    -0.3653871E-02 (  74.61%)
   displ. norm   :     0.6157738 α      lambda       -0.4773960E-02
   maximum displ.:     0.2364147 α      in ANC's #18, #4, #7, ...

........................................................................
.............................. CYCLE   20 ..............................
........................................................................
   1   -186.3043051 -0.186304E+03  0.182E-01    1.10       0.0  T
   2   -186.3043817 -0.765688E-04  0.104E-01    1.11       1.0  T
   3   -186.3038855  0.496153E-03  0.708E-02    1.10       1.0  T
   4   -186.3044657 -0.580195E-03  0.132E-02    1.11       1.0  T
   5   -186.3044743 -0.856113E-05  0.712E-03    1.11       1.4  T
   6   -186.3044766 -0.233401E-05  0.416E-03    1.11       2.5  T
   7   -186.3044779 -0.126582E-05  0.152E-03    1.11       6.8  T
     SCC iter.                  ...        0 min,  0.069 sec
     gradient                   ...        0 min,  0.018 sec
 * total energy  :  -183.6146366 Eh     change       -0.3198060E-02 Eh
   gradient norm :     0.0379820 Eh/α   predicted    -0.3292069E-02 (   2.94%)
   displ. norm   :     0.6472910 α      lambda       -0.4394381E-02
   maximum displ.:     0.2617848 α      in ANC's #4, #7, #18, ...
 * RMSD in coord.:     1.2493909 α      energy gain  -0.3102314E+00 Eh

generating ANC from model Hessian ...
Using Lindh-Hessian (1995)
 Shifting diagonal of input Hessian by   4.970727284006682E-003
 Lowest  eigenvalues of input Hessian
   -0.000000   -0.000000    0.000000    0.000000    0.000000    0.000000
    0.005000    0.005036    0.005084    0.005143    0.005169    0.005250
    0.005303    0.005341    0.005450    0.005576    0.005786    0.006020
 Highest eigenvalues
    2.275518    2.286058    2.524371    2.613549    2.666096    2.675405
 

........................................................................
.............................. CYCLE   21 ..............................
........................................................................
   1   -186.3111577 -0.186311E+03  0.182E-01    1.10       0.0  T
   2   -186.3112060 -0.482953E-04  0.103E-01    1.11       1.0  T
   3   -186.3109615  0.244513E-03  0.555E-02    1.10       1.0  T
   4   -186.3112438 -0.282296E-03  0.944E-03    1.11       1.1  T
   5   -186.3112440 -0.232899E-06  0.708E-03    1.11       1.5  T
   6   -186.3112481 -0.415584E-05  0.230E-03    1.11       4.5  T
   7   -186.3112483 -0.180635E-06  0.120E-03    1.11       8.6  T
   8   -186.3112484 -0.565730E-07  0.660E-04    1.11      15.6  T
   9   -186.3112484 -0.248697E-07  0.263E-04    1.11      39.3  T
     SCC iter.                  ...        0 min,  0.089 sec
     gradient                   ...        0 min,  0.019 sec
 * total energy  :  -183.6160852 Eh     change       -0.1448610E-02 Eh
   gradient norm :     0.0748812 Eh/α   predicted     0.0000000E+00 (-100.00%)
   displ. norm   :     0.3927633 α      lambda       -0.5049988E-02
   maximum displ.:     0.2133159 α      in ANC's #5, #9, #6, ...

........................................................................
.............................. CYCLE   22 ..............................
........................................................................
   1   -186.3103853 -0.186310E+03  0.140E-01    1.10       0.0  T
   2   -186.3104243 -0.390441E-04  0.789E-02    1.11       1.0  T
   3   -186.3102636  0.160674E-03  0.456E-02    1.10       1.0  T
   4   -186.3104519 -0.188260E-03  0.635E-03    1.11       1.6  T
   5   -186.3104525 -0.628695E-06  0.442E-03    1.10       2.3  T
   6   -186.3104541 -0.154100E-05  0.161E-03    1.11       6.4  T
     SCC iter.                  ...        0 min,  0.070 sec
     gradient                   ...        0 min,  0.018 sec
 * total energy  :  -183.6190704 Eh     change       -0.2985202E-02 Eh
   gradient norm :     0.0198173 Eh/α   predicted    -0.2914593E-02 (  -2.37%)
   displ. norm   :     0.3775101 α      lambda       -0.1733411E-02
   maximum displ.:     0.1969182 α      in ANC's #5, #6, #9, ...

........................................................................
.............................. CYCLE   23 ..............................
........................................................................
   1   -186.3121890 -0.186312E+03  0.117E-01    1.10       0.0  T
   2   -186.3122037 -0.146166E-04  0.648E-02    1.11       1.0  T
   3   -186.3121907  0.129362E-04  0.147E-02    1.10       1.0  T
   4   -186.3122090 -0.183239E-04  0.519E-03    1.11       2.0  T
   5   -186.3122095 -0.467500E-06  0.295E-03    1.11       3.5  T
   6   -186.3122103 -0.740922E-06  0.107E-03    1.11       9.7  T
     SCC iter.                  ...        0 min,  0.061 sec
     gradient                   ...        0 min,  0.018 sec
 * total energy  :  -183.6204642 Eh     change       -0.1393792E-02 Eh
   gradient norm :     0.0220613 Eh/α   predicted    -0.9902261E-03 ( -28.95%)
   displ. norm   :     0.7641347 α      lambda       -0.3458268E-02
   maximum displ.:     0.3799454 α      in ANC's #5, #9, #6, ...

........................................................................
.............................. CYCLE   24 ..............................
........................................................................
   1   -186.3084399 -0.186308E+03  0.226E-01    1.10       0.0  T
   2   -186.3084855 -0.455691E-04  0.126E-01    1.11       1.0  T
   3   -186.3083872  0.982915E-04  0.370E-02    1.10       1.0  T
   4   -186.3085062 -0.118956E-03  0.109E-02    1.10       1.0  T
   5   -186.3085074 -0.123177E-05  0.683E-03    1.11       1.5  T
   6   -186.3085119 -0.449385E-05  0.207E-03    1.10       5.0  T
   7   -186.3085121 -0.230054E-06  0.991E-04    1.10      10.4  T
     SCC iter.                  ...        0 min,  0.070 sec
     gradient                   ...        0 min,  0.018 sec
 * total energy  :  -183.6229304 Eh     change       -0.2466213E-02 Eh
   gradient norm :     0.0257042 Eh/α   predicted    -0.2738786E-02 (  11.05%)
   displ. norm   :     0.7489744 α      lambda       -0.3634426E-02
   maximum displ.:     0.3659774 α      in ANC's #5, #6, #9, ...

........................................................................
.............................. CYCLE   25 ..............................
........................................................................
   1   -186.3031645 -0.186303E+03  0.238E-01    1.10       0.0  T
   2   -186.3032132 -0.486933E-04  0.132E-01    1.11       1.0  T
   3   -186.3029645  0.248667E-03  0.510E-02    1.09       1.0  T
   4   -186.3032490 -0.284493E-03  0.104E-02    1.11       1.0  T
   5   -186.3032512 -0.217865E-05  0.638E-03    1.10       1.6  T
   6   -186.3032546 -0.333956E-05  0.201E-03    1.10       5.1  T
   7   -186.3032548 -0.215592E-06  0.106E-03    1.10       9.7  T
     SCC iter.                  ...        0 min,  0.070 sec
     gradient                   ...        0 min,  0.018 sec
 * total energy  :  -183.6256577 Eh     change       -0.2727350E-02 Eh
   gradient norm :     0.0309603 Eh/α   predicted    -0.2836603E-02 (   4.01%)
   displ. norm   :     0.7498810 α      lambda       -0.3089951E-02
   maximum displ.:     0.3987906 α      in ANC's #5, #6, #9, ...

........................................................................
.............................. CYCLE   26 ..............................
........................................................................
   1   -186.3093662 -0.186309E+03  0.189E-01    1.10       0.0  T
   2   -186.3093982 -0.320007E-04  0.105E-01    1.10       1.0  T
   3   -186.3093017  0.965646E-04  0.319E-02    1.09       1.0  T
   4   -186.3094116 -0.109928E-03  0.105E-02    1.10       1.0  T
   5   -186.3094161 -0.448233E-05  0.572E-03    1.10       1.8  T
   6   -186.3094185 -0.241048E-05  0.188E-03    1.10       5.5  T
     SCC iter.                  ...        0 min,  0.060 sec
     gradient                   ...        0 min,  0.018 sec
 * total energy  :  -183.6280874 Eh     change       -0.2429698E-02 Eh
   gradient norm :     0.0208865 Eh/α   predicted    -0.2413749E-02 (  -0.66%)
   displ. norm   :     0.7844399 α      lambda       -0.3328341E-02
   maximum displ.:     0.4290714 α      in ANC's #5, #6, #9, ...

........................................................................
.............................. CYCLE   27 ..............................
........................................................................
   1   -186.3218769 -0.186322E+03  0.214E-01    1.10       0.0  T
   2   -186.3219139 -0.369899E-04  0.119E-01    1.11       1.0  T
   3   -186.3216692  0.244725E-03  0.487E-02    1.10       1.0  T
   4   -186.3219444 -0.275243E-03  0.109E-02    1.10       1.0  T
   5   -186.3219464 -0.198553E-05  0.649E-03    1.10       1.6  T
   6   -186.3219493 -0.296428E-05  0.222E-03    1.10       4.6  T
   7   -186.3219497 -0.346902E-06  0.102E-03    1.10      10.1  T
     SCC iter.                  ...        0 min,  0.070 sec
     gradient                   ...        0 min,  0.018 sec
 * total energy  :  -183.6306356 Eh     change       -0.2548137E-02 Eh
   gradient norm :     0.0199884 Eh/α   predicted    -0.2688215E-02 (   5.50%)
   displ. norm   :     0.8170616 α      lambda       -0.2738598E-02
   maximum displ.:     0.4583378 α      in ANC's #5, #9, #6, ...

........................................................................
.............................. CYCLE   28 ..............................
........................................................................
   1   -186.3175909 -0.186318E+03  0.225E-01    1.10       0.0  T
   2   -186.3176287 -0.377529E-04  0.124E-01    1.10       1.0  T
   3   -186.3174120  0.216618E-03  0.466E-02    1.09       1.0  T
   4   -186.3176557 -0.243694E-03  0.117E-02    1.10       1.0  T
   5   -186.3176578 -0.204000E-05  0.710E-03    1.10       1.5  T
   6   -186.3176624 -0.458442E-05  0.154E-03    1.10       6.7  T
   7   -186.3176625 -0.875008E-07  0.876E-04    1.10      11.8  T
   8   -186.3176625 -0.129860E-07  0.487E-04    1.10      21.2  T
     SCC iter.                  ...        0 min,  0.079 sec
     gradient                   ...        0 min,  0.018 sec
 * total energy  :  -183.6329088 Eh     change       -0.2273191E-02 Eh
   gradient norm :     0.0211331 Eh/α   predicted    -0.2283430E-02 (   0.45%)
   displ. norm   :     0.7982800 α      lambda       -0.2700944E-02
   maximum displ.:     0.4639333 α      in ANC's #5, #6, #9, ...

........................................................................
.............................. CYCLE   29 ..............................
........................................................................
   1   -186.3265820 -0.186327E+03  0.189E-01    1.09       0.0  T
   2   -186.3266132 -0.311822E-04  0.104E-01    1.10       1.0  T
   3   -186.3264381  0.175092E-03  0.432E-02    1.09       1.0  T
   4   -186.3266314 -0.193300E-03  0.131E-02    1.10       1.0  T
   5   -186.3266372 -0.580761E-05  0.761E-03    1.10       1.4  T
   6   -186.3266414 -0.421419E-05  0.208E-03    1.10       5.0  T
   7   -186.3266419 -0.420530E-06  0.822E-04    1.10      12.6  T
     SCC iter.                  ...        0 min,  0.070 sec
     gradient                   ...        0 min,  0.018 sec
 * total energy  :  -183.6350959 Eh     change       -0.2187137E-02 Eh
   gradient norm :     0.0161377 Eh/α   predicted    -0.2211068E-02 (   1.09%)
   displ. norm   :     0.8479404 α      lambda       -0.2408305E-02
   maximum displ.:     0.5088829 α      in ANC's #5, #6, #9, ...

........................................................................
.............................. CYCLE   30 ..............................
........................................................................
   1   -186.3231243 -0.186323E+03  0.211E-01    1.09       0.0  T
   2   -186.3231571 -0.327801E-04  0.117E-01    1.10       1.0  T
   3   -186.3230436  0.113466E-03  0.340E-02    1.08       1.0  T
   4   -186.3231685 -0.124872E-03  0.123E-02    1.10       1.0  T
   5   -186.3231743 -0.579048E-05  0.630E-03    1.09       1.6  T
   6   -186.3231778 -0.352579E-05  0.146E-03    1.09       7.1  T
   7   -186.3231779 -0.683633E-07  0.756E-04    1.09      13.6  T
   8   -186.3231779 -0.791789E-08  0.368E-04    1.09      28.1  T
     SCC iter.                  ...        0 min,  0.080 sec
     gradient                   ...        0 min,  0.018 sec
 * total energy  :  -183.6371760 Eh     change       -0.2080094E-02 Eh
   gradient norm :     0.0187584 Eh/α   predicted    -0.2069943E-02 (  -0.49%)
   displ. norm   :     0.8139282 α      lambda       -0.2604717E-02
   maximum displ.:     0.5218731 α      in ANC's #5, #6, #9, ...

........................................................................
.............................. CYCLE   31 ..............................
........................................................................
   1   -186.3421623 -0.186342E+03  0.202E-01    1.09       0.0  T
   2   -186.3421984 -0.360959E-04  0.112E-01    1.10       1.0  T
   3   -186.3421142  0.842041E-04  0.336E-02    1.09       1.0  T
   4   -186.3422127 -0.985146E-04  0.110E-02    1.10       1.0  T
   5   -186.3422141 -0.139449E-05  0.600E-03    1.09       1.7  T
   6   -186.3422180 -0.388083E-05  0.203E-03    1.09       5.1  T
   7   -186.3422182 -0.280238E-06  0.999E-04    1.09      10.3  T
   8   -186.3422183 -0.219231E-07  0.541E-04    1.09      19.1  T
     SCC iter.                  ...        0 min,  0.078 sec
     gradient                   ...        0 min,  0.018 sec
 * total energy  :  -183.6389506 Eh     change       -0.1774567E-02 Eh
   gradient norm :     0.0320066 Eh/α   predicted    -0.2165147E-02 (  22.01%)
   displ. norm   :     0.7958522 α      lambda       -0.2400415E-02
   maximum displ.:     0.4950799 α      in ANC's #5, #6, #9, ...

........................................................................
.............................. CYCLE   32 ..............................
........................................................................
   1   -186.3314050 -0.186331E+03  0.185E-01    1.09       0.0  T
   2   -186.3314301 -0.251232E-04  0.103E-01    1.09       1.0  T
   3   -186.3312247  0.205390E-03  0.434E-02    1.08       1.0  T
   4   -186.3314487 -0.224012E-03  0.121E-02    1.09       1.0  T
   5   -186.3314534 -0.462552E-05  0.700E-03    1.09       1.5  T
   6   -186.3314567 -0.330726E-05  0.180E-03    1.09       5.7  T
   7   -186.3314569 -0.252567E-06  0.771E-04    1.09      13.4  T
     SCC iter.                  ...        0 min,  0.069 sec
     gradient                   ...        0 min,  0.018 sec
 * total energy  :  -183.6410168 Eh     change       -0.2066209E-02 Eh
   gradient norm :     0.0145284 Eh/α   predicted    -0.1960396E-02 (  -5.12%)
   displ. norm   :     0.8073469 α      lambda       -0.2134843E-02
   maximum displ.:     0.5368379 α      in ANC's #5, #6, #9, ...

........................................................................
.............................. CYCLE   33 ..............................
........................................................................
   1   -186.3312927 -0.186331E+03  0.193E-01    1.09       0.0  T
   2   -186.3313194 -0.267365E-04  0.107E-01    1.09       1.0  T
   3   -186.3311944  0.124999E-03  0.361E-02    1.08       1.0  T
   4   -186.3313304 -0.135925E-03  0.121E-02    1.09       1.0  T
   5   -186.3313351 -0.477520E-05  0.618E-03    1.09       1.7  T
   6   -186.3313384 -0.327823E-05  0.152E-03    1.09       6.8  T
   7   -186.3313385 -0.950383E-07  0.788E-04    1.09      13.1  T
   8   -186.3313385 -0.613073E-08  0.414E-04    1.09      24.9  T
     SCC iter.                  ...        0 min,  0.078 sec
     gradient                   ...        0 min,  0.018 sec
 * total energy  :  -183.6428022 Eh     change       -0.1785478E-02 Eh
   gradient norm :     0.0196124 Eh/α   predicted    -0.1763182E-02 (  -1.25%)
   displ. norm   :     0.8388187 α      lambda       -0.2075057E-02
   maximum displ.:     0.5565192 α      in ANC's #5, #6, #9, ...

........................................................................
.............................. CYCLE   34 ..............................
........................................................................
   1   -186.3295868 -0.186330E+03  0.186E-01    1.08       0.0  T
   2   -186.3296101 -0.232294E-04  0.104E-01    1.09       1.0  T
   3   -186.3293850  0.225072E-03  0.447E-02    1.08       1.0  T
   4   -186.3296295 -0.244482E-03  0.128E-02    1.09       1.0  T
   5   -186.3296348 -0.527213E-05  0.725E-03    1.09       1.4  T
   6   -186.3296383 -0.349725E-05  0.173E-03    1.09       6.0  T
   7   -186.3296385 -0.202199E-06  0.775E-04    1.09      13.3  T
   8   -186.3296385 -0.219444E-09  0.389E-04    1.09      26.5  T
     SCC iter.                  ...        0 min,  0.078 sec
     gradient                   ...        0 min,  0.018 sec
 * total energy  :  -183.6446612 Eh     change       -0.1858956E-02 Eh
   gradient norm :     0.0122548 Eh/α   predicted    -0.1767555E-02 (  -4.92%)
   displ. norm   :     0.8535413 α      lambda       -0.2107069E-02
   maximum displ.:     0.5999802 α      in ANC's #5, #6, #9, ...

........................................................................
.............................. CYCLE   35 ..............................
........................................................................
   1   -186.3359876 -0.186336E+03  0.193E-01    1.08       0.0  T
   2   -186.3360104 -0.228181E-04  0.108E-01    1.09       1.0  T
   3   -186.3358624  0.147976E-03  0.390E-02    1.08       1.0  T
   4   -186.3360242 -0.161836E-03  0.119E-02    1.09       1.0  T
   5   -186.3360264 -0.210719E-05  0.719E-03    1.08       1.4  T
   6   -186.3360316 -0.528019E-05  0.167E-03    1.09       6.2  T
   7   -186.3360317 -0.109445E-06  0.945E-04    1.09      10.9  T
   8   -186.3360318 -0.199091E-07  0.464E-04    1.09      22.2  T
     SCC iter.                  ...        0 min,  0.080 sec
     gradient                   ...        0 min,  0.018 sec
 * total energy  :  -183.6465781 Eh     change       -0.1916912E-02 Eh
   gradient norm :     0.0083601 Eh/α   predicted    -0.1821081E-02 (  -5.00%)
   displ. norm   :     0.9109704 α      lambda       -0.2007385E-02
   maximum displ.:     0.6497967 α      in ANC's #5, #9, #6, ...

........................................................................
.............................. CYCLE   36 ..............................
........................................................................
   1   -186.3347896 -0.186335E+03  0.211E-01    1.08       0.0  T
   2   -186.3348136 -0.239981E-04  0.118E-01    1.09       1.0  T
   3   -186.3345424  0.271220E-03  0.502E-02    1.08       1.0  T
   4   -186.3348385 -0.296094E-03  0.129E-02    1.08       1.0  T
   5   -186.3348408 -0.232405E-05  0.726E-03    1.08       1.4  T
   6   -186.3348455 -0.473594E-05  0.159E-03    1.08       6.5  T
   7   -186.3348456 -0.515431E-07  0.933E-04    1.08      11.1  T
   8   -186.3348456 -0.148957E-07  0.450E-04    1.08      22.9  T
     SCC iter.                  ...        0 min,  0.079 sec
     gradient                   ...        0 min,  0.018 sec
 * total energy  :  -183.6484249 Eh     change       -0.1846836E-02 Eh
   gradient norm :     0.0125039 Eh/α   predicted    -0.1836624E-02 (  -0.55%)
   displ. norm   :     0.9059417 α      lambda       -0.2026537E-02
   maximum displ.:     0.6686534 α      in ANC's #5, #9, #6, ...

........................................................................
.............................. CYCLE   37 ..............................
........................................................................
   1   -186.3462619 -0.186346E+03  0.199E-01    1.08       0.0  T
   2   -186.3462836 -0.217119E-04  0.112E-01    1.09       1.0  T
   3   -186.3460319  0.251734E-03  0.482E-02    1.07       1.0  T
   4   -186.3463066 -0.274703E-03  0.127E-02    1.08       1.0  T
   5   -186.3463084 -0.176069E-05  0.818E-03    1.08       1.3  T
   6   -186.3463140 -0.558714E-05  0.187E-03    1.08       5.5  T
   7   -186.3463141 -0.186907E-06  0.107E-03    1.08       9.6  T
   8   -186.3463142 -0.392409E-07  0.528E-04    1.08      19.5  T
     SCC iter.                  ...        0 min,  0.079 sec
     gradient                   ...        0 min,  0.018 sec
 * total energy  :  -183.6502124 Eh     change       -0.1787457E-02 Eh
   gradient norm :     0.0149396 Eh/α   predicted    -0.1844896E-02 (   3.21%)
   displ. norm   :     0.9245425 α      lambda       -0.1876871E-02
   maximum displ.:     0.6811490 α      in ANC's #5, #9, #6, ...

........................................................................
.............................. CYCLE   38 ..............................
........................................................................
   1   -186.3392613 -0.186339E+03  0.206E-01    1.08       0.0  T
   2   -186.3392859 -0.246663E-04  0.115E-01    1.08       1.0  T
   3   -186.3390172  0.268763E-03  0.489E-02    1.07       1.0  T
   4   -186.3393094 -0.292269E-03  0.130E-02    1.08       1.0  T
   5   -186.3393125 -0.310062E-05  0.779E-03    1.08       1.3  T
   6   -186.3393175 -0.495929E-05  0.168E-03    1.08       6.1  T
   7   -186.3393176 -0.855390E-07  0.921E-04    1.08      11.2  T
   8   -186.3393176 -0.761037E-08  0.477E-04    1.08      21.6  T
     SCC iter.                  ...        0 min,  0.080 sec
     gradient                   ...        0 min,  0.018 sec
 * total energy  :  -183.6519614 Eh     change       -0.1748946E-02 Eh
   gradient norm :     0.0072055 Eh/α   predicted    -0.1740609E-02 (  -0.48%)
   displ. norm   :     0.9028433 α      lambda       -0.1793562E-02
   maximum displ.:     0.6910105 α      in ANC's #5, #9, #4, ...

........................................................................
.............................. CYCLE   39 ..............................
........................................................................
   1   -186.3426217 -0.186343E+03  0.198E-01    1.07       0.0  T
   2   -186.3426446 -0.228831E-04  0.112E-01    1.08       1.0  T
   3   -186.3423971  0.247484E-03  0.474E-02    1.07       1.0  T
   4   -186.3426668 -0.269654E-03  0.125E-02    1.08       1.0  T
   5   -186.3426691 -0.237353E-05  0.817E-03    1.08       1.3  T
   6   -186.3426744 -0.520788E-05  0.174E-03    1.08       5.9  T
   7   -186.3426744 -0.932603E-07  0.995E-04    1.08      10.4  T
   8   -186.3426745 -0.136408E-07  0.549E-04    1.08      18.8  T
     SCC iter.                  ...        0 min,  0.078 sec
     gradient                   ...        0 min,  0.018 sec
 * total energy  :  -183.6535628 Eh     change       -0.1601483E-02 Eh
   gradient norm :     0.0137160 Eh/α   predicted    -0.1627772E-02 (   1.64%)
   displ. norm   :     0.9182131 α      lambda       -0.1700656E-02
   maximum displ.:     0.6999733 α      in ANC's #5, #9, #4, ...

........................................................................
.............................. CYCLE   40 ..............................
........................................................................
   1   -186.3377173 -0.186338E+03  0.200E-01    1.07       0.0  T
   2   -186.3377406 -0.232516E-04  0.113E-01    1.07       1.0  T
   3   -186.3375223  0.218247E-03  0.444E-02    1.07       1.0  T
   4   -186.3377577 -0.235331E-03  0.130E-02    1.07       1.0  T
   5   -186.3377618 -0.412857E-05  0.757E-03    1.07       1.4  T
   6   -186.3377665 -0.473225E-05  0.186E-03    1.07       5.5  T
   7   -186.3377667 -0.156129E-06  0.101E-03    1.07      10.2  T
   8   -186.3377667 -0.166703E-07  0.500E-04    1.07      20.6  T
     SCC iter.                  ...        0 min,  0.078 sec
     gradient                   ...        0 min,  0.018 sec
 * total energy  :  -183.6550965 Eh     change       -0.1533666E-02 Eh
   gradient norm :     0.0096212 Eh/α   predicted    -0.1567254E-02 (   2.19%)
   displ. norm   :     0.8764835 α      lambda       -0.1564295E-02
   maximum displ.:     0.6944243 α      in ANC's #5, #9, #4, ...

........................................................................
.............................. CYCLE   41 ..............................
........................................................................
   1   -186.3444894 -0.186344E+03  0.181E-01    1.07       0.0  T
   2   -186.3445071 -0.177463E-04  0.103E-01    1.07       1.0  T
   3   -186.3443646  0.142563E-03  0.366E-02    1.07       1.0  T
   4   -186.3445195 -0.154963E-03  0.107E-02    1.07       1.0  T
   5   -186.3445215 -0.200115E-05  0.647E-03    1.07       1.6  T
   6   -186.3445250 -0.344720E-05  0.174E-03    1.07       5.9  T
   7   -186.3445251 -0.129727E-06  0.983E-04    1.07      10.5  T
   8   -186.3445251 -0.275106E-07  0.483E-04    1.07      21.4  T
     SCC iter.                  ...        0 min,  0.078 sec
     gradient                   ...        0 min,  0.018 sec
 * total energy  :  -183.6565285 Eh     change       -0.1432023E-02 Eh
   gradient norm :     0.0104124 Eh/α   predicted    -0.1383021E-02 (  -3.42%)
   displ. norm   :     0.8999239 α      lambda       -0.1557364E-02
   maximum displ.:     0.7125700 α      in ANC's #5, #9, #4, ...

........................................................................
.............................. CYCLE   42 ..............................
........................................................................
   1   -186.3443176 -0.186344E+03  0.195E-01    1.07       0.0  T
   2   -186.3443414 -0.237823E-04  0.110E-01    1.07       1.0  T
   3   -186.3441545  0.186883E-03  0.415E-02    1.06       1.0  T
   4   -186.3443567 -0.202257E-03  0.130E-02    1.07       1.0  T
   5   -186.3443607 -0.399656E-05  0.753E-03    1.07       1.4  T
   6   -186.3443653 -0.455712E-05  0.190E-03    1.07       5.4  T
   7   -186.3443655 -0.158303E-06  0.104E-03    1.07       9.9  T
   8   -186.3443655 -0.864054E-08  0.538E-04    1.07      19.2  T
     SCC iter.                  ...        0 min,  0.079 sec
     gradient                   ...        0 min,  0.018 sec
 * total energy  :  -183.6579325 Eh     change       -0.1404020E-02 Eh
   gradient norm :     0.0088874 Eh/α   predicted    -0.1409308E-02 (   0.38%)
   displ. norm   :     0.8703985 α      lambda       -0.1548013E-02
   maximum displ.:     0.6993524 α      in ANC's #5, #9, #4, ...
 * RMSD in coord.:     1.6975430 α      energy gain  -0.4329598E-01 Eh

generating ANC from model Hessian ...
Using Lindh-Hessian (1995)
 Shifting diagonal of input Hessian by   5.238490224067495E-003
 Lowest  eigenvalues of input Hessian
    0.005000    0.005188   -0.000000   -0.000000   -0.000000    0.000000
    0.000000    0.000000    0.005279    0.005302    0.005397    0.005453
    0.005475    0.005606    0.005684    0.005880    0.005989    0.006165
 Highest eigenvalues
    2.273864    2.273982    2.597476    2.604607    2.642442    2.653060
 

........................................................................
.............................. CYCLE   43 ..............................
........................................................................
   1   -186.3492662 -0.186349E+03  0.174E-01    1.07       0.0  T
   2   -186.3492828 -0.165582E-04  0.997E-02    1.07       1.0  T
   3   -186.3491897  0.930533E-04  0.309E-02    1.07       1.0  T
   4   -186.3492905 -0.100811E-03  0.998E-03    1.07       1.0  T
   5   -186.3492938 -0.329675E-05  0.547E-03    1.07       1.9  T
   6   -186.3492961 -0.221768E-05  0.157E-03    1.07       6.6  T
   7   -186.3492961 -0.608531E-07  0.925E-04    1.07      11.1  T
   8   -186.3492961 -0.189952E-07  0.473E-04    1.07      21.8  T
     SCC iter.                  ...        0 min,  0.081 sec
     gradient                   ...        0 min,  0.019 sec
 * total energy  :  -183.6593179 Eh     change       -0.1385347E-02 Eh
   gradient norm :     0.0111928 Eh/α   predicted     0.0000000E+00 (-100.00%)
   displ. norm   :     0.2856171 α      lambda       -0.6529675E-03
   maximum displ.:     0.2288331 α      in ANC's #5, #7, #6, ...

........................................................................
.............................. CYCLE   44 ..............................
........................................................................
   1   -186.3480998 -0.186348E+03  0.133E-01    1.07       0.0  T
   2   -186.3481159 -0.161046E-04  0.738E-02    1.07       1.0  T
   3   -186.3481108  0.507254E-05  0.109E-02    1.06       1.0  T
   4   -186.3481223 -0.114728E-04  0.482E-03    1.07       2.1  T
   5   -186.3481230 -0.719390E-06  0.264E-03    1.07       3.9  T
   6   -186.3481234 -0.467106E-06  0.853E-04    1.07      12.1  T
     SCC iter.                  ...        0 min,  0.060 sec
     gradient                   ...        0 min,  0.018 sec
 * total energy  :  -183.6595675 Eh     change       -0.2496425E-03 Eh
   gradient norm :     0.0101517 Eh/α   predicted    -0.3531175E-03 (  41.45%)
   displ. norm   :     0.2521341 α      lambda       -0.9531486E-03
   maximum displ.:     0.1542967 α      in ANC's #5, #12, #7, ...

........................................................................
.............................. CYCLE   45 ..............................
........................................................................
   1   -186.3517895 -0.186352E+03  0.112E-01    1.07       0.0  T
   2   -186.3518019 -0.124038E-04  0.628E-02    1.07       1.0  T
   3   -186.3517818  0.201224E-04  0.151E-02    1.07       1.0  T
   4   -186.3518070 -0.251714E-04  0.542E-03    1.07       1.9  T
   5   -186.3518080 -0.986987E-06  0.324E-03    1.07       3.2  T
   6   -186.3518086 -0.644804E-06  0.111E-03    1.07       9.3  T
   7   -186.3518087 -0.774915E-07  0.504E-04    1.07      20.5  T
     SCC iter.                  ...        0 min,  0.070 sec
     gradient                   ...        0 min,  0.018 sec
 * total energy  :  -183.6600954 Eh     change       -0.5278268E-03 Eh
   gradient norm :     0.0157998 Eh/α   predicted    -0.5068695E-03 (  -3.97%)
   displ. norm   :     0.3216305 α      lambda       -0.6491154E-03
   maximum displ.:     0.2343006 α      in ANC's #5, #12, #7, ...

........................................................................
.............................. CYCLE   46 ..............................
........................................................................
   1   -186.3503233 -0.186350E+03  0.115E-01    1.07       0.0  T
   2   -186.3503341 -0.108658E-04  0.651E-02    1.07       1.0  T
   3   -186.3503199  0.142777E-04  0.130E-02    1.07       1.0  T
   4   -186.3503392 -0.193613E-04  0.439E-03    1.07       2.3  T
   5   -186.3503396 -0.390837E-06  0.297E-03    1.07       3.5  T
   6   -186.3503402 -0.579969E-06  0.925E-04    1.07      11.1  T
     SCC iter.                  ...        0 min,  0.060 sec
     gradient                   ...        0 min,  0.018 sec
 * total energy  :  -183.6603818 Eh     change       -0.2864183E-03 Eh
   gradient norm :     0.0118147 Eh/α   predicted    -0.3581332E-03 (  25.04%)
   displ. norm   :     0.3756188 α      lambda       -0.1020225E-02
   maximum displ.:     0.2533531 α      in ANC's #5, #7, #6, ...

........................................................................
.............................. CYCLE   47 ..............................
........................................................................
   1   -186.3480287 -0.186348E+03  0.127E-01    1.07       0.0  T
   2   -186.3480419 -0.131831E-04  0.717E-02    1.07       1.0  T
   3   -186.3479909  0.510038E-04  0.221E-02    1.06       1.0  T
   4   -186.3480503 -0.594169E-04  0.491E-03    1.07       2.1  T
   5   -186.3480507 -0.348222E-06  0.342E-03    1.07       3.0  T
   6   -186.3480514 -0.751548E-06  0.107E-03    1.07       9.7  T
   7   -186.3480515 -0.435037E-07  0.481E-04    1.07      21.4  T
     SCC iter.                  ...        0 min,  0.071 sec
     gradient                   ...        0 min,  0.018 sec
 * total energy  :  -183.6608906 Eh     change       -0.5087800E-03 Eh
   gradient norm :     0.0157200 Eh/α   predicted    -0.5820839E-03 (  14.41%)
   displ. norm   :     0.4348498 α      lambda       -0.1122229E-02
   maximum displ.:     0.3098497 α      in ANC's #5, #7, #6, ...

........................................................................
.............................. CYCLE   48 ..............................
........................................................................
   1   -186.3471332 -0.186347E+03  0.158E-01    1.07       0.0  T
   2   -186.3471541 -0.208547E-04  0.885E-02    1.07       1.0  T
   3   -186.3470558  0.983330E-04  0.297E-02    1.06       1.0  T
   4   -186.3471693 -0.113560E-03  0.583E-03    1.07       1.8  T
   5   -186.3471698 -0.523633E-06  0.380E-03    1.07       2.7  T
   6   -186.3471708 -0.922884E-06  0.127E-03    1.07       8.1  T
   7   -186.3471708 -0.660243E-07  0.584E-04    1.07      17.6  T
     SCC iter.                  ...        0 min,  0.071 sec
     gradient                   ...        0 min,  0.018 sec
 * total energy  :  -183.6613292 Eh     change       -0.4386051E-03 Eh
   gradient norm :     0.0259181 Eh/α   predicted    -0.6672179E-03 (  52.12%)
   displ. norm   :     0.2950175 α      lambda       -0.1003237E-02
   maximum displ.:     0.2125152 α      in ANC's #5, #7, #6, ...

........................................................................
.............................. CYCLE   49 ..............................
........................................................................
   1   -186.3519871 -0.186352E+03  0.867E-02    1.07       0.0  T
   2   -186.3519951 -0.801156E-05  0.486E-02    1.07       1.0  T
   3   -186.3519854  0.970671E-05  0.117E-02    1.07       1.0  T
   4   -186.3519976 -0.122050E-04  0.434E-03    1.07       2.4  T
   5   -186.3519982 -0.510713E-06  0.258E-03    1.07       4.0  T
   6   -186.3519986 -0.472584E-06  0.950E-04    1.07      10.9  T
     SCC iter.                  ...        0 min,  0.059 sec
     gradient                   ...        0 min,  0.018 sec
 * total energy  :  -183.6620702 Eh     change       -0.7409965E-03 Eh
   gradient norm :     0.0063615 Eh/α   predicted    -0.5452793E-03 ( -26.41%)
   displ. norm   :     0.4733601 α      lambda       -0.7765428E-03
   maximum displ.:     0.3366611 α      in ANC's #5, #7, #6, ...

........................................................................
.............................. CYCLE   50 ..............................
........................................................................
   1   -186.3512033 -0.186351E+03  0.109E-01    1.07       0.0  T
   2   -186.3512129 -0.959415E-05  0.618E-02    1.07       1.0  T
   3   -186.3511933  0.195639E-04  0.151E-02    1.07       1.0  T
   4   -186.3512149 -0.215995E-04  0.665E-03    1.07       1.6  T
   5   -186.3512169 -0.203351E-05  0.371E-03    1.07       2.8  T
   6   -186.3512179 -0.997571E-06  0.116E-03    1.07       8.9  T
   7   -186.3512180 -0.494113E-07  0.619E-04    1.07      16.7  T
     SCC iter.                  ...        0 min,  0.070 sec
     gradient                   ...        0 min,  0.018 sec
 * total energy  :  -183.6627275 Eh     change       -0.6573578E-03 Eh
   gradient norm :     0.0098700 Eh/α   predicted    -0.4752718E-03 ( -27.70%)
   displ. norm   :     0.5807789 α      lambda       -0.8029256E-03
   maximum displ.:     0.4057115 α      in ANC's #5, #7, #6, ...

........................................................................
.............................. CYCLE   51 ..............................
........................................................................
   1   -186.3503738 -0.186350E+03  0.128E-01    1.07       0.0  T
   2   -186.3503857 -0.118284E-04  0.718E-02    1.07       1.0  T
   3   -186.3503339  0.517970E-04  0.227E-02    1.07       1.0  T
   4   -186.3503909 -0.569922E-04  0.830E-03    1.07       1.2  T
   5   -186.3503930 -0.213246E-05  0.471E-03    1.07       2.2  T
   6   -186.3503946 -0.160251E-05  0.136E-03    1.07       7.6  T
   7   -186.3503947 -0.583365E-07  0.778E-04    1.07      13.3  T
     SCC iter.                  ...        0 min,  0.070 sec
     gradient                   ...        0 min,  0.018 sec
 * total energy  :  -183.6634351 Eh     change       -0.7076216E-03 Eh
   gradient norm :     0.0086210 Eh/α   predicted    -0.5368786E-03 ( -24.13%)
   displ. norm   :     0.6685363 α      lambda       -0.9767122E-03
   maximum displ.:     0.4681292 α      in ANC's #5, #7, #6, ...

........................................................................
.............................. CYCLE   52 ..............................
........................................................................
   1   -186.3519144 -0.186352E+03  0.138E-01    1.07       0.0  T
   2   -186.3519293 -0.149105E-04  0.774E-02    1.07       1.0  T
   3   -186.3518812  0.480984E-04  0.231E-02    1.07       1.0  T
   4   -186.3519326 -0.513712E-04  0.100E-02    1.07       1.0  T
   5   -186.3519367 -0.405639E-05  0.556E-03    1.07       1.9  T
   6   -186.3519390 -0.235334E-05  0.159E-03    1.07       6.5  T
   7   -186.3519391 -0.104018E-06  0.896E-04    1.07      11.5  T
     SCC iter.                  ...        0 min,  0.069 sec
     gradient                   ...        0 min,  0.018 sec
 * total energy  :  -183.6643092 Eh     change       -0.8740491E-03 Eh
   gradient norm :     0.0084733 Eh/α   predicted    -0.7066296E-03 ( -19.15%)
   displ. norm   :     0.7370078 α      lambda       -0.1019404E-02
   maximum displ.:     0.5258341 α      in ANC's #5, #7, #6, ...

........................................................................
.............................. CYCLE   53 ..............................
........................................................................
   1   -186.3506557 -0.186351E+03  0.157E-01    1.07       0.0  T
   2   -186.3506752 -0.195325E-04  0.875E-02    1.07       1.0  T
   3   -186.3506506  0.246471E-04  0.207E-02    1.07       1.0  T
   4   -186.3506764 -0.257962E-04  0.109E-02    1.07       1.0  T
   5   -186.3506818 -0.546202E-05  0.556E-03    1.07       1.9  T
   6   -186.3506845 -0.268245E-05  0.172E-03    1.07       6.0  T
   7   -186.3506846 -0.111050E-06  0.969E-04    1.07      10.6  T
     SCC iter.                  ...        0 min,  0.069 sec
     gradient                   ...        0 min,  0.018 sec
 * total energy  :  -183.6652604 Eh     change       -0.9512396E-03 Eh
   gradient norm :     0.0062991 Eh/α   predicted    -0.7865671E-03 ( -17.31%)
   displ. norm   :     0.7728247 α      lambda       -0.1014470E-02
   maximum displ.:     0.5663568 α      in ANC's #5, #7, #6, ...

........................................................................
.............................. CYCLE   54 ..............................
........................................................................
   1   -186.3512403 -0.186351E+03  0.159E-01    1.07       0.0  T
   2   -186.3512601 -0.197626E-04  0.883E-02    1.07       1.0  T
   3   -186.3512451  0.149758E-04  0.192E-02    1.07       1.0  T
   4   -186.3512617 -0.165656E-04  0.105E-02    1.07       1.0  T
   5   -186.3512665 -0.487306E-05  0.512E-03    1.07       2.0  T
   6   -186.3512687 -0.215853E-05  0.166E-03    1.07       6.2  T
   7   -186.3512688 -0.975115E-07  0.945E-04    1.07      10.9  T
     SCC iter.                  ...        0 min,  0.071 sec
     gradient                   ...        0 min,  0.018 sec
 * total energy  :  -183.6662040 Eh     change       -0.9435697E-03 Eh
   gradient norm :     0.0057741 Eh/α   predicted    -0.8101903E-03 ( -14.14%)
   displ. norm   :     0.7703475 α      lambda       -0.9431637E-03
   maximum displ.:     0.5741792 α      in ANC's #5, #7, #6, ...

........................................................................
.............................. CYCLE   55 ..............................
........................................................................
   1   -186.3506748 -0.186351E+03  0.160E-01    1.06       0.0  T
   2   -186.3506953 -0.204227E-04  0.893E-02    1.07       1.0  T
   3   -186.3506786  0.166417E-04  0.200E-02    1.07       1.0  T
   4   -186.3506980 -0.194227E-04  0.105E-02    1.06       1.0  T
   5   -186.3507028 -0.478952E-05  0.449E-03    1.07       2.3  T
   6   -186.3507044 -0.158888E-05  0.150E-03    1.07       6.9  T
   7   -186.3507045 -0.419766E-07  0.949E-04    1.07      10.9  T
     SCC iter.                  ...        0 min,  0.070 sec
     gradient                   ...        0 min,  0.018 sec
 * total energy  :  -183.6670999 Eh     change       -0.8959509E-03 Eh
   gradient norm :     0.0069030 Eh/α   predicted    -0.7514388E-03 ( -16.13%)
   displ. norm   :     0.7316099 α      lambda       -0.9058092E-03
   maximum displ.:     0.5568809 α      in ANC's #5, #7, #6, ...

........................................................................
.............................. CYCLE   56 ..............................
........................................................................
   1   -186.3537315 -0.186354E+03  0.144E-01    1.06       0.0  T
   2   -186.3537479 -0.163456E-04  0.806E-02    1.06       1.0  T
   3   -186.3537301  0.177967E-04  0.192E-02    1.06       1.0  T
   4   -186.3537497 -0.195900E-04  0.967E-03    1.06       1.1  T
   5   -186.3537530 -0.331529E-05  0.448E-03    1.06       2.3  T
   6   -186.3537554 -0.238625E-05  0.150E-03    1.06       6.9  T
   7   -186.3537555 -0.133009E-06  0.920E-04    1.06      11.2  T
     SCC iter.                  ...        0 min,  0.070 sec
     gradient                   ...        0 min,  0.018 sec
 * total energy  :  -183.6679536 Eh     change       -0.8536049E-03 Eh
   gradient norm :     0.0050118 Eh/α   predicted    -0.6953246E-03 ( -18.54%)
   displ. norm   :     0.7440301 α      lambda       -0.8955727E-03
   maximum displ.:     0.5744965 α      in ANC's #5, #6, #7, ...

........................................................................
.............................. CYCLE   57 ..............................
........................................................................
   1   -186.3529055 -0.186353E+03  0.154E-01    1.06       0.0  T
   2   -186.3529247 -0.191740E-04  0.862E-02    1.06       1.0  T
   3   -186.3528997  0.249536E-04  0.213E-02    1.06       1.0  T
   4   -186.3529294 -0.297299E-04  0.957E-03    1.06       1.1  T
   5   -186.3529327 -0.322193E-05  0.425E-03    1.06       2.4  T
   6   -186.3529343 -0.162414E-05  0.149E-03    1.06       6.9  T
   7   -186.3529343 -0.605939E-07  0.104E-03    1.06      10.0  T
     SCC iter.                  ...        0 min,  0.071 sec
     gradient                   ...        0 min,  0.018 sec
 * total energy  :  -183.6687871 Eh     change       -0.8335915E-03 Eh
   gradient norm :     0.0075584 Eh/α   predicted    -0.6956753E-03 ( -16.54%)
   displ. norm   :     0.7364760 α      lambda       -0.8559884E-03
   maximum displ.:     0.5781844 α      in ANC's #5, #6, #7, ...

........................................................................
.............................. CYCLE   58 ..............................
........................................................................
   1   -186.3543813 -0.186354E+03  0.142E-01    1.06       0.0  T
   2   -186.3543953 -0.139676E-04  0.801E-02    1.06       1.0  T
   3   -186.3543567  0.385293E-04  0.223E-02    1.06       1.0  T
   4   -186.3543972 -0.404572E-04  0.970E-03    1.06       1.1  T
   5   -186.3544014 -0.419570E-05  0.468E-03    1.06       2.2  T
   6   -186.3544038 -0.238082E-05  0.150E-03    1.06       6.9  T
   7   -186.3544039 -0.103079E-06  0.873E-04    1.06      11.8  T
     SCC iter.                  ...        0 min,  0.071 sec
     gradient                   ...        0 min,  0.018 sec
 * total energy  :  -183.6695904 Eh     change       -0.8032559E-03 Eh
   gradient norm :     0.0044966 Eh/α   predicted    -0.6601431E-03 ( -17.82%)
   displ. norm   :     0.7625843 α      lambda       -0.8534957E-03
   maximum displ.:     0.6149076 α      in ANC's #5, #6, #3, ...

........................................................................
.............................. CYCLE   59 ..............................
........................................................................
   1   -186.3575495 -0.186358E+03  0.143E-01    1.06       0.0  T
   2   -186.3575659 -0.163987E-04  0.803E-02    1.06       1.0  T
   3   -186.3575446  0.212837E-04  0.193E-02    1.06       1.0  T
   4   -186.3575708 -0.262071E-04  0.836E-03    1.06       1.2  T
   5   -186.3575719 -0.104338E-05  0.437E-03    1.06       2.4  T
   6   -186.3575741 -0.228440E-05  0.137E-03    1.06       7.5  T
   7   -186.3575742 -0.821739E-07  0.894E-04    1.06      11.5  T
     SCC iter.                  ...        0 min,  0.069 sec
     gradient                   ...        0 min,  0.018 sec
 * total energy  :  -183.6703824 Eh     change       -0.7919968E-03 Eh
   gradient norm :     0.0040221 Eh/α   predicted    -0.6749174E-03 ( -14.78%)
   displ. norm   :     0.8197260 α      lambda       -0.8649696E-03
   maximum displ.:     0.6667525 α      in ANC's #5, #6, #3, ...

........................................................................
.............................. CYCLE   60 ..............................
........................................................................
   1   -186.3550984 -0.186355E+03  0.160E-01    1.05       0.0  T
   2   -186.3551173 -0.188901E-04  0.912E-02    1.05       1.0  T
   3   -186.3550662  0.511008E-04  0.243E-02    1.06       1.0  T
   4   -186.3551205 -0.543454E-04  0.106E-02    1.05       1.0  T
   5   -186.3551261 -0.555823E-05  0.571E-03    1.05       1.8  T
   6   -186.3551290 -0.288510E-05  0.164E-03    1.05       6.3  T
   7   -186.3551290 -0.744208E-07  0.102E-03    1.05      10.1  T
     SCC iter.                  ...        0 min,  0.070 sec
     gradient                   ...        0 min,  0.018 sec
 * total energy  :  -183.6711761 Eh     change       -0.7936534E-03 Eh
[...]
       318                          1.1522390              31.3540
      -------------------------------------------------------------
                  HL-Gap            0.0381475 Eh            1.0380 eV
             Fermi-level           -0.3644513 Eh           -9.9172 eV

     #   Z        covCN         q      C6AA      α(0)
     1   6 C      2.873     0.226    23.259     7.906
     2   8 O      0.958    -0.352    20.691     6.101
     3   6 C      3.049    -0.021    28.477     8.752
     4   6 C      2.913    -0.037    28.931     8.820
     5   6 C      2.783     0.161    24.515     8.110
     6   9 F      0.787    -0.186    11.096     3.935
     7   6 C      2.782     0.163    24.462     8.101
     8   9 F      0.787    -0.184    11.067     3.930
     9   6 C      2.914    -0.049    29.225     8.865
    10   6 C      3.037     0.005    27.877     8.660
    11   6 C      3.020     0.029    27.327     8.575
    12   6 C      2.947     0.007    27.868     8.658
    13   6 C      1.944     0.123    28.065     8.555
    14   7 N      0.911    -0.236    26.166     7.398
    15   6 C      1.945     0.122    28.089     8.559
    16   7 N      0.911    -0.226    25.931     7.365
    17   6 C      3.008    -0.042    29.019     8.837
    18   6 C      2.920    -0.014    28.368     8.734
    19   6 C      2.992     0.017    27.614     8.620
    20  16 S      2.315     0.013   140.525    19.952
    21   6 C      3.106    -0.006    28.033     8.675
    22   6 C      3.181     0.009    27.396     8.544
    23   6 C      3.093     0.006    27.778     8.638
    24   6 C      3.804    -0.057    21.605     6.617
    25   6 C      3.754    -0.100    22.477     6.760
    26  16 S      2.164    -0.017   141.759    20.039
    27   6 C      3.092     0.009    27.700     8.626
    28   6 C      3.254     0.028    26.307     8.297
    29   7 N      2.795    -0.040    22.003     6.967
    30   6 C      3.749    -0.010    20.819     6.508
    31   6 C      3.065     0.028    27.304     8.569
    32   6 C      3.088    -0.030    28.633     8.771
    33   6 C      3.345     0.069    23.937     7.724
    34   7 N      1.854    -0.264    27.720     7.803
    35  16 S      2.691     0.323   128.578    19.085
    36   7 N      1.855    -0.259    27.593     7.786
    37   6 C      3.344     0.070    23.937     7.727
    38   6 C      3.079    -0.033    28.732     8.788
    39   6 C      3.054     0.032    27.225     8.557
    40   7 N      2.802    -0.035    21.914     6.953
    41   6 C      3.738    -0.001    20.670     6.487
    42   6 C      3.751    -0.119    22.836     6.815
    43   6 C      3.214     0.024    26.814     8.426
    44   6 C      3.096    -0.001    27.924     8.661
    45  16 S      2.251     0.061   138.583    19.813
    46   6 C      2.997     0.012    27.740     8.640
    47   6 C      3.067    -0.008    28.157     8.701
    48   6 C      3.006    -0.042    29.017     8.836
    49   6 C      3.020     0.030    27.313     8.573
    50   6 C      2.947     0.004    27.935     8.669
    51   6 C      1.948     0.122    28.092     8.559
    52   7 N      0.911    -0.229    26.007     7.376
    53   6 C      1.946     0.123    28.064     8.555
    54   7 N      0.911    -0.244    26.360     7.426
    55   6 C      3.036     0.005    27.885     8.661
    56   6 C      2.914    -0.050    29.234     8.866
    57   6 C      2.782     0.163    24.476     8.103
    58   9 F      0.787    -0.185    11.082     3.932
    59   6 C      2.783     0.161    24.510     8.109
    60   9 F      0.787    -0.186    11.095     3.935
    61   6 C      2.913    -0.037    28.922     8.819
    62   6 C      3.048    -0.020    28.459     8.749
    63   6 C      2.870     0.226    23.261     7.906
    64   8 O      0.930    -0.342    20.518     6.075
    65   6 C      3.752    -0.110    22.661     6.788
    66   6 C      3.803    -0.060    21.660     6.626
    67   6 C      3.753    -0.101    22.482     6.761
    68   6 C      2.922    -0.016    28.414     8.741
    69   1 H      0.926     0.092     1.859     2.132
    70   1 H      0.926     0.091     1.866     2.136
    71   1 H      0.926     0.075     2.031     2.229
    72   1 H      0.924     0.058     2.225     2.333
    73   1 H      0.924     0.059     2.215     2.328
    74   1 H      0.925     0.039     2.462     2.454
    75   1 H      0.925     0.056     2.252     2.347
    76   1 H      0.925     0.044     2.398     2.421
    77   1 H      0.924     0.075     2.036     2.232
    78   1 H      0.925     0.066     2.134     2.284
    79   1 H      0.924     0.062     2.171     2.304
    80   1 H      0.924     0.054     2.275     2.359
    81   1 H      0.925     0.054     2.268     2.355
    82   1 H      0.925     0.051     2.309     2.376
    83   1 H      0.925     0.055     2.258     2.350
    84   1 H      0.926     0.090     1.876     2.142
    85   1 H      0.926     0.095     1.835     2.118
    86   1 H      0.925     0.051     2.313     2.378
    87   1 H      0.925     0.045     2.382     2.414
    88   1 H      0.925     0.055     2.260     2.351
    89   1 H      0.925     0.051     2.303     2.373
    90   1 H      0.924     0.055     2.253     2.347
    91   1 H      0.925     0.034     2.532     2.488
    92   1 H      0.925     0.054     2.276     2.359
    93   1 H      0.925     0.042     2.425     2.435
    94   1 H      0.926     0.076     2.024     2.225

 Mol. C6AA /au·bohr⁶  :     163077.025032
 Mol. C8AA /au·bohr⁸  :    4507049.936203
 Mol. α(0) /au        :        637.743957


Wiberg/Mayer (AO) data.
largest (>0.10) Wiberg bond orders for each atom
          total WBO             WBO to atom ...
     1  C   3.920        O    2 1.707    C   17 1.078    C    3 1.017
     2  O   2.118        C    1 1.707    S   20 0.133
     3  C   3.975        C    4 1.418    C   10 1.300    C    1 1.017
     4  C   3.976        C    3 1.418    C    5 1.384    H   69 0.960
     5  C   3.881        C    4 1.384    C    7 1.333    F    6 0.988
     6  F   1.126        C    5 0.988
     7  C   3.888        C    9 1.387    C    5 1.333    F    8 0.992
     8  F   1.132        C    7 0.992
     9  C   3.971        C   10 1.403    C    7 1.387    H   70 0.954
    10  C   3.981        C    9 1.403    C    3 1.300    C   11 1.078
    11  C   3.972        C   12 1.485    C   17 1.148    C   10 1.078
    12  C   3.943        C   11 1.485    C   13 1.098    C   15 1.094
    13  C   3.946        N   14 2.751    C   12 1.098
    14  N   2.966        C   13 2.751
    15  C   3.946        N   16 2.768    C   12 1.094
    16  N   2.970        C   15 2.768
    17  C   3.951        C   18 1.463    C   11 1.148    C    1 1.078
    18  C   3.943        C   17 1.463    C   19 1.336    H   71 0.931
    19  C   3.930        C   18 1.336    C   23 1.318    S   20 1.074
    20  S   2.726        C   21 1.158    C   19 1.074    O    2 0.133
    21  C   3.942        C   22 1.280    C   28 1.261    S   20 1.158
    22  C   3.928        C   23 1.373    C   21 1.280    S   26 1.080
    23  C   3.955        C   22 1.373    C   19 1.318    C   24 1.019
    24  C   3.992        C   23 1.019    C   25 0.990    H   73 0.968    H   72 0.962
    25  C   3.989        C   24 0.990    H   76 0.988    H   74 0.987    H   75 0.983
    26  S   2.507        C   27 1.116    C   22 1.080
    27  C   3.916        C   28 1.296    C   32 1.282    S   26 1.116
    28  C   3.935        C   27 1.296    C   21 1.261    N   29 1.153
    29  N   3.538        C   31 1.161    C   28 1.153    C   30 0.977
    30  C   3.960        C   65 1.005    N   29 0.977    H   77 0.962    H   78 0.955
    31  C   3.924        C   32 1.265    C   39 1.228    N   29 1.161
    32  C   3.949        C   27 1.282    C   31 1.265    C   33 1.170
    33  C   3.973        N   34 1.425    C   37 1.171    C   32 1.170    S   35 0.102
    34  N   3.073        C   33 1.425    S   35 1.396    N   36 0.148
    35  S   3.113        N   36 1.397    N   34 1.396    C   33 0.102
    36  N   3.078        C   37 1.426    S   35 1.397    N   34 0.148
    37  C   3.973        N   36 1.426    C   33 1.171    C   38 1.171
    38  C   3.954        C   44 1.276    C   39 1.267    C   37 1.171
    39  C   3.919        C   38 1.267    C   31 1.228    N   40 1.174
    40  N   3.550        C   39 1.174    C   43 1.135    C   41 0.988
    41  C   3.968        C   42 1.005    N   40 0.988    H   80 0.962    H   79 0.961
    42  C   3.987        C   41 1.005    H   82 0.984    H   83 0.979    H   81 0.977
    43  C   3.933        C   47 1.339    C   44 1.248    N   40 1.135
    44  C   3.942        C   38 1.276    C   43 1.248    S   45 1.187
    45  S   2.733        C   44 1.187    C   46 1.093    O   64 0.113    C   47 0.113
    46  C   3.930        C   68 1.331    C   47 1.318    S   45 1.093
    47  C   3.963        C   43 1.339    C   46 1.318    C   66 1.017    S   45 0.113
    48  C   3.953        C   68 1.470    C   49 1.152    C   63 1.067
    49  C   3.971        C   50 1.480    C   48 1.152    C   55 1.079
    50  C   3.955        C   49 1.480    C   53 1.101    C   51 1.094
    51  C   3.946        N   52 2.766    C   50 1.094
    52  N   2.969        C   51 2.766
    53  C   3.945        N   54 2.744    C   50 1.101
    54  N   2.963        C   53 2.744
    55  C   3.982        C   56 1.402    C   62 1.302    C   49 1.079
    56  C   3.971        C   55 1.402    C   57 1.389    H   84 0.954
    57  C   3.889        C   56 1.389    C   59 1.333    F   58 0.990
    58  F   1.130        C   57 0.990
    59  C   3.881        C   61 1.384    C   57 1.333    F   60 0.988
    60  F   1.126        C   59 0.988
    61  C   3.976        C   62 1.420    C   59 1.384    H   85 0.959
    62  C   3.975        C   61 1.420    C   55 1.302    C   63 1.013
    63  C   3.923        O   64 1.730    C   48 1.067    C   62 1.013
    64  O   2.119        C   63 1.730    S   45 0.113
    65  C   3.988        C   30 1.005    H   86 0.986    H   87 0.984    H   88 0.982
    66  C   3.993        C   47 1.017    C   67 0.993    H   89 0.961    H   90 0.959
    67  C   3.990        C   66 0.993    H   91 0.987    H   93 0.986    H   92 0.984
    68  C   3.946        C   48 1.470    C   46 1.331    H   94 0.927
    69  H   0.991        C    4 0.960
    70  H   0.991        C    9 0.954
    71  H   0.993        C   18 0.931
    72  H   0.996        C   24 0.962
    73  H   0.995        C   24 0.968
    74  H   0.998        C   25 0.987
    75  H   0.995        C   25 0.983
    76  H   0.998        C   25 0.988
    77  H   0.994        C   30 0.962
    78  H   0.994        C   30 0.955
    79  H   0.994        C   41 0.961
    80  H   0.996        C   41 0.962
    81  H   0.997        C   42 0.977
    82  H   0.997        C   42 0.984
    83  H   0.997        C   42 0.979
    84  H   0.991        C   56 0.954
    85  H   0.991        C   61 0.959
    86  H   0.997        C   65 0.986
    87  H   0.998        C   65 0.984
    88  H   0.996        C   65 0.982
    89  H   0.997        C   66 0.961
    90  H   0.996        C   66 0.959
    91  H   0.999        C   67 0.987
    92  H   0.995        C   67 0.984
    93  H   0.998        C   67 0.986
    94  H   0.993        C   68 0.927

molecular dipole:
                 x           y           z       tot (Debye)
 q only:       -0.316      -0.637      -0.253
   full:        0.048      -0.854      -0.300       2.305
molecular quadrupole (traceless):
                xx          xy          yy          xz          yz          zz
 q only:       38.378     -19.201      10.476     -51.087     -80.215     -48.854
  q+dip:        9.172     -19.096      31.957     -82.661     -63.176     -41.129
   full:        7.247     -14.238      31.907     -90.964     -72.130     -39.154

           -------------------------------------------------
          |                Geometry Summary                 |
           -------------------------------------------------

      molecular mass/u    :      975.0414000
   center of mass at/Å    :       -7.9504473      -7.4667324     -18.2631670
  moments of inertia/u·Å² :        0.6929280E+04   0.5856780E+05   0.6452560E+05
rotational constants/cm⁻¹ :        0.2432812E-02   0.2878311E-03   0.2612549E-03

 * 89 selected distances

     #   Z        #   Z                                     value/Å
     1   6 C      2   8 O                                 1.2186727
     3   6 C      4   6 C                                 1.3803306
     4   6 C      5   6 C                                 1.3856533
     5   6 C      6   9 F                                 1.3387059
     5   6 C      7   6 C                                 1.3947544
     7   6 C      8   9 F                                 1.3374929
     7   6 C      9   6 C                                 1.3874951
     3   6 C     10   6 C                                 1.4048343
     9   6 C     10   6 C                                 1.3858135
    11   6 C     12   6 C                                 1.3715194
    13   6 C     14   7 N                                 1.1491413
    15   6 C     16   7 N                                 1.1476828
    17   6 C     18   6 C                                 1.3767695
    18   6 C     19   6 C                                 1.3952830
    20  16 S     21   6 C                                 1.7226380
    21   6 C     22   6 C                                 1.4078304
    19   6 C     23   6 C                                 1.4085589
    22   6 C     23   6 C                                 1.3866534
    23   6 C     24   6 C                                 1.4932312
    24   6 C     25   6 C                                 1.5314734
    22   6 C     26  16 S                                 1.7540685 (max)
    26  16 S     27   6 C                                 1.7280652
    21   6 C     28   6 C                                 1.3971917
    27   6 C     28   6 C                                 1.3997758
    28   6 C     29   7 N                                 1.3715724
    29   7 N     30   6 C                                 1.4489280
    29   7 N     31   6 C                                 1.3897408
    27   6 C     32   6 C                                 1.3992961
    31   6 C     32   6 C                                 1.4291098
    32   6 C     33   6 C                                 1.4122713
    33   6 C     34   7 N                                 1.3240696
    34   7 N     35  16 S                                 1.6186802
    35  16 S     36   7 N                                 1.6171401
    33   6 C     37   6 C                                 1.4311758
    36   7 N     37   6 C                                 1.3233589
    37   6 C     38   6 C                                 1.4121037
    31   6 C     39   6 C                                 1.4229690
    38   6 C     39   6 C                                 1.4237938
    39   6 C     40   7 N                                 1.3831415
    40   7 N     41   6 C                                 1.4421972
    41   6 C     42   6 C                                 1.5306445
    40   7 N     43   6 C                                 1.3820617
    38   6 C     44   6 C                                 1.3987082
    43   6 C     44   6 C                                 1.4096097
    44   6 C     45  16 S                                 1.7045631
    43   6 C     47   6 C                                 1.3962555
    46   6 C     47   6 C                                 1.4155249
    49   6 C     50   6 C                                 1.3725430
    51   6 C     52   7 N                                 1.1478429
    53   6 C     54   7 N                                 1.1496793
    55   6 C     56   6 C                                 1.3860149
    56   6 C     57   6 C                                 1.3872826
    57   6 C     58   9 F                                 1.3381455
    57   6 C     59   6 C                                 1.3946712
    59   6 C     60   9 F                                 1.3386939
    59   6 C     61   6 C                                 1.3858376
    55   6 C     62   6 C                                 1.4043293
    61   6 C     62   6 C                                 1.3800996
    63   6 C     64   8 O                                 1.2151285
    30   6 C     65   6 C                                 1.5272494
    66   6 C     67   6 C                                 1.5328013
    46   6 C     68   6 C                                 1.3981304
    48   6 C     68   6 C                                 1.3760707
     4   6 C     69   1 H                                 1.0782527
     9   6 C     70   1 H                                 1.0774429
    18   6 C     71   1 H                                 1.0811825
    24   6 C     72   1 H                                 1.0908827
    24   6 C     73   1 H                                 1.0917161
    25   6 C     74   1 H                                 1.0875096
    25   6 C     75   1 H                                 1.0860222
    25   6 C     76   1 H                                 1.0874374
    30   6 C     77   1 H                                 1.0927942
    30   6 C     78   1 H                                 1.0842102
    41   6 C     79   1 H                                 1.0936768
    41   6 C     80   1 H                                 1.0913935
    42   6 C     81   1 H                                 1.0867169
    42   6 C     82   1 H                                 1.0870489
    42   6 C     83   1 H                                 1.0854788
    56   6 C     84   1 H                                 1.0774224 (min)
    61   6 C     85   1 H                                 1.0782941
    65   6 C     86   1 H                                 1.0873780
    65   6 C     87   1 H                                 1.0886282
    65   6 C     88   1 H                                 1.0863607
    66   6 C     89   1 H                                 1.0865001
    66   6 C     90   1 H                                 1.0910050
    67   6 C     91   1 H                                 1.0884677
    67   6 C     92   1 H                                 1.0864711
    67   6 C     93   1 H                                 1.0866898
    68   6 C     94   1 H                                 1.0802435

 * 7 distinct bonds (by element types)

   Z      Z             #   av. dist./Å        max./Å        min./Å
   1 H    6 C          26     1.0861241     1.0936768     1.0774224
   6 C    6 C          39     1.4136836     1.5328013     1.3715194
   6 C    7 N          12     1.3049514     1.4489280     1.1476828
   6 C    8 O           2     1.2169006     1.2186727     1.2151285
   6 C    9 F           4     1.3382596     1.3387059     1.3374929
   6 C   16 S           4     1.7273337     1.7540685     1.7045631
   7 N   16 S           2     1.6179102     1.6186802     1.6171401


optimized geometry written to: xtbopt.xyz


           -------------------------------------------------
          | TOTAL ENERGY             -183.679223603332 Eh   |
          | GRADIENT NORM               0.000668394156 Eh/α |
          | HOMO-LUMO GAP               1.038047388018 eV   |
           -------------------------------------------------

------------------------------------------------------------------------
 * finished run on 2021/11/29 at 11:50:19.827     
------------------------------------------------------------------------
 total:
 * wall-time:     0 d,  0 h,  0 min, 14.508 sec
 *  cpu-time:     0 d,  0 h,  2 min, 53.460 sec
 * ratio c/w:    11.956 speedup
 SCF:
 * wall-time:     0 d,  0 h,  0 min,  0.212 sec
 *  cpu-time:     0 d,  0 h,  0 min,  2.491 sec
 * ratio c/w:    11.755 speedup
 ANC optimizer:
 * wall-time:     0 d,  0 h,  0 min, 14.256 sec
 *  cpu-time:     0 d,  0 h,  2 min, 50.574 sec
 * ratio c/w:    11.965 speedup

