      -----------------------------------------------------------      
     |                   =====================                   |     
     |                           x T B                           |     
     |                   =====================                   |     
     |                         S. Grimme                         |     
     |          Mulliken Center for Theoretical Chemistry        |     
     |                    University of Bonn                     |     
      -----------------------------------------------------------      

   * xtb version 6.4.1 (unknown) compiled by 'oda6@login1.crc.pitt.edu' on 2021-06-25

   xtb is free software: you can redistribute it and/or modify it under
   the terms of the GNU Lesser General Public License as published by
   the Free Software Foundation, either version 3 of the License, or
   (at your option) any later version.
   
   xtb is distributed in the hope that it will be useful,
   but WITHOUT ANY WARRANTY; without even the implied warranty of
   MERCHANTABILITY or FITNESS FOR A PARTICULAR PURPOSE.  See the
   GNU Lesser General Public License for more details.
   
   Cite this work as:
   * C. Bannwarth, E. Caldeweyher, S. Ehlert, A. Hansen, P. Pracht,
     J. Seibert, S. Spicher, S. Grimme, WIREs Comput. Mol. Sci., 2020, 11,
     e01493. DOI: 10.1002/wcms.1493
   
   for GFN2-xTB:
   * C. Bannwarth, S. Ehlert and S. Grimme., J. Chem. Theory Comput., 2019,
     15, 1652-1671. DOI: 10.1021/acs.jctc.8b01176
   for GFN1-xTB:
   * S. Grimme, C. Bannwarth, P. Shushkov, J. Chem. Theory Comput., 2017,
     13, 1989-2009. DOI: 10.1021/acs.jctc.7b00118
   for GFN0-xTB:
   * P. Pracht, E. Caldeweyher, S. Ehlert, S. Grimme, ChemRxiv, 2019, preprint.
     DOI: 10.26434/chemrxiv.8326202.v1
   for GFN-FF:
   * S. Spicher and S. Grimme, Angew. Chem. Int. Ed., 2020, 59, 15665-15673.
     DOI: 10.1002/anie.202004239
   
   for DFT-D4:
   * E. Caldeweyher, C. Bannwarth and S. Grimme, J. Chem. Phys., 2017,
     147, 034112. DOI: 10.1063/1.4993215
   * E. Caldeweyher, S. Ehlert, A. Hansen, H. Neugebauer, S. Spicher,
     C. Bannwarth and S. Grimme, J. Chem. Phys., 2019, 150, 154122.
     DOI: 10.1063/1.5090222
   * E. Caldeweyher, J.-M. Mewes, S. Ehlert and S. Grimme, Phys. Chem. Chem. Phys.
     2020, 22, 8499-8512. DOI: 10.1039/D0CP00502A
   
   for sTDA-xTB:
   * S. Grimme and C. Bannwarth, J. Chem. Phys., 2016, 145, 054103.
     DOI: 10.1063/1.4959605
   
   in the mass-spec context:
   * V. Asgeirsson, C. Bauer and S. Grimme, Chem. Sci., 2017, 8, 4879.
     DOI: 10.1039/c7sc00601b
   * J. Koopman and S. Grimme, ACS Omega 2019, 4, 12, 15120-15133.
     DOI: 10.1021/acsomega.9b02011
   
   for metadynamics refer to:
   * S. Grimme, J. Chem. Theory Comput., 2019, 155, 2847-2862
     DOI: 10.1021/acs.jctc.9b00143
   
   for SPH calculations refer to:
   * S. Spicher and S. Grimme, J. Chem. Theory Comput., 2021, 17, 1701-1714
     DOI: 10.1021/acs.jctc.0c01306
   
   with help from (in alphabetical order)
   P. Atkinson, C. Bannwarth, F. Bohle, G. Brandenburg, E. Caldeweyher
   M. Checinski, S. Dohm, S. Ehlert, S. Ehrlich, I. Gerasimov, J. Koopman
   C. Lavigne, S. Lehtola, F. März, M. Müller, F. Musil, H. Neugebauer
   J. Pisarek, C. Plett, P. Pracht, J. Seibert, P. Shushkov, S. Spicher
   M. Stahn, M. Steiner, T. Strunk, J. Stückrath, T. Rose, and J. Unsleber
   
 * started run on 2021/12/20 at 13:59:34.581     

           -------------------------------------------------
          |                Calculation Setup                |
           -------------------------------------------------

          program call               : /ihome/ghutchison/oda6/xtb/xtb-641/bin//xtb CTIC-4F.mol -opt
          hostname                   : smp-n67
          coordinate file            : CTIC-4F.mol
          omp threads                :                     1
          number of atoms            :                    83
          number of electrons        :                   294
          charge                     :                     0
          spin                       :                   0.0
          first test random number   :      0.59778395286372

   ID    Z sym.   atoms
    1    6 C      1, 3-11, 13, 15-20, 22-34, 36-40, 42, 44-50, 53-56
    2    8 O      2, 51
    3    7 N      12, 14, 41, 43
    4   16 S      21, 35, 52, 57
    5    9 F      58-61
    6    1 H      62-83
########################################################################
[WARNING] Please study the warnings concerning your input carefully
-1- prog_main_parseArguments: the use of '-opt' is discouraged, please use '--opt' next time
########################################################################

           -------------------------------------------------
          |                 G F N 2 - x T B                 |
           -------------------------------------------------

        Reference                      10.1021/acs.jctc.8b01176
      * Hamiltonian:
        H0-scaling (s, p, d)           1.850000    2.230000    2.230000
        zeta-weighting                 0.500000
      * Dispersion:
        s8                             2.700000
        a1                             0.520000
        a2                             5.000000
        s9                             5.000000
      * Repulsion:
        kExp                           1.500000    1.000000
        rExp                           1.000000
      * Coulomb:
        alpha                          2.000000
        third order                    shell-resolved
        anisotropic                    true
        a3                             3.000000
        a5                             4.000000
        cn-shift                       1.200000
        cn-exp                         4.000000
        max-rad                        5.000000


          ...................................................
          :                      SETUP                      :
          :.................................................:
          :  # basis functions                 290          :
          :  # atomic orbitals                 286          :
          :  # shells                          148          :
          :  # electrons                       294          :
          :  max. iterations                   250          :
          :  Hamiltonian                  GFN2-xTB          :
          :  restarted?                      false          :
          :  GBSA solvation                  false          :
          :  PC potential                    false          :
          :  electronic temp.          300.0000000     K    :
          :  accuracy                    1.0000000          :
          :  -> integral cutoff          0.2500000E+02      :
          :  -> integral neglect         0.1000000E-07      :
          :  -> SCF convergence          0.1000000E-05 Eh   :
          :  -> wf. convergence          0.1000000E-03 e    :
          :  Broyden damping             0.4000000          :
          ...................................................

 iter      E             dE          RMSdq      gap      omega  full diag
   1   -165.2619306 -0.165262E+03  0.501E+00    0.66       0.0  T
   2   -165.3006267 -0.386961E-01  0.322E+00    0.50       1.0  T
   3   -164.5172429  0.783384E+00  0.275E+00    0.36       1.0  T
   4   -163.6641619  0.853081E+00  0.262E+00    0.30       1.0  T
   5   -165.4326673 -0.176851E+01  0.102E+00    0.83       1.0  T
   6   -165.5017118 -0.690444E-01  0.487E-01    0.67       1.0  T
   7   -165.5005995  0.111228E-02  0.576E-01    0.72       1.0  T
   8   -165.5158334 -0.152339E-01  0.342E-01    0.61       1.0  T
   9   -165.5199302 -0.409677E-02  0.236E-01    0.46       1.0  T
  10   -165.5234746 -0.354447E-02  0.102E-01    0.28       1.0  T
  11   -165.5241476 -0.672994E-03  0.384E-02    0.24       1.0  T
  12   -165.5241798 -0.321820E-04  0.156E-02    0.25       1.0  T
  13   -165.5241949 -0.151305E-04  0.994E-03    0.24       1.1  T
  14   -165.5242000 -0.509983E-05  0.405E-03    0.24       2.7  T
  15   -165.5242006 -0.550583E-06  0.219E-03    0.24       5.0  T
  16   -165.5242012 -0.622876E-06  0.719E-04    0.24      15.3  T
  17   -165.5242012 -0.221687E-07  0.335E-04    0.24      32.8  T

   *** convergence criteria satisfied after 17 iterations ***

         #    Occupation            Energy/Eh            Energy/eV
      -------------------------------------------------------------
         1        2.0000           -0.8539101             -23.2361
       ...           ...                  ...                  ...
       141        2.0000           -0.4219664             -11.4823
       142        2.0000           -0.4193183             -11.4102
       143        2.0000           -0.4175879             -11.3631
       144        2.0000           -0.4146684             -11.2837
       145        2.0000           -0.4050129             -11.0210
       146        2.0000           -0.3939854             -10.7209
       147        1.9799           -0.3780709             -10.2878 (HOMO)
       148        0.0201           -0.3693528             -10.0506 (LUMO)
       149                         -0.3464778              -9.4281
       150                         -0.3414180              -9.2905
       151                         -0.3385134              -9.2114
       152                         -0.3042623              -8.2794
       ...                                ...                  ...
       286                          1.0561848              28.7403
      -------------------------------------------------------------
                  HL-Gap            0.0087181 Eh            0.2372 eV
             Fermi-level           -0.3737119 Eh          -10.1692 eV

 SCC (total)                   0 d,  0 h,  0 min,  0.422 sec
 SCC setup                      ...        0 min,  0.001 sec (  0.260%)
 Dispersion                     ...        0 min,  0.003 sec (  0.726%)
 classical contributions        ...        0 min,  0.000 sec (  0.067%)
 integral evaluation            ...        0 min,  0.039 sec (  9.153%)
 iterations                     ...        0 min,  0.257 sec ( 60.919%)
 molecular gradient             ...        0 min,  0.120 sec ( 28.527%)
 printout                       ...        0 min,  0.001 sec (  0.336%)

         :::::::::::::::::::::::::::::::::::::::::::::::::::::
         ::                     SUMMARY                     ::
         :::::::::::::::::::::::::::::::::::::::::::::::::::::
         :: total energy            -163.211789528881 Eh    ::
         :: gradient norm              0.288863768393 Eh/a0 ::
         :: HOMO-LUMO gap              0.237232289203 eV    ::
         ::.................................................::
         :: SCC energy              -165.524201237132 Eh    ::
         :: -> isotropic ES            0.128851613067 Eh    ::
         :: -> anisotropic ES          0.015046372236 Eh    ::
         :: -> anisotropic XC          0.094726214591 Eh    ::
         :: -> dispersion             -0.124627583122 Eh    ::
         :: repulsion energy           2.312792358910 Eh    ::
         :: add. restraining           0.000000000000 Eh    ::
         :: total charge               0.000000001081 e     ::
         :::::::::::::::::::::::::::::::::::::::::::::::::::::

      ----------------------------------------------------------- 
     |                   =====================                   |
     |                        A N C O P T                        |
     |                   =====================                   |
     |               Approximate Normal Coordinate               |
     |                Rational Function Optimizer                |
      ----------------------------------------------------------- 

          ...................................................
          :                      SETUP                      :
          :.................................................:
          :   optimization level            normal          :
          :   max. optcycles                   249          :
          :   ANC micro-cycles                  20          :
          :   degrees of freedom               243          :
          :.................................................:
          :   RF solver                   davidson          :
          :   write xtbopt.log                true          :
          :   linear?                        false          :
          :   energy convergence         0.5000000E-05 Eh   :
          :   grad. convergence          0.1000000E-02 Eh/α :
          :   maximium RF displ.         1.0000000          :
          :   Hlow (freq-cutoff)         0.1000000E-01      :
          :   Hmax (freq-cutoff)         5.0000000          :
          :   S6 in model hess.         20.0000000          :
          ...................................................

generating ANC from model Hessian ...
Using Lindh-Hessian (1995)
 Shifting diagonal of input Hessian by   9.981205240747392E-003
 Lowest  eigenvalues of input Hessian
    0.000000    0.000000    0.000000    0.000000    0.000000    0.000000
    0.010000    0.010015    0.010033    0.010076    0.010108    0.010157
    0.010410    0.010620    0.010727    0.011052    0.011299    0.011396
 Highest eigenvalues
    2.126248    2.155659    2.466028    2.472528    2.525474    2.525837
 

........................................................................
.............................. CYCLE    1 ..............................
........................................................................
   1   -165.5242012 -0.165524E+03  0.196E-04    0.24       0.0  T
   2   -165.5242012  0.105034E-07  0.247E-04    0.24      44.4  T
   3   -165.5242012 -0.525750E-08  0.208E-04    0.24      52.7  T
     SCC iter.                  ...        0 min,  0.048 sec
     gradient                   ...        0 min,  0.121 sec
 * total energy  :  -163.2117895 Eh     change        0.2188017E-08 Eh
   gradient norm :     0.2888566 Eh/α   predicted     0.0000000E+00 (-100.00%)
   displ. norm   :     0.4740921 α      lambda       -0.8666151E-01
   maximum displ.:     0.1427435 α      in ANC's #145, #73, #42, ...

........................................................................
.............................. CYCLE    2 ..............................
........................................................................
   1   -165.6724952 -0.165672E+03  0.353E-01    0.34       0.0  T
   2   -165.6697429  0.275236E-02  0.296E-01    0.34       1.0  T
   3   -165.6696878  0.550469E-04  0.280E-01    0.30       1.0  T
   4   -165.6740892 -0.440134E-02  0.938E-02    0.31       1.0  T
   5   -165.6746632 -0.574056E-03  0.387E-02    0.30       1.0  T
   6   -165.6747864 -0.123215E-03  0.171E-02    0.32       1.0  T
   7   -165.6747990 -0.125641E-04  0.109E-02    0.30       1.0  T
   8   -165.6748165 -0.175075E-04  0.553E-03    0.31       2.0  T
   9   -165.6748210 -0.447407E-05  0.186E-03    0.31       5.9  T
  10   -165.6748212 -0.218751E-06  0.942E-04    0.31      11.7  T
  11   -165.6748212 -0.365051E-07  0.464E-04    0.31      23.7  T
     SCC iter.                  ...        0 min,  0.164 sec
     gradient                   ...        0 min,  0.121 sec
 * total energy  :  -163.2754793 Eh     change       -0.6368976E-01 Eh
   gradient norm :     0.1394793 Eh/α   predicted    -0.5317265E-01 ( -16.51%)
   displ. norm   :     0.5260704 α      lambda       -0.4170874E-01
   maximum displ.:     0.1502782 α      in ANC's #42, #18, #145, ...

........................................................................
.............................. CYCLE    3 ..............................
........................................................................
   1   -165.7442096 -0.165744E+03  0.326E-01    0.42       0.0  T
   2   -165.7426761  0.153342E-02  0.251E-01    0.49       1.0  T
   3   -165.7431571 -0.480928E-03  0.222E-01    0.41       1.0  T
   4   -165.7458279 -0.267081E-02  0.915E-02    0.40       1.0  T
   5   -165.7463654 -0.537486E-03  0.375E-02    0.43       1.0  T
   6   -165.7465070 -0.141674E-03  0.142E-02    0.42       1.0  T
   7   -165.7465195 -0.124742E-04  0.595E-03    0.42       1.8  T
   8   -165.7465214 -0.187128E-05  0.351E-03    0.42       3.1  T
   9   -165.7465229 -0.153271E-05  0.123E-03    0.42       8.9  T
  10   -165.7465230 -0.773931E-07  0.686E-04    0.42      16.0  T
  11   -165.7465230 -0.265167E-07  0.313E-04    0.42      35.0  T
     SCC iter.                  ...        0 min,  0.164 sec
     gradient                   ...        0 min,  0.121 sec
 * total energy  :  -163.3034733 Eh     change       -0.2799401E-01 Eh
   gradient norm :     0.0470461 Eh/α   predicted    -0.2662587E-01 (  -4.89%)
   displ. norm   :     0.6442945 α      lambda       -0.1661362E-01
   maximum displ.:     0.2389478 α      in ANC's #18, #17, #14, ...

........................................................................
.............................. CYCLE    4 ..............................
........................................................................
   1   -165.7682592 -0.165768E+03  0.275E-01    0.51       0.0  T
   2   -165.7682193  0.398974E-04  0.163E-01    0.56       1.0  T
   3   -165.7660674  0.215190E-02  0.146E-01    0.45       1.0  T
   4   -165.7685319 -0.246444E-02  0.392E-02    0.54       1.0  T
   5   -165.7686821 -0.150182E-03  0.144E-02    0.52       1.0  T
   6   -165.7686896 -0.751528E-05  0.857E-03    0.52       1.3  T
   7   -165.7686947 -0.515157E-05  0.368E-03    0.52       3.0  T
   8   -165.7686957 -0.101677E-05  0.119E-03    0.52       9.2  T
   9   -165.7686958 -0.940857E-07  0.649E-04    0.52      16.9  T
  10   -165.7686959 -0.189287E-07  0.317E-04    0.52      34.7  T
     SCC iter.                  ...        0 min,  0.149 sec
     gradient                   ...        0 min,  0.121 sec
 * total energy  :  -163.3169383 Eh     change       -0.1346501E-01 Eh
   gradient norm :     0.0395935 Eh/α   predicted    -0.1175510E-01 ( -12.70%)
   displ. norm   :     0.7404013 α      lambda       -0.1333544E-01
   maximum displ.:     0.3000885 α      in ANC's #18, #17, #14, ...

........................................................................
.............................. CYCLE    5 ..............................
........................................................................
   1   -165.7806698 -0.165781E+03  0.292E-01    0.62       0.0  T
   2   -165.7805675  0.102354E-03  0.176E-01    0.66       1.0  T
   3   -165.7776816  0.288585E-02  0.177E-01    0.58       1.0  T
   4   -165.7809566 -0.327495E-02  0.302E-02    0.64       1.0  T
   5   -165.7810233 -0.667169E-04  0.115E-02    0.64       1.0  T
   6   -165.7810276 -0.428447E-05  0.678E-03    0.64       1.6  T
   7   -165.7810318 -0.420204E-05  0.243E-03    0.64       4.5  T
   8   -165.7810322 -0.434753E-06  0.936E-04    0.64      11.7  T
   9   -165.7810322 -0.377607E-07  0.459E-04    0.64      23.9  T
     SCC iter.                  ...        0 min,  0.132 sec
     gradient                   ...        0 min,  0.121 sec
 * total energy  :  -163.3281649 Eh     change       -0.1122655E-01 Eh
   gradient norm :     0.0409101 Eh/α   predicted    -0.1032293E-01 (  -8.05%)
   displ. norm   :     0.7534062 α      lambda       -0.1121973E-01
   maximum displ.:     0.3155373 α      in ANC's #18, #17, #14, ...

........................................................................
.............................. CYCLE    6 ..............................
........................................................................
   1   -165.7959079 -0.165796E+03  0.286E-01    0.73       0.0  T
   2   -165.7958164  0.915264E-04  0.174E-01    0.76       1.0  T
   3   -165.7934182  0.239816E-02  0.168E-01    0.71       1.0  T
   4   -165.7962447 -0.282643E-02  0.208E-02    0.75       1.0  T
   5   -165.7962708 -0.261616E-04  0.921E-03    0.75       1.2  T
   6   -165.7962735 -0.270179E-05  0.451E-03    0.75       2.4  T
   7   -165.7962747 -0.117783E-05  0.226E-03    0.75       4.9  T
   8   -165.7962752 -0.477967E-06  0.807E-04    0.75      13.6  T
   9   -165.7962752 -0.311764E-07  0.406E-04    0.75      27.0  T
     SCC iter.                  ...        0 min,  0.145 sec
     gradient                   ...        0 min,  0.122 sec
 * total energy  :  -163.3377394 Eh     change       -0.9574503E-02 Eh
   gradient norm :     0.0362550 Eh/α   predicted    -0.8794147E-02 (  -8.15%)
   displ. norm   :     0.7663920 α      lambda       -0.9625901E-02
   maximum displ.:     0.3400656 α      in ANC's #18, #17, #14, ...

........................................................................
.............................. CYCLE    7 ..............................
........................................................................
   1   -165.8067242 -0.165807E+03  0.306E-01    0.82       0.0  T
   2   -165.8067398 -0.156306E-04  0.179E-01    0.84       1.0  T
   3   -165.8049849  0.175493E-02  0.140E-01    0.80       1.0  T
   4   -165.8069600 -0.197512E-02  0.151E-02    0.84       1.0  T
   5   -165.8069719 -0.118707E-04  0.822E-03    0.84       1.3  T
   6   -165.8069744 -0.252178E-05  0.301E-03    0.84       3.6  T
   7   -165.8069747 -0.287373E-06  0.154E-03    0.84       7.1  T
   8   -165.8069749 -0.197722E-06  0.674E-04    0.84      16.3  T
   9   -165.8069749 -0.277585E-07  0.293E-04    0.84      37.5  T
     SCC iter.                  ...        0 min,  0.139 sec
     gradient                   ...        0 min,  0.121 sec
 * total energy  :  -163.3459288 Eh     change       -0.8189406E-02 Eh
   gradient norm :     0.0388934 Eh/α   predicted    -0.7639882E-02 (  -6.71%)
   displ. norm   :     0.7693662 α      lambda       -0.9125517E-02
   maximum displ.:     0.3077955 α      in ANC's #18, #17, #14, ...

........................................................................
.............................. CYCLE    8 ..............................
........................................................................
   1   -165.8291780 -0.165829E+03  0.309E-01    0.90       0.0  T
   2   -165.8292068 -0.288755E-04  0.183E-01    0.91       1.0  T
   3   -165.8272717  0.193517E-02  0.149E-01    0.89       1.0  T
   4   -165.8295561 -0.228443E-02  0.155E-02    0.91       1.0  T
   5   -165.8295666 -0.104881E-04  0.859E-03    0.90       1.3  T
   6   -165.8295702 -0.357906E-05  0.359E-03    0.90       3.1  T
   7   -165.8295705 -0.294251E-06  0.176E-03    0.90       6.2  T
   8   -165.8295707 -0.226054E-06  0.710E-04    0.90      15.5  T
   9   -165.8295707 -0.263916E-07  0.330E-04    0.90      33.3  T
     SCC iter.                  ...        0 min,  0.139 sec
     gradient                   ...        0 min,  0.121 sec
 * total energy  :  -163.3528415 Eh     change       -0.6912709E-02 Eh
   gradient norm :     0.0368831 Eh/α   predicted    -0.7263578E-02 (   5.08%)
   displ. norm   :     0.8098621 α      lambda       -0.8876693E-02
   maximum displ.:     0.3562741 α      in ANC's #17, #18, #14, ...

........................................................................
.............................. CYCLE    9 ..............................
........................................................................
   1   -165.8249433 -0.165825E+03  0.387E-01    0.92       0.0  T
   2   -165.8249132  0.301569E-04  0.230E-01    0.93       1.0  T
   3   -165.8220336  0.287953E-02  0.189E-01    0.90       1.0  T
   4   -165.8253723 -0.333865E-02  0.180E-02    0.93       1.0  T
   5   -165.8253854 -0.130587E-04  0.108E-02    0.93       1.0  T
   6   -165.8253905 -0.516673E-05  0.388E-03    0.93       2.8  T
   7   -165.8253912 -0.696706E-06  0.171E-03    0.93       6.4  T
   8   -165.8253914 -0.176043E-06  0.723E-04    0.93      15.2  T
   9   -165.8253914 -0.256580E-07  0.327E-04    0.93      33.6  T
     SCC iter.                  ...        0 min,  0.140 sec
     gradient                   ...        0 min,  0.121 sec
 * total energy  :  -163.3585869 Eh     change       -0.5745391E-02 Eh
   gradient norm :     0.0701255 Eh/α   predicted    -0.7349358E-02 (  27.92%)
   displ. norm   :     0.5914342 α      lambda       -0.6646758E-02
   maximum displ.:     0.2433532 α      in ANC's #14, #17, #18, ...

........................................................................
.............................. CYCLE   10 ..............................
........................................................................
   1   -165.8387476 -0.165839E+03  0.243E-01    0.92       0.0  T
   2   -165.8388233 -0.757819E-04  0.137E-01    0.93       1.0  T
   3   -165.8385929  0.230398E-03  0.655E-02    0.93       1.0  T
   4   -165.8388729 -0.279967E-03  0.930E-03    0.93       1.2  T
   5   -165.8388749 -0.199632E-05  0.570E-03    0.93       1.9  T
   6   -165.8388766 -0.167724E-05  0.273E-03    0.93       4.0  T
   7   -165.8388770 -0.414493E-06  0.981E-04    0.93      11.2  T
   8   -165.8388771 -0.464236E-07  0.457E-04    0.93      24.0  T
     SCC iter.                  ...        0 min,  0.124 sec
     gradient                   ...        0 min,  0.121 sec
 * total energy  :  -163.3631804 Eh     change       -0.4593498E-02 Eh
   gradient norm :     0.0590424 Eh/α   predicted    -0.4485883E-02 (  -2.34%)
   displ. norm   :     0.6547123 α      lambda       -0.7647010E-02
   maximum displ.:     0.2405392 α      in ANC's #18, #14, #17, ...

........................................................................
.............................. CYCLE   11 ..............................
........................................................................
   1   -165.8352855 -0.165835E+03  0.313E-01    0.93       0.0  T
   2   -165.8353674 -0.819105E-04  0.180E-01    0.95       1.0  T
   3   -165.8336534  0.171400E-02  0.131E-01    0.91       1.0  T
   4   -165.8355900 -0.193662E-02  0.145E-02    0.94       1.0  T
   5   -165.8355986 -0.859671E-05  0.871E-03    0.94       1.3  T
   6   -165.8356031 -0.446255E-05  0.371E-03    0.94       3.0  T
   7   -165.8356035 -0.455795E-06  0.177E-03    0.94       6.2  T
   8   -165.8356038 -0.243348E-06  0.724E-04    0.94      15.2  T
   9   -165.8356038 -0.229080E-07  0.350E-04    0.94      31.4  T
     SCC iter.                  ...        0 min,  0.139 sec
     gradient                   ...        0 min,  0.121 sec
 * total energy  :  -163.3675994 Eh     change       -0.4418991E-02 Eh
   gradient norm :     0.0560290 Eh/α   predicted    -0.5462447E-02 (  23.61%)
   displ. norm   :     0.6455217 α      lambda       -0.6869928E-02
   maximum displ.:     0.2599675 α      in ANC's #14, #18, #17, ...

........................................................................
.............................. CYCLE   12 ..............................
........................................................................
   1   -165.8513279 -0.165851E+03  0.319E-01    0.94       0.0  T
   2   -165.8514322 -0.104365E-03  0.182E-01    0.94       1.0  T
   3   -165.8499592  0.147302E-02  0.130E-01    0.94       1.0  T
   4   -165.8516506 -0.169138E-02  0.144E-02    0.95       1.0  T
   5   -165.8516627 -0.121407E-04  0.783E-03    0.94       1.4  T
   6   -165.8516658 -0.309634E-05  0.370E-03    0.94       3.0  T
   7   -165.8516664 -0.538309E-06  0.148E-03    0.94       7.4  T
   8   -165.8516665 -0.141602E-06  0.660E-04    0.94      16.6  T
   9   -165.8516665 -0.211626E-07  0.284E-04    0.94      38.6  T
     SCC iter.                  ...        0 min,  0.139 sec
     gradient                   ...        0 min,  0.122 sec
 * total energy  :  -163.3716377 Eh     change       -0.4038389E-02 Eh
   gradient norm :     0.0508078 Eh/α   predicted    -0.4866308E-02 (  20.50%)
   displ. norm   :     0.6358953 α      lambda       -0.6081757E-02
   maximum displ.:     0.2906830 α      in ANC's #14, #17, #18, ...

........................................................................
.............................. CYCLE   13 ..............................
........................................................................
   1   -165.8379028 -0.165838E+03  0.352E-01    0.94       0.0  T
   2   -165.8381422 -0.239429E-03  0.200E-01    0.95       1.0  T
   3   -165.8372307  0.911498E-03  0.102E-01    0.94       1.0  T
   4   -165.8382668 -0.103610E-02  0.197E-02    0.95       1.0  T
   5   -165.8382885 -0.217010E-04  0.849E-03    0.94       1.3  T
   6   -165.8382905 -0.194848E-05  0.487E-03    0.95       2.3  T
   7   -165.8382913 -0.828172E-06  0.192E-03    0.94       5.7  T
   8   -165.8382916 -0.283454E-06  0.808E-04    0.94      13.6  T
   9   -165.8382917 -0.436227E-07  0.357E-04    0.94      30.8  T
     SCC iter.                  ...        0 min,  0.139 sec
     gradient                   ...        0 min,  0.121 sec
 * total energy  :  -163.3738020 Eh     change       -0.2164288E-02 Eh
   gradient norm :     0.1013115 Eh/α   predicted    -0.4270509E-02 (  97.32%)
   displ. norm   :     0.3791532 α      lambda       -0.6225055E-02
   maximum displ.:     0.1673437 α      in ANC's #14, #12, #18, ...

........................................................................
.............................. CYCLE   14 ..............................
........................................................................
   1   -165.8524218 -0.165852E+03  0.157E-01    0.94       0.0  T
   2   -165.8525705 -0.148667E-03  0.963E-02    0.95       1.0  T
   3   -165.8522802  0.290276E-03  0.679E-02    0.93       1.0  T
   4   -165.8526779 -0.397676E-03  0.172E-02    0.94       1.0  T
   5   -165.8527039 -0.260478E-04  0.598E-03    0.94       1.8  T
   6   -165.8527066 -0.270017E-05  0.284E-03    0.94       3.9  T
   7   -165.8527069 -0.312595E-06  0.147E-03    0.94       7.4  T
   8   -165.8527070 -0.101090E-06  0.621E-04    0.94      17.7  T
   9   -165.8527070 -0.209708E-07  0.282E-04    0.94      39.0  T
     SCC iter.                  ...        0 min,  0.139 sec
     gradient                   ...        0 min,  0.121 sec
 * total energy  :  -163.3775702 Eh     change       -0.3768160E-02 Eh
   gradient norm :     0.0273368 Eh/α   predicted    -0.3559978E-02 (  -5.52%)
   displ. norm   :     0.6072238 α      lambda       -0.4563066E-02
   maximum displ.:     0.2780862 α      in ANC's #14, #18, #12, ...

........................................................................
.............................. CYCLE   15 ..............................
........................................................................
   1   -165.8619827 -0.165862E+03  0.294E-01    0.95       0.0  T
   2   -165.8621612 -0.178494E-03  0.167E-01    0.95       1.0  T
   3   -165.8617072  0.454012E-03  0.723E-02    0.95       1.0  T
   4   -165.8622249 -0.517669E-03  0.178E-02    0.95       1.0  T
   5   -165.8622473 -0.224179E-04  0.610E-03    0.95       1.8  T
   6   -165.8622482 -0.872137E-06  0.354E-03    0.95       3.1  T
   7   -165.8622487 -0.506346E-06  0.143E-03    0.95       7.7  T
   8   -165.8622487 -0.790961E-07  0.637E-04    0.95      17.2  T
   9   -165.8622488 -0.333918E-07  0.290E-04    0.95      37.8  T
     SCC iter.                  ...        0 min,  0.139 sec
     gradient                   ...        0 min,  0.121 sec
 * total energy  :  -163.3795262 Eh     change       -0.1955977E-02 Eh
   gradient norm :     0.0628011 Eh/α   predicted    -0.3122790E-02 (  59.65%)
   displ. norm   :     0.5565193 α      lambda       -0.5229853E-02
   maximum displ.:     0.2304595 α      in ANC's #12, #14, #17, ...

........................................................................
.............................. CYCLE   16 ..............................
........................................................................
   1   -165.8436816 -0.165844E+03  0.231E-01    0.94       0.0  T
   2   -165.8441646 -0.482984E-03  0.143E-01    0.94       1.0  T
   3   -165.8438595  0.305129E-03  0.924E-02    0.94       1.0  T
   4   -165.8443978 -0.538336E-03  0.315E-02    0.95       1.0  T
   5   -165.8445009 -0.103033E-03  0.932E-03    0.94       1.2  T
   6   -165.8445075 -0.663128E-05  0.472E-03    0.94       2.3  T
   7   -165.8445088 -0.133269E-05  0.226E-03    0.94       4.9  T
   8   -165.8445090 -0.211725E-06  0.112E-03    0.94       9.8  T
   9   -165.8445091 -0.696066E-07  0.422E-04    0.94      26.0  T
  10   -165.8445091 -0.531557E-08  0.252E-04    0.94      43.6  T
     SCC iter.                  ...        0 min,  0.154 sec
     gradient                   ...        0 min,  0.120 sec
 * total energy  :  -163.3816586 Eh     change       -0.2132392E-02 Eh
   gradient norm :     0.0656905 Eh/α   predicted    -0.3424807E-02 (  60.61%)
   displ. norm   :     0.4126888 α      lambda       -0.5514661E-02
   maximum displ.:     0.1575735 α      in ANC's #12, #30, #33, ...

........................................................................
.............................. CYCLE   17 ..............................
........................................................................
   1   -165.8843332 -0.165884E+03  0.284E-01    0.95       0.0  T
   2   -165.8845637 -0.230506E-03  0.165E-01    0.94       1.0  T
   3   -165.8838825  0.681184E-03  0.105E-01    0.95       1.0  T
   4   -165.8846866 -0.804072E-03  0.214E-02    0.94       1.0  T
   5   -165.8847354 -0.488033E-04  0.747E-03    0.94       1.5  T
   6   -165.8847393 -0.391016E-05  0.363E-03    0.94       3.0  T
   7   -165.8847399 -0.615629E-06  0.169E-03    0.94       6.5  T
   8   -165.8847400 -0.917311E-07  0.849E-04    0.94      12.9  T
   9   -165.8847401 -0.444433E-07  0.395E-04    0.94      27.8  T
     SCC iter.                  ...        0 min,  0.138 sec
     gradient                   ...        0 min,  0.121 sec
 * total energy  :  -163.3821283 Eh     change       -0.4697036E-03 Eh
   gradient norm :     0.0891838 Eh/α   predicted    -0.3226937E-02 ( 587.02%)
   displ. norm   :     0.4952171 α      lambda       -0.6962708E-02
   maximum displ.:     0.2353077 α      in ANC's #14, #18, #24, ...

........................................................................
.............................. CYCLE   18 ..............................
........................................................................
   1   -165.8349219 -0.165835E+03  0.276E-01    0.93       0.0  T
   2   -165.8348230  0.988153E-04  0.178E-01    0.95       1.0  T
   3   -165.8334949  0.132811E-02  0.147E-01    0.92       1.0  T
   4   -165.8354070 -0.191206E-02  0.154E-02    0.94       1.0  T
   5   -165.8354153 -0.827210E-05  0.955E-03    0.94       1.1  T
   6   -165.8354196 -0.431370E-05  0.430E-03    0.94       2.6  T
   7   -165.8354209 -0.128508E-05  0.176E-03    0.94       6.2  T
   8   -165.8354210 -0.153188E-06  0.738E-04    0.94      14.9  T
   9   -165.8354210 -0.284026E-07  0.306E-04    0.94      35.8  T
     SCC iter.                  ...        0 min,  0.139 sec
     gradient                   ...        0 min,  0.121 sec
 * total energy  :  -163.3834060 Eh     change       -0.1277778E-02 Eh
   gradient norm :     0.0566020 Eh/α   predicted    -0.4335121E-02 ( 239.27%)
   displ. norm   :     0.3171371 α      lambda       -0.5975908E-02
   maximum displ.:     0.1154510 α      in ANC's #12, #30, #17, ...

........................................................................
.............................. CYCLE   19 ..............................
........................................................................
   1   -165.8542491 -0.165854E+03  0.290E-01    0.95       0.0  T
   2   -165.8543965 -0.147396E-03  0.165E-01    0.94       1.0  T
   3   -165.8535207  0.875796E-03  0.997E-02    0.95       1.0  T
   4   -165.8545370 -0.101631E-02  0.165E-02    0.95       1.0  T
   5   -165.8545558 -0.187366E-04  0.580E-03    0.95       1.9  T
   6   -165.8545570 -0.118014E-05  0.317E-03    0.95       3.5  T
   7   -165.8545573 -0.362621E-06  0.123E-03    0.95       8.9  T
   8   -165.8545574 -0.100043E-06  0.577E-04    0.95      19.0  T
   9   -165.8545575 -0.242589E-07  0.266E-04    0.95      41.3  T
     SCC iter.                  ...        0 min,  0.139 sec
     gradient                   ...        0 min,  0.121 sec
 * total energy  :  -163.3860522 Eh     change       -0.2646153E-02 Eh
   gradient norm :     0.0323134 Eh/α   predicted    -0.3288471E-02 (  24.27%)
   displ. norm   :     0.4635826 α      lambda       -0.2579860E-02
   maximum displ.:     0.1878784 α      in ANC's #12, #14, #24, ...

........................................................................
.............................. CYCLE   20 ..............................
........................................................................
   1   -165.8605397 -0.165861E+03  0.191E-01    0.95       0.0  T
   2   -165.8605914 -0.516521E-04  0.110E-01    0.94       1.0  T
   3   -165.8602826  0.308800E-03  0.629E-02    0.95       1.0  T
   4   -165.8606350 -0.352462E-03  0.112E-02    0.94       1.0  T
   5   -165.8606424 -0.737523E-05  0.475E-03    0.95       2.3  T
   6   -165.8606431 -0.687586E-06  0.239E-03    0.94       4.6  T
   7   -165.8606435 -0.392122E-06  0.902E-04    0.95      12.2  T
   8   -165.8606435 -0.328209E-07  0.423E-04    0.95      26.0  T
     SCC iter.                  ...        0 min,  0.123 sec
     gradient                   ...        0 min,  0.121 sec
 * total energy  :  -163.3874354 Eh     change       -0.1383187E-02 Eh
   gradient norm :     0.0519205 Eh/α   predicted    -0.1567145E-02 (  13.30%)
   displ. norm   :     0.4393324 α      lambda       -0.2232064E-02
   maximum displ.:     0.2018566 α      in ANC's #12, #14, #17, ...
 * RMSD in coord.:     1.0539988 α      energy gain  -0.1756459E+00 Eh

generating ANC from model Hessian ...
Using Lindh-Hessian (1995)
 Shifting diagonal of input Hessian by   1.004191277298607E-002
 Lowest  eigenvalues of input Hessian
    0.010000    0.000000    0.000000    0.000000    0.000000    0.000000
    0.000000    0.010068    0.010095    0.010139    0.010163    0.010277
    0.010372    0.010684    0.010840    0.010977    0.011130    0.011461
 Highest eigenvalues
    2.273859    2.283783    2.573098    2.598475    2.637819    2.687663
 

........................................................................
.............................. CYCLE   21 ..............................
........................................................................
   1   -165.8649338 -0.165865E+03  0.141E-01    0.94       0.0  T
   2   -165.8649602 -0.263531E-04  0.815E-02    0.95       1.0  T
   3   -165.8647005  0.259676E-03  0.493E-02    0.93       1.0  T
   4   -165.8649896 -0.289069E-03  0.940E-03    0.95       1.2  T
   5   -165.8649948 -0.526472E-05  0.398E-03    0.95       2.8  T
   6   -165.8649951 -0.312575E-06  0.192E-03    0.95       5.7  T
   7   -165.8649953 -0.193669E-06  0.766E-04    0.95      14.3  T
   8   -165.8649954 -0.320779E-07  0.393E-04    0.95      27.9  T
     SCC iter.                  ...        0 min,  0.124 sec
     gradient                   ...        0 min,  0.121 sec
 * total energy  :  -163.3888816 Eh     change       -0.1446212E-02 Eh
   gradient norm :     0.0443962 Eh/α   predicted     0.0000000E+00 (-100.00%)
   displ. norm   :     0.2548188 α      lambda       -0.2415696E-02
   maximum displ.:     0.1258814 α      in ANC's #27, #14, #16, ...

........................................................................
.............................. CYCLE   22 ..............................
........................................................................
   1   -165.8656772 -0.165866E+03  0.193E-01    0.95       0.0  T
   2   -165.8657197 -0.424789E-04  0.107E-01    0.95       1.0  T
   3   -165.8654135  0.306218E-03  0.605E-02    0.94       1.0  T
   4   -165.8657627 -0.349192E-03  0.720E-03    0.95       1.5  T
   5   -165.8657644 -0.167435E-05  0.421E-03    0.95       2.6  T
   6   -165.8657652 -0.827692E-06  0.166E-03    0.95       6.6  T
   7   -165.8657653 -0.123207E-06  0.614E-04    0.95      17.9  T
   8   -165.8657653 -0.173584E-07  0.311E-04    0.95      35.3  T
     SCC iter.                  ...        0 min,  0.124 sec
     gradient                   ...        0 min,  0.121 sec
 * total energy  :  -163.3903042 Eh     change       -0.1422637E-02 Eh
   gradient norm :     0.0210791 Eh/α   predicted    -0.1288578E-02 (  -9.42%)
   displ. norm   :     0.3402574 α      lambda       -0.1653926E-02
   maximum displ.:     0.2219254 α      in ANC's #14, #16, #5, ...

........................................................................
.............................. CYCLE   23 ..............................
........................................................................
   1   -165.8692559 -0.165869E+03  0.191E-01    0.95       0.0  T
   2   -165.8693020 -0.460681E-04  0.106E-01    0.95       1.0  T
   3   -165.8692028  0.991484E-04  0.355E-02    0.95       1.0  T
   4   -165.8693260 -0.123198E-03  0.724E-03    0.95       1.5  T
   5   -165.8693279 -0.190278E-05  0.429E-03    0.95       2.6  T
   6   -165.8693286 -0.725168E-06  0.167E-03    0.95       6.6  T
   7   -165.8693288 -0.172802E-06  0.654E-04    0.95      16.8  T
   8   -165.8693288 -0.183438E-07  0.345E-04    0.95      31.8  T
     SCC iter.                  ...        0 min,  0.113 sec
     gradient                   ...        0 min,  0.119 sec
 * total energy  :  -163.3914907 Eh     change       -0.1186504E-02 Eh
   gradient norm :     0.0267019 Eh/α   predicted    -0.9227109E-03 ( -22.23%)
   displ. norm   :     0.5106864 α      lambda       -0.1980899E-02
   maximum displ.:     0.3472149 α      in ANC's #14, #5, #16, ...

........................................................................
.............................. CYCLE   24 ..............................
........................................................................
   1   -165.8670702 -0.165867E+03  0.236E-01    0.95       0.0  T
   2   -165.8671378 -0.676833E-04  0.131E-01    0.95       1.0  T
   3   -165.8670422  0.956845E-04  0.355E-02    0.95       1.0  T
   4   -165.8671667 -0.124496E-03  0.954E-03    0.95       1.2  T
   5   -165.8671705 -0.386848E-05  0.497E-03    0.95       2.2  T
   6   -165.8671712 -0.718157E-06  0.208E-03    0.95       5.3  T
   7   -165.8671715 -0.264503E-06  0.740E-04    0.95      14.8  T
   8   -165.8671715 -0.212221E-07  0.369E-04    0.95      29.7  T
     SCC iter.                  ...        0 min,  0.114 sec
     gradient                   ...        0 min,  0.121 sec
 * total energy  :  -163.3927108 Eh     change       -0.1220063E-02 Eh
   gradient norm :     0.0351881 Eh/α   predicted    -0.1248763E-02 (   2.35%)
   displ. norm   :     0.4971572 α      lambda       -0.2375089E-02
   maximum displ.:     0.3377786 α      in ANC's #14, #5, #1, ...

........................................................................
.............................. CYCLE   25 ..............................
........................................................................
   1   -165.8707229 -0.165871E+03  0.259E-01    0.96       0.0  T
   2   -165.8707869 -0.639782E-04  0.144E-01    0.96       1.0  T
   3   -165.8706659  0.120964E-03  0.385E-02    0.95       1.0  T
   4   -165.8708171 -0.151147E-03  0.901E-03    0.96       1.2  T
   5   -165.8708201 -0.307012E-05  0.491E-03    0.96       2.2  T
   6   -165.8708208 -0.659339E-06  0.223E-03    0.96       4.9  T
   7   -165.8708212 -0.363582E-06  0.850E-04    0.96      12.9  T
   8   -165.8708212 -0.349885E-07  0.418E-04    0.96      26.2  T
     SCC iter.                  ...        0 min,  0.113 sec
     gradient                   ...        0 min,  0.121 sec
 * total energy  :  -163.3934429 Eh     change       -0.7320781E-03 Eh
   gradient norm :     0.0240319 Eh/α   predicted    -0.1481093E-02 ( 102.31%)
   displ. norm   :     0.3138369 α      lambda       -0.2018201E-02
   maximum displ.:     0.1953435 α      in ANC's #14, #7, #5, ...

........................................................................
.............................. CYCLE   26 ..............................
........................................................................
   1   -165.8783334 -0.165878E+03  0.239E-01    0.96       0.0  T
   2   -165.8783841 -0.506661E-04  0.132E-01    0.96       1.0  T
   3   -165.8783402  0.439036E-04  0.262E-02    0.96       1.0  T
   4   -165.8784070 -0.667575E-04  0.595E-03    0.96       1.8  T
   5   -165.8784074 -0.393807E-06  0.373E-03    0.96       2.9  T
   6   -165.8784083 -0.945030E-06  0.125E-03    0.96       8.8  T
   7   -165.8784084 -0.110161E-06  0.577E-04    0.96      19.0  T
   8   -165.8784084 -0.229021E-07  0.246E-04    0.96      44.5  T
     SCC iter.                  ...        0 min,  0.116 sec
     gradient                   ...        0 min,  0.121 sec
 * total energy  :  -163.3941895 Eh     change       -0.7465744E-03 Eh
   gradient norm :     0.0249284 Eh/α   predicted    -0.1108502E-02 (  48.48%)
   displ. norm   :     0.4496457 α      lambda       -0.1905151E-02
   maximum displ.:     0.2800370 α      in ANC's #14, #5, #16, ...

........................................................................
.............................. CYCLE   27 ..............................
........................................................................
   1   -165.8559688 -0.165856E+03  0.246E-01    0.96       0.0  T
   2   -165.8560340 -0.651244E-04  0.138E-01    0.96       1.0  T
   3   -165.8553910  0.643010E-03  0.940E-02    0.95       1.0  T
   4   -165.8561237 -0.732743E-03  0.102E-02    0.96       1.1  T
   5   -165.8561249 -0.123206E-05  0.764E-03    0.96       1.4  T
   6   -165.8561292 -0.423840E-05  0.245E-03    0.96       4.5  T
   7   -165.8561293 -0.170028E-06  0.118E-03    0.96       9.3  T
   8   -165.8561294 -0.742816E-07  0.509E-04    0.96      21.6  T
   9   -165.8561294 -0.180081E-07  0.211E-04    0.96      52.0  T
     SCC iter.                  ...        0 min,  0.133 sec
     gradient                   ...        0 min,  0.121 sec
 * total energy  :  -163.3935968 Eh     change        0.5926163E-03 Eh
   gradient norm :     0.0763596 Eh/α   predicted    -0.1145169E-02 (-293.24%)
   displ. norm   :     0.1794691 α      lambda       -0.3557890E-02
   maximum displ.:     0.0844449 α      in ANC's #27, #25, #41, ...

........................................................................
.............................. CYCLE   28 ..............................
........................................................................
   1   -165.8730923 -0.165873E+03  0.185E-01    0.96       0.0  T
   2   -165.8731523 -0.599518E-04  0.103E-01    0.96       1.0  T
   3   -165.8729642  0.188070E-03  0.513E-02    0.96       1.0  T
   4   -165.8731836 -0.219364E-03  0.630E-03    0.96       1.7  T
   5   -165.8731840 -0.388918E-06  0.495E-03    0.96       2.2  T
   6   -165.8731863 -0.234259E-05  0.134E-03    0.96       8.2  T
   7   -165.8731863 -0.315646E-07  0.684E-04    0.96      16.0  T
   8   -165.8731864 -0.229742E-07  0.277E-04    0.96      39.6  T
     SCC iter.                  ...        0 min,  0.119 sec
     gradient                   ...        0 min,  0.121 sec
 * total energy  :  -163.3952250 Eh     change       -0.1628192E-02 Eh
   gradient norm :     0.0154197 Eh/α   predicted    -0.1836240E-02 (  12.78%)
   displ. norm   :     0.3024984 α      lambda       -0.9786985E-03
   maximum displ.:     0.1870552 α      in ANC's #14, #5, #44, ...

........................................................................
.............................. CYCLE   29 ..............................
........................................................................
   1   -165.8738335 -0.165874E+03  0.163E-01    0.96       0.0  T
   2   -165.8738557 -0.222122E-04  0.910E-02    0.96       1.0  T
   3   -165.8738093  0.464468E-04  0.244E-02    0.96       1.0  T
   4   -165.8738678 -0.584728E-04  0.481E-03    0.96       2.3  T
   5   -165.8738682 -0.439931E-06  0.293E-03    0.96       3.7  T
   6   -165.8738686 -0.400683E-06  0.124E-03    0.96       8.9  T
   7   -165.8738687 -0.135020E-06  0.420E-04    0.96      26.1  T
   8   -165.8738687 -0.609319E-08  0.236E-04    0.96      46.6  T
     SCC iter.                  ...        0 min,  0.119 sec
     gradient                   ...        0 min,  0.121 sec
 * total energy  :  -163.3956232 Eh     change       -0.3981488E-03 Eh
   gradient norm :     0.0143764 Eh/α   predicted    -0.5341303E-03 (  34.15%)
   displ. norm   :     0.3855869 α      lambda       -0.9176618E-03
   maximum displ.:     0.2445444 α      in ANC's #14, #5, #2, ...

........................................................................
.............................. CYCLE   30 ..............................
........................................................................
   1   -165.8742965 -0.165874E+03  0.147E-01    0.96       0.0  T
   2   -165.8743135 -0.170197E-04  0.822E-02    0.96       1.0  T
   3   -165.8743040  0.948269E-05  0.132E-02    0.96       1.0  T
   4   -165.8743205 -0.164444E-04  0.461E-03    0.96       2.4  T
   5   -165.8743209 -0.441366E-06  0.226E-03    0.96       4.8  T
   6   -165.8743212 -0.303680E-06  0.632E-04    0.96      17.4  T
   7   -165.8743212 -0.178690E-07  0.365E-04    0.96      30.1  T
     SCC iter.                  ...        0 min,  0.104 sec
     gradient                   ...        0 min,  0.121 sec
 * total energy  :  -163.3963591 Eh     change       -0.7359443E-03 Eh
   gradient norm :     0.0131864 Eh/α   predicted    -0.5270494E-03 ( -28.38%)
   displ. norm   :     0.6712286 α      lambda       -0.1375212E-02
   maximum displ.:     0.3803479 α      in ANC's #14, #5, #6, ...

........................................................................
.............................. CYCLE   31 ..............................
........................................................................
   1   -165.8702552 -0.165870E+03  0.221E-01    0.97       0.0  T
   2   -165.8702979 -0.426906E-04  0.125E-01    0.96       1.0  T
   3   -165.8702065  0.914642E-04  0.393E-02    0.97       1.0  T
   4   -165.8703223 -0.115855E-03  0.773E-03    0.96       1.4  T
   5   -165.8703216  0.751738E-06  0.491E-03    0.96       2.2  T
   6   -165.8703234 -0.186998E-05  0.153E-03    0.96       7.2  T
   7   -165.8703236 -0.157289E-06  0.618E-04    0.96      17.8  T
   8   -165.8703236 -0.647398E-08  0.342E-04    0.96      32.1  T
     SCC iter.                  ...        0 min,  0.118 sec
     gradient                   ...        0 min,  0.120 sec
 * total energy  :  -163.3971431 Eh     change       -0.7839720E-03 Eh
   gradient norm :     0.0257174 Eh/α   predicted    -0.9974044E-03 (  27.22%)
   displ. norm   :     0.4559411 α      lambda       -0.8933962E-03
   maximum displ.:     0.2429139 α      in ANC's #14, #5, #2, ...

........................................................................
.............................. CYCLE   32 ..............................
........................................................................
   1   -165.8715918 -0.165872E+03  0.138E-01    0.97       0.0  T
   2   -165.8716036 -0.118124E-04  0.785E-02    0.96       1.0  T
   3   -165.8715495  0.541447E-04  0.243E-02    0.97       1.0  T
   4   -165.8716114 -0.619460E-04  0.524E-03    0.96       2.1  T
   5   -165.8716120 -0.543889E-06  0.329E-03    0.97       3.3  T
   6   -165.8716126 -0.615317E-06  0.106E-03    0.96      10.3  T
   7   -165.8716127 -0.841196E-07  0.373E-04    0.97      29.4  T
   8   -165.8716127 -0.116626E-08  0.214E-04    0.96      51.3  T
     SCC iter.                  ...        0 min,  0.118 sec
     gradient                   ...        0 min,  0.120 sec
 * total energy  :  -163.3978617 Eh     change       -0.7186509E-03 Eh
   gradient norm :     0.0151929 Eh/α   predicted    -0.5395596E-03 ( -24.92%)
   displ. norm   :     0.5980050 α      lambda       -0.1045456E-02
   maximum displ.:     0.2997993 α      in ANC's #5, #14, #3, ...

........................................................................
.............................. CYCLE   33 ..............................
........................................................................
   1   -165.8802788 -0.165880E+03  0.142E-01    0.97       0.0  T
   2   -165.8802881 -0.927353E-05  0.820E-02    0.97       1.0  T
   3   -165.8800991  0.189009E-03  0.433E-02    0.98       1.0  T
   4   -165.8803056 -0.206480E-03  0.637E-03    0.97       1.7  T
   5   -165.8803071 -0.147859E-05  0.382E-03    0.97       2.9  T
   6   -165.8803077 -0.633952E-06  0.151E-03    0.97       7.3  T
   7   -165.8803079 -0.159948E-06  0.517E-04    0.97      21.2  T
   8   -165.8803079 -0.564026E-08  0.319E-04    0.97      34.4  T
     SCC iter.                  ...        0 min,  0.118 sec
     gradient                   ...        0 min,  0.120 sec
 * total energy  :  -163.3986694 Eh     change       -0.8076295E-03 Eh
   gradient norm :     0.0129605 Eh/α   predicted    -0.7096674E-03 ( -12.13%)
   displ. norm   :     0.8153644 α      lambda       -0.1056913E-02
   maximum displ.:     0.4038468 α      in ANC's #14, #5, #6, ...

........................................................................
.............................. CYCLE   34 ..............................
........................................................................
   1   -165.8655976 -0.165866E+03  0.236E-01    0.97       0.0  T
   2   -165.8656377 -0.400845E-04  0.133E-01    0.96       1.0  T
   3   -165.8655224  0.115303E-03  0.393E-02    0.97       1.0  T
   4   -165.8656588 -0.136455E-03  0.962E-03    0.97       1.1  T
   5   -165.8656613 -0.249405E-05  0.528E-03    0.97       2.1  T
   6   -165.8656626 -0.124102E-05  0.206E-03    0.97       5.3  T
   7   -165.8656629 -0.330327E-06  0.771E-04    0.97      14.2  T
   8   -165.8656629 -0.175257E-07  0.413E-04    0.97      26.6  T
     SCC iter.                  ...        0 min,  0.119 sec
     gradient                   ...        0 min,  0.120 sec
 * total energy  :  -163.3992866 Eh     change       -0.6172704E-03 Eh
   gradient norm :     0.0207553 Eh/α   predicted    -0.8797870E-03 (  42.53%)
   displ. norm   :     0.4958562 α      lambda       -0.1164848E-02
   maximum displ.:     0.2827341 α      in ANC's #5, #3, #6, ...

........................................................................
.............................. CYCLE   35 ..............................
........................................................................
   1   -165.8769716 -0.165877E+03  0.126E-01    0.98       0.0  T
   2   -165.8769800 -0.836302E-05  0.735E-02    0.96       1.0  T
   3   -165.8767184  0.261585E-03  0.513E-02    0.98       1.0  T
   4   -165.8770098 -0.291415E-03  0.859E-03    0.97       1.3  T
   5   -165.8770133 -0.347545E-05  0.455E-03    0.97       2.4  T
   6   -165.8770140 -0.765693E-06  0.192E-03    0.97       5.7  T
   7   -165.8770142 -0.184226E-06  0.801E-04    0.97      13.7  T
   8   -165.8770142 -0.300250E-08  0.506E-04    0.97      21.7  T
     SCC iter.                  ...        0 min,  0.120 sec
     gradient                   ...        0 min,  0.120 sec
 * total energy  :  -163.3997561 Eh     change       -0.4694735E-03 Eh
   gradient norm :     0.0204602 Eh/α   predicted    -0.7256272E-03 (  54.56%)
   displ. norm   :     0.4877843 α      lambda       -0.1016576E-02
   maximum displ.:     0.2453636 α      in ANC's #5, #6, #3, ...

........................................................................
.............................. CYCLE   36 ..............................
........................................................................
   1   -165.8809197 -0.165881E+03  0.135E-01    0.97       0.0  T
   2   -165.8809374 -0.177647E-04  0.773E-02    0.97       1.0  T
   3   -165.8808498  0.876427E-04  0.317E-02    0.97       1.0  T
   4   -165.8809497 -0.999251E-04  0.689E-03    0.97       1.6  T
   5   -165.8809515 -0.179602E-05  0.360E-03    0.97       3.1  T
   6   -165.8809519 -0.410960E-06  0.164E-03    0.97       6.7  T
   7   -165.8809521 -0.185336E-06  0.639E-04    0.97      17.2  T
   8   -165.8809521 -0.122639E-07  0.363E-04    0.97      30.2  T
     SCC iter.                  ...        0 min,  0.119 sec
     gradient                   ...        0 min,  0.121 sec
 * total energy  :  -163.4002578 Eh     change       -0.5016578E-03 Eh
   gradient norm :     0.0219609 Eh/α   predicted    -0.6292276E-03 (  25.43%)
   displ. norm   :     0.4915661 α      lambda       -0.6191931E-03
   maximum displ.:     0.2593561 α      in ANC's #5, #6, #14, ...

........................................................................
.............................. CYCLE   37 ..............................
........................................................................
   1   -165.8767683 -0.165877E+03  0.115E-01    0.97       0.0  T
   2   -165.8767768 -0.857756E-05  0.654E-02    0.97       1.0  T
   3   -165.8767471  0.297355E-04  0.215E-02    0.97       1.0  T
   4   -165.8767820 -0.349418E-04  0.475E-03    0.97       2.3  T
   5   -165.8767823 -0.271700E-06  0.300E-03    0.97       3.7  T
   6   -165.8767829 -0.560237E-06  0.108E-03    0.97      10.1  T
   7   -165.8767830 -0.862909E-07  0.415E-04    0.97      26.5  T
   8   -165.8767830 -0.388115E-08  0.221E-04    0.97      49.6  T
     SCC iter.                  ...        0 min,  0.119 sec
     gradient                   ...        0 min,  0.121 sec
 * total energy  :  -163.4006927 Eh     change       -0.4349477E-03 Eh
   gradient norm :     0.0091822 Eh/α   predicted    -0.3844078E-03 ( -11.62%)
   displ. norm   :     0.5163800 α      lambda       -0.5156674E-03
   maximum displ.:     0.2902447 α      in ANC's #5, #6, #2, ...

........................................................................
.............................. CYCLE   38 ..............................
........................................................................
   1   -165.8786526 -0.165879E+03  0.996E-02    0.97       0.0  T
   2   -165.8786576 -0.500975E-05  0.571E-02    0.97       1.0  T
   3   -165.8786251  0.325306E-04  0.184E-02    0.98       1.0  T
   4   -165.8786613 -0.362125E-04  0.402E-03    0.97       2.7  T
   5   -165.8786617 -0.390323E-06  0.269E-03    0.97       4.1  T
   6   -165.8786621 -0.421247E-06  0.761E-04    0.97      14.4  T
   7   -165.8786621 -0.362179E-07  0.326E-04    0.97      33.6  T
     SCC iter.                  ...        0 min,  0.105 sec
     gradient                   ...        0 min,  0.121 sec
 * total energy  :  -163.4011174 Eh     change       -0.4247110E-03 Eh
   gradient norm :     0.0086823 Eh/α   predicted    -0.3265894E-03 ( -23.10%)
   displ. norm   :     0.6742709 α      lambda       -0.6838444E-03
   maximum displ.:     0.3821842 α      in ANC's #5, #6, #2, ...

........................................................................
.............................. CYCLE   39 ..............................
........................................................................
   1   -165.8845380 -0.165885E+03  0.120E-01    0.97       0.0  T
   2   -165.8845444 -0.643442E-05  0.685E-02    0.97       1.0  T
   3   -165.8844846  0.598419E-04  0.244E-02    0.98       1.0  T
   4   -165.8845508 -0.661833E-04  0.437E-03    0.97       2.5  T
   5   -165.8845508 -0.835644E-07  0.261E-03    0.97       4.2  T
   6   -165.8845512 -0.396445E-06  0.758E-04    0.97      14.5  T
   7   -165.8845513 -0.300634E-07  0.400E-04    0.97      27.5  T
     SCC iter.                  ...        0 min,  0.105 sec
     gradient                   ...        0 min,  0.120 sec
 * total energy  :  -163.4015962 Eh     change       -0.4787826E-03 Eh
   gradient norm :     0.0115156 Eh/α   predicted    -0.4973772E-03 (   3.88%)
   displ. norm   :     0.7182890 α      lambda       -0.7266686E-03
   maximum displ.:     0.4087539 α      in ANC's #5, #6, #2, ...

........................................................................
.............................. CYCLE   40 ..............................
........................................................................
   1   -165.8826019 -0.165883E+03  0.137E-01    0.97       0.0  T
   2   -165.8826127 -0.107597E-04  0.783E-02    0.97       1.0  T
   3   -165.8825879  0.248410E-04  0.199E-02    0.97       1.0  T
   4   -165.8826186 -0.307560E-04  0.457E-03    0.97       2.4  T
   5   -165.8826183  0.345108E-06  0.295E-03    0.97       3.7  T
   6   -165.8826191 -0.857630E-06  0.816E-04    0.97      13.4  T
   7   -165.8826192 -0.397407E-07  0.387E-04    0.97      28.4  T
     SCC iter.                  ...        0 min,  0.106 sec
     gradient                   ...        0 min,  0.120 sec
 * total energy  :  -163.4021466 Eh     change       -0.5503920E-03 Eh
   gradient norm :     0.0095661 Eh/α   predicted    -0.5507967E-03 (   0.07%)
   displ. norm   :     0.6944509 α      lambda       -0.5830070E-03
   maximum displ.:     0.3914178 α      in ANC's #5, #6, #2, ...

........................................................................
.............................. CYCLE   41 ..............................
........................................................................
   1   -165.8873685 -0.165887E+03  0.112E-01    0.97       0.0  T
   2   -165.8873731 -0.460505E-05  0.648E-02    0.97       1.0  T
   3   -165.8873045  0.685722E-04  0.279E-02    0.97       1.0  T
   4   -165.8873797 -0.752055E-04  0.398E-03    0.97       2.8  T
   5   -165.8873799 -0.186192E-06  0.265E-03    0.97       4.1  T
   6   -165.8873804 -0.478549E-06  0.936E-04    0.97      11.7  T
   7   -165.8873805 -0.660733E-07  0.362E-04    0.97      30.3  T
     SCC iter.                  ...        0 min,  0.106 sec
     gradient                   ...        0 min,  0.120 sec
 * total energy  :  -163.4025892 Eh     change       -0.4426185E-03 Eh
   gradient norm :     0.0124705 Eh/α   predicted    -0.4320865E-03 (  -2.38%)
   displ. norm   :     0.7662371 α      lambda       -0.6524570E-03
   maximum displ.:     0.4431754 α      in ANC's #5, #6, #2, ...

........................................................................
.............................. CYCLE   42 ..............................
........................................................................
   1   -165.8777174 -0.165878E+03  0.131E-01    0.96       0.0  T
   2   -165.8777266 -0.915144E-05  0.754E-02    0.97       1.0  T
   3   -165.8776616  0.649541E-04  0.289E-02    0.96       1.0  T
   4   -165.8777342 -0.725666E-04  0.537E-03    0.97       2.0  T
   5   -165.8777347 -0.515028E-06  0.342E-03    0.96       3.2  T
   6   -165.8777355 -0.798588E-06  0.113E-03    0.97       9.7  T
   7   -165.8777356 -0.919167E-07  0.479E-04    0.97      22.9  T
   8   -165.8777356 -0.416381E-08  0.265E-04    0.97      41.4  T
     SCC iter.                  ...        0 min,  0.120 sec
     gradient                   ...        0 min,  0.120 sec
 * total energy  :  -163.4030455 Eh     change       -0.4562590E-03 Eh
   gradient norm :     0.0134472 Eh/α   predicted    -0.5177671E-03 (  13.48%)
   displ. norm   :     0.5471411 α      lambda       -0.7214663E-03
   maximum displ.:     0.2776783 α      in ANC's #5, #2, #6, ...
 * RMSD in coord.:     1.0592316 α      energy gain  -0.1561010E-01 Eh

generating ANC from model Hessian ...
Using Lindh-Hessian (1995)
 Shifting diagonal of input Hessian by   1.002322225086937E-002
 Lowest  eigenvalues of input Hessian
    0.010000    0.000000    0.000000    0.000000    0.000000    0.000000
    0.000000    0.010034    0.010060    0.010112    0.010151    0.010267
    0.010416    0.010634    0.010760    0.010831    0.011151    0.011232
 Highest eigenvalues
    2.282068    2.286610    2.602808    2.610402    2.645965    2.649354
 

........................................................................
.............................. CYCLE   43 ..............................
........................................................................
   1   -165.8865395 -0.165887E+03  0.127E-01    0.97       0.0  T
   2   -165.8865539 -0.144320E-04  0.717E-02    0.96       1.0  T
   3   -165.8864782  0.757493E-04  0.282E-02    0.97       1.0  T
   4   -165.8865632 -0.849765E-04  0.539E-03    0.96       2.0  T
   5   -165.8865641 -0.898891E-06  0.345E-03    0.96       3.2  T
   6   -165.8865647 -0.633748E-06  0.115E-03    0.96       9.6  T
   7   -165.8865648 -0.621150E-07  0.570E-04    0.96      19.3  T
   8   -165.8865648 -0.127911E-07  0.260E-04    0.96      42.2  T
     SCC iter.                  ...        0 min,  0.119 sec
     gradient                   ...        0 min,  0.120 sec
 * total energy  :  -163.4033379 Eh     change       -0.2924219E-03 Eh
   gradient norm :     0.0161669 Eh/α   predicted     0.0000000E+00 (-100.00%)
   displ. norm   :     0.1367237 α      lambda       -0.6082723E-03
   maximum displ.:     0.0569212 α      in ANC's #21, #8, #3, ...

........................................................................
.............................. CYCLE   44 ..............................
........................................................................
   1   -165.8829874 -0.165883E+03  0.119E-01    0.96       0.0  T
   2   -165.8830012 -0.138436E-04  0.659E-02    0.97       1.0  T
   3   -165.8829778  0.234257E-04  0.169E-02    0.96       1.0  T
   4   -165.8830076 -0.298195E-04  0.340E-03    0.97       3.2  T
   5   -165.8830080 -0.379612E-06  0.211E-03    0.96       5.2  T
   6   -165.8830082 -0.255549E-06  0.811E-04    0.97      13.5  T
   7   -165.8830083 -0.376122E-07  0.329E-04    0.97      33.3  T
     SCC iter.                  ...        0 min,  0.105 sec
     gradient                   ...        0 min,  0.120 sec
 * total energy  :  -163.4033795 Eh     change       -0.4162195E-04 Eh
   gradient norm :     0.0104041 Eh/α   predicted    -0.3098345E-03 ( 644.40%)
   displ. norm   :     0.1739806 α      lambda       -0.8755862E-03
   maximum displ.:     0.0783099 α      in ANC's #3, #15, #8, ...

........................................................................
.............................. CYCLE   45 ..............................
........................................................................
   1   -165.8827962 -0.165883E+03  0.153E-01    0.97       0.0  T
   2   -165.8828187 -0.224105E-04  0.847E-02    0.97       1.0  T
   3   -165.8827966  0.220874E-04  0.189E-02    0.97       1.0  T
   4   -165.8828290 -0.324231E-04  0.381E-03    0.97       2.9  T
   5   -165.8828293 -0.282326E-06  0.215E-03    0.97       5.1  T
   6   -165.8828295 -0.216432E-06  0.738E-04    0.97      14.9  T
   7   -165.8828295 -0.340033E-07  0.316E-04    0.97      34.7  T
     SCC iter.                  ...        0 min,  0.107 sec
     gradient                   ...        0 min,  0.120 sec
 * total energy  :  -163.4036960 Eh     change       -0.3164453E-03 Eh
   gradient norm :     0.0119833 Eh/α   predicted    -0.4510489E-03 (  42.54%)
   displ. norm   :     0.1088161 α      lambda       -0.3282111E-03
   maximum displ.:     0.0516921 α      in ANC's #43, #3, #45, ...

........................................................................
.............................. CYCLE   46 ..............................
........................................................................
   1   -165.8827417 -0.165883E+03  0.946E-02    0.97       0.0  T
   2   -165.8827504 -0.866734E-05  0.523E-02    0.97       1.0  T
   3   -165.8827472  0.319137E-05  0.834E-03    0.97       1.3  T
   4   -165.8827539 -0.666629E-05  0.229E-03    0.97       4.8  T
   5   -165.8827541 -0.180259E-06  0.111E-03    0.97       9.9  T
   6   -165.8827541 -0.745103E-07  0.386E-04    0.97      28.4  T
   7   -165.8827542 -0.965719E-08  0.169E-04    0.97      64.8  T
     SCC iter.                  ...        0 min,  0.106 sec
     gradient                   ...        0 min,  0.120 sec
 * total energy  :  -163.4038015 Eh     change       -0.1055637E-03 Eh
   gradient norm :     0.0055177 Eh/α   predicted    -0.1660493E-03 (  57.30%)
   displ. norm   :     0.1189275 α      lambda       -0.2760428E-03
   maximum displ.:     0.0633031 α      in ANC's #3, #4, #6, ...

........................................................................
.............................. CYCLE   47 ..............................
........................................................................
   1   -165.8836923 -0.165884E+03  0.499E-02    0.97       0.0  T
   2   -165.8836945 -0.222234E-05  0.279E-02    0.97       1.0  T
   3   -165.8836910  0.359105E-05  0.690E-03    0.97       1.6  T
   4   -165.8836955 -0.455215E-05  0.174E-03    0.97       6.3  T
   5   -165.8836956 -0.114815E-06  0.877E-04    0.97      12.5  T
   6   -165.8836957 -0.368358E-07  0.394E-04    0.97      27.9  T
     SCC iter.                  ...        0 min,  0.091 sec
     gradient                   ...        0 min,  0.120 sec
 * total energy  :  -163.4039797 Eh     change       -0.1781270E-03 Eh
   gradient norm :     0.0052151 Eh/α   predicted    -0.1399782E-03 ( -21.42%)
   displ. norm   :     0.2574126 α      lambda       -0.2574902E-03
   maximum displ.:     0.1419573 α      in ANC's #3, #1, #4, ...

........................................................................
.............................. CYCLE   48 ..............................
........................................................................
   1   -165.8833296 -0.165883E+03  0.873E-02    0.97       0.0  T
   2   -165.8833351 -0.548869E-05  0.489E-02    0.97       1.0  T
   3   -165.8833284  0.662309E-05  0.957E-03    0.96       1.1  T
   4   -165.8833374 -0.901215E-05  0.281E-03    0.97       3.9  T
   5   -165.8833376 -0.114705E-06  0.177E-03    0.97       6.2  T
   6   -165.8833378 -0.226505E-06  0.404E-04    0.97      27.2  T
   7   -165.8833378 -0.791107E-08  0.200E-04    0.97      54.8  T
     SCC iter.                  ...        0 min,  0.105 sec
     gradient                   ...        0 min,  0.120 sec
 * total energy  :  -163.4041127 Eh     change       -0.1329877E-03 Eh
   gradient norm :     0.0065754 Eh/α   predicted    -0.1372766E-03 (   3.23%)
   displ. norm   :     0.4604548 α      lambda       -0.4701944E-03
   maximum displ.:     0.2413341 α      in ANC's #3, #4, #6, ...

........................................................................
.............................. CYCLE   49 ..............................
........................................................................
   1   -165.8827831 -0.165883E+03  0.111E-01    0.97       0.0  T
   2   -165.8827894 -0.623539E-05  0.636E-02    0.97       1.0  T
   3   -165.8827555  0.338184E-04  0.188E-02    0.96       1.0  T
   4   -165.8827936 -0.380575E-04  0.409E-03    0.97       2.7  T
   5   -165.8827939 -0.257160E-06  0.258E-03    0.97       4.2  T
   6   -165.8827943 -0.410155E-06  0.744E-04    0.97      14.8  T
   7   -165.8827943 -0.336037E-07  0.346E-04    0.97      31.7  T
     SCC iter.                  ...        0 min,  0.105 sec
     gradient                   ...        0 min,  0.120 sec
 * total energy  :  -163.4043644 Eh     change       -0.2517420E-03 Eh
   gradient norm :     0.0081576 Eh/α   predicted    -0.2849401E-03 (  13.19%)
   displ. norm   :     0.3285520 α      lambda       -0.2984723E-03
   maximum displ.:     0.1869673 α      in ANC's #3, #1, #4, ...

........................................................................
.............................. CYCLE   50 ..............................
........................................................................
   1   -165.8818047 -0.165882E+03  0.909E-02    0.97       0.0  T
   2   -165.8818109 -0.619990E-05  0.509E-02    0.97       1.0  T
   3   -165.8818099  0.984327E-06  0.664E-03    0.96       1.7  T
   4   -165.8818130 -0.311801E-05  0.302E-03    0.97       3.6  T
   5   -165.8818132 -0.204248E-06  0.156E-03    0.97       7.0  T
   6   -165.8818134 -0.202306E-06  0.394E-04    0.97      27.9  T
   7   -165.8818134 -0.497732E-08  0.226E-04    0.97      48.7  T
     SCC iter.                  ...        0 min,  0.108 sec
     gradient                   ...        0 min,  0.119 sec
 * total energy  :  -163.4046100 Eh     change       -0.2455567E-03 Eh
   gradient norm :     0.0072500 Eh/α   predicted    -0.1653492E-03 ( -32.66%)
   displ. norm   :     0.4395373 α      lambda       -0.4445846E-03
   maximum displ.:     0.2522703 α      in ANC's #3, #1, #4, ...

........................................................................
.............................. CYCLE   51 ..............................
........................................................................
   1   -165.8843655 -0.165884E+03  0.111E-01    0.96       0.0  T
   2   -165.8843757 -0.101272E-04  0.624E-02    0.96       1.0  T
   3   -165.8843422  0.334326E-04  0.197E-02    0.97       1.0  T
   4   -165.8843816 -0.393461E-04  0.368E-03    0.96       3.0  T
   5   -165.8843817 -0.141117E-06  0.253E-03    0.96       4.3  T
   6   -165.8843822 -0.454898E-06  0.787E-04    0.96      13.9  T
   7   -165.8843822 -0.315710E-07  0.356E-04    0.96      30.8  T
     SCC iter.                  ...        0 min,  0.108 sec
     gradient                   ...        0 min,  0.120 sec
 * total energy  :  -163.4048784 Eh     change       -0.2684137E-03 Eh
   gradient norm :     0.0070070 Eh/α   predicted    -0.2652373E-03 (  -1.18%)
   displ. norm   :     0.4798927 α      lambda       -0.3741301E-03
   maximum displ.:     0.2730141 α      in ANC's #3, #1, #4, ...

........................................................................
.............................. CYCLE   52 ..............................
........................................................................
   1   -165.8827356 -0.165883E+03  0.115E-01    0.96       0.0  T
   2   -165.8827449 -0.930446E-05  0.646E-02    0.96       1.0  T
   3   -165.8827381  0.677470E-05  0.117E-02    0.96       1.0  T
   4   -165.8827487 -0.105754E-04  0.356E-03    0.96       3.1  T
   5   -165.8827487 -0.174454E-07  0.233E-03    0.96       4.7  T
   6   -165.8827492 -0.463579E-06  0.682E-04    0.96      16.1  T
   7   -165.8827492 -0.288101E-07  0.293E-04    0.96      37.5  T
     SCC iter.                  ...        0 min,  0.108 sec
     gradient                   ...        0 min,  0.119 sec
 * total energy  :  -163.4051420 Eh     change       -0.2636403E-03 Eh
   gradient norm :     0.0077366 Eh/α   predicted    -0.2301452E-03 ( -12.70%)
   displ. norm   :     0.5371172 α      lambda       -0.3425312E-03
   maximum displ.:     0.3050101 α      in ANC's #3, #1, #4, ...

........................................................................
.............................. CYCLE   53 ..............................
........................................................................
   1   -165.8812624 -0.165881E+03  0.922E-02    0.96       0.0  T
   2   -165.8812663 -0.383979E-05  0.530E-02    0.96       1.0  T
   3   -165.8812632  0.304259E-05  0.778E-03    0.96       1.4  T
   4   -165.8812675 -0.430970E-05  0.317E-03    0.96       3.5  T
   5   -165.8812678 -0.247505E-06  0.161E-03    0.96       6.8  T
   6   -165.8812680 -0.195840E-06  0.503E-04    0.96      21.8  T
   7   -165.8812680 -0.882881E-08  0.287E-04    0.96      38.3  T
     SCC iter.                  ...        0 min,  0.107 sec
     gradient                   ...        0 min,  0.119 sec
 * total energy  :  -163.4054351 Eh     change       -0.2931101E-03 Eh
   gradient norm :     0.0067089 Eh/α   predicted    -0.2206743E-03 ( -24.71%)
   displ. norm   :     0.6265101 α      lambda       -0.4205277E-03
   maximum displ.:     0.3684675 α      in ANC's #3, #1, #4, ...

........................................................................
.............................. CYCLE   54 ..............................
........................................................................
   1   -165.8835656 -0.165884E+03  0.102E-01    0.96       0.0  T
   2   -165.8835708 -0.514489E-05  0.587E-02    0.96       1.0  T
   3   -165.8835498  0.209595E-04  0.156E-02    0.96       1.0  T
   4   -165.8835736 -0.238358E-04  0.359E-03    0.96       3.1  T
   5   -165.8835739 -0.278143E-06  0.228E-03    0.96       4.8  T
   6   -165.8835743 -0.377202E-06  0.741E-04    0.96      14.8  T
   7   -165.8835743 -0.326062E-07  0.324E-04    0.96      33.9  T
     SCC iter.                  ...        0 min,  0.107 sec
     gradient                   ...        0 min,  0.120 sec
 * total energy  :  -163.4057798 Eh     change       -0.3446910E-03 Eh
   gradient norm :     0.0076475 Eh/α   predicted    -0.2928053E-03 ( -15.05%)
   displ. norm   :     0.7107846 α      lambda       -0.3871135E-03
   maximum displ.:     0.4237545 α      in ANC's #3, #1, #4, ...

........................................................................
.............................. CYCLE   55 ..............................
........................................................................
   1   -165.8811945 -0.165881E+03  0.126E-01    0.96       0.0  T
   2   -165.8812037 -0.920568E-05  0.720E-02    0.96       1.0  T
   3   -165.8812007  0.295251E-05  0.948E-03    0.96       1.2  T
   4   -165.8812071 -0.641527E-05  0.401E-03    0.96       2.7  T
   5   -165.8812074 -0.279723E-06  0.183E-03    0.96       6.0  T
   6   -165.8812077 -0.293323E-06  0.481E-04    0.96      22.8  T
   7   -165.8812077 -0.273349E-08  0.320E-04    0.96      34.3  T
     SCC iter.                  ...        0 min,  0.108 sec
     gradient                   ...        0 min,  0.119 sec
 * total energy  :  -163.4061174 Eh     change       -0.3375810E-03 Eh
   gradient norm :     0.0065968 Eh/α   predicted    -0.2913471E-03 ( -13.70%)
   displ. norm   :     0.6295968 α      lambda       -0.4082965E-03
   maximum displ.:     0.3794811 α      in ANC's #3, #1, #4, ...

........................................................................
.............................. CYCLE   56 ..............................
........................................................................
   1   -165.8861783 -0.165886E+03  0.978E-02    0.96       0.0  T
   2   -165.8861823 -0.403457E-05  0.563E-02    0.96       1.0  T
   3   -165.8861633  0.189955E-04  0.152E-02    0.96       1.0  T
   4   -165.8861850 -0.216371E-04  0.314E-03    0.96       3.5  T
   5   -165.8861851 -0.115101E-06  0.209E-03    0.96       5.3  T
   6   -165.8861854 -0.333852E-06  0.579E-04    0.96      18.9  T
   7   -165.8861854 -0.197420E-07  0.266E-04    0.96      41.2  T
     SCC iter.                  ...        0 min,  0.108 sec
     gradient                   ...        0 min,  0.119 sec
 * total energy  :  -163.4064760 Eh     change       -0.3585860E-03 Eh
   gradient norm :     0.0071263 Eh/α   predicted    -0.2850724E-03 ( -20.50%)
   displ. norm   :     0.7437717 α      lambda       -0.4708000E-03
   maximum displ.:     0.4559140 α      in ANC's #3, #1, #4, ...

........................................................................
.............................. CYCLE   57 ..............................
........................................................................
   1   -165.8854405 -0.165885E+03  0.125E-01    0.96       0.0  T
   2   -165.8854493 -0.883143E-05  0.718E-02    0.96       1.0  T
   3   -165.8854416  0.776544E-05  0.123E-02    0.96       1.0  T
   4   -165.8854531 -0.115275E-04  0.371E-03    0.96       3.0  T
   5   -165.8854530  0.927266E-07  0.250E-03    0.96       4.4  T
   6   -165.8854535 -0.527866E-06  0.666E-04    0.96      16.5  T
   7   -165.8854535 -0.252455E-07  0.302E-04    0.96      36.3  T
     SCC iter.                  ...        0 min,  0.108 sec
[...]
       151                         -0.3311849              -9.0120
       152                         -0.3071938              -8.3592
       153                         -0.2887757              -7.8580
       154                         -0.2785383              -7.5794
       155                         -0.2668216              -7.2606
       156                         -0.2523601              -6.8671
       157                         -0.2523233              -6.8661
       158                         -0.2502219              -6.8089
       ...                                ...                  ...
       286                          1.1520400              31.3486
      -------------------------------------------------------------
                  HL-Gap            0.0347703 Eh            0.9461 eV
             Fermi-level           -0.3650185 Eh           -9.9327 eV

     #   Z          covCN         q      C6AA      α(0)
     1   6 C        2.872     0.226    23.257     7.906
     2   8 O        0.947    -0.349    20.655     6.095
     3   6 C        3.048    -0.020    28.466     8.750
     4   6 C        2.912    -0.037    28.925     8.819
     5   6 C        2.783     0.161    24.510     8.109
     6   6 C        2.782     0.164    24.458     8.100
     7   6 C        2.914    -0.049    29.222     8.864
     8   6 C        3.037     0.005    27.868     8.659
     9   6 C        3.019     0.030    27.312     8.573
    10   6 C        2.947     0.009    27.815     8.650
    11   6 C        1.945     0.122    28.077     8.557
    12   7 N        0.911    -0.224    25.895     7.360
    13   6 C        1.943     0.123    28.065     8.555
    14   7 N        0.911    -0.231    26.049     7.382
    15   6 C        3.008    -0.039    28.951     8.826
    16   6 C        2.918    -0.013    28.343     8.730
    17   6 C        2.981     0.026    27.425     8.590
    18   6 C        3.093    -0.035    28.764     8.790
    19   6 C        3.069    -0.044    29.017     8.833
    20   6 C        3.032     0.017    27.598     8.617
    21  16 S        2.384     0.058   138.719    19.823
    22   6 C        3.076     0.017    27.542     8.604
    23   6 C        3.234    -0.012    27.438     8.501
    24   6 C        3.936     0.019    20.183     6.384
    25   6 C        3.806    -0.050    21.463     6.595
    26   6 C        3.751    -0.106    22.582     6.777
    27   6 C        3.806    -0.051    21.489     6.599
    28   6 C        3.751    -0.105    22.564     6.774
    29   6 C        3.232    -0.014    27.502     8.514
    30   6 C        3.076     0.016    27.580     8.610
    31   6 C        3.035     0.016    27.628     8.621
    32   6 C        3.068    -0.045    29.049     8.838
    33   6 C        3.095    -0.037    28.792     8.794
    34   6 C        2.980     0.025    27.439     8.593
    35  16 S        2.435     0.065   138.423    19.802
    36   6 C        2.918    -0.013    28.343     8.730
    37   6 C        3.007    -0.039    28.947     8.826
    38   6 C        3.019     0.030    27.307     8.572
    39   6 C        2.947     0.009    27.819     8.651
    40   6 C        1.945     0.122    28.076     8.557
    41   7 N        0.911    -0.224    25.898     7.360
    42   6 C        1.943     0.123    28.060     8.554
    43   7 N        0.911    -0.232    26.076     7.385
    44   6 C        3.037     0.005    27.870     8.659
    45   6 C        2.914    -0.049    29.221     8.864
    46   6 C        2.782     0.164    24.458     8.100
    47   6 C        2.783     0.161    24.503     8.108
    48   6 C        2.912    -0.037    28.916     8.818
    49   6 C        3.048    -0.020    28.460     8.750
    50   6 C        2.873     0.226    23.255     7.905
    51   8 O        0.957    -0.346    20.579     6.084
    52  16 S        2.290     0.014   140.488    19.949
    53   6 C        3.038     0.016    27.610     8.619
    54   6 C        3.061    -0.047    29.092     8.845
    55   6 C        3.060    -0.046    29.090     8.845
    56   6 C        3.037     0.018    27.580     8.614
    57  16 S        2.249    -0.000   141.061    19.990
    58   9 F        0.787    -0.183    11.064     3.929
    59   9 F        0.787    -0.185    11.085     3.933
    60   9 F        0.787    -0.186    11.093     3.934
    61   9 F        0.787    -0.183    11.064     3.929
    62   1 H        0.926     0.093     1.851     2.127
    63   1 H        0.926     0.091     1.865     2.135
    64   1 H        0.925     0.071     2.073     2.252
    65   1 H        0.926     0.059     2.211     2.325
    66   1 H        0.926     0.055     2.256     2.349
    67   1 H        0.924     0.035     2.511     2.478
    68   1 H        0.924     0.046     2.375     2.410
    69   1 H        0.925     0.042     2.426     2.436
    70   1 H        0.925     0.042     2.422     2.434
    71   1 H        0.925     0.044     2.395     2.420
    72   1 H        0.924     0.036     2.508     2.477
    73   1 H        0.924     0.049     2.333     2.389
    74   1 H        0.925     0.042     2.421     2.433
    75   1 H        0.925     0.043     2.407     2.426
    76   1 H        0.925     0.039     2.462     2.454
    77   1 H        0.926     0.049     2.330     2.387
    78   1 H        0.926     0.059     2.216     2.328
    79   1 H        0.925     0.071     2.076     2.253
    80   1 H        0.926     0.091     1.866     2.136
    81   1 H        0.926     0.094     1.838     2.120
    82   1 H        0.926     0.052     2.300     2.372
    83   1 H        0.926     0.061     2.191     2.314

 Mol. C6AA /au·bohr⁶  :     133858.337450
 Mol. C8AA /au·bohr⁸  :    3778387.975808
 Mol. α(0) /au        :        582.560762


Wiberg/Mayer (AO) data.
largest (>0.10) Wiberg bond orders for each atom

 ---------------------------------------------------------------------------
     #   Z sym  total        # sym  WBO       # sym  WBO       # sym  WBO
 ---------------------------------------------------------------------------
     1   6 C    3.921 --     2 O    1.713    15 C    1.073     3 C    1.017
     2   8 O    2.120 --     1 C    1.713    21 S    0.127
     3   6 C    3.975 --     4 C    1.418     8 C    1.300     1 C    1.017
     4   6 C    3.976 --     3 C    1.418     5 C    1.384    62 H    0.960
     5   6 C    3.881 --     4 C    1.384     6 C    1.332    60 F    0.988
     6   6 C    3.888 --     7 C    1.388     5 C    1.332    61 F    0.992
     7   6 C    3.971 --     8 C    1.403     6 C    1.388    63 H    0.954
     8   6 C    3.981 --     7 C    1.403     3 C    1.300     9 C    1.079
     9   6 C    3.971 --    10 C    1.489    15 C    1.145     8 C    1.079
    10   6 C    3.942 --     9 C    1.489    13 C    1.097    11 C    1.094
    11   6 C    3.946 --    12 N    2.769    10 C    1.094
    12   7 N    2.971 --    11 C    2.769
    13   6 C    3.946 --    14 N    2.757    10 C    1.097
    14   7 N    2.966 --    13 C    2.757
    15   6 C    3.952 --    16 C    1.475     9 C    1.145     1 C    1.073
    16   6 C    3.947 --    15 C    1.475    17 C    1.318    64 H    0.939
    17   6 C    3.934 --    18 C    1.335    16 C    1.318    21 S    1.114
    18   6 C    3.962 --    19 C    1.466    17 C    1.335    65 H    0.962
    19   6 C    3.959 --    18 C    1.466    20 C    1.360    66 H    0.961
    20   6 C    3.943 --    19 C    1.360    56 C    1.219    21 S    1.180
    21  16 S    2.753 --    20 C    1.180    17 C    1.114     2 O    0.127
    22   6 C    3.921 --    23 C    1.346    30 C    1.214    57 S    1.166
    23   6 C    3.946 --    55 C    1.386    22 C    1.346    24 C    0.985
    24   6 C    3.987 --    23 C    0.985    29 C    0.985    27 C    0.957
                            25 C    0.955
    25   6 C    3.993 --    26 C    1.019    67 H    0.977    68 H    0.972
                            24 C    0.955
    26   6 C    3.993 --    25 C    1.019    71 H    0.984    69 H    0.984
                            70 H    0.984
    27   6 C    3.993 --    28 C    1.019    72 H    0.977    73 H    0.971
                            24 C    0.957
    28   6 C    3.994 --    27 C    1.019    75 H    0.984    74 H    0.984
                            76 H    0.984
    29   6 C    3.947 --    54 C    1.388    30 C    1.342    24 C    0.985
    30   6 C    3.921 --    29 C    1.342    22 C    1.214    52 S    1.171
    31   6 C    3.944 --    32 C    1.353    53 C    1.215    35 S    1.193
    32   6 C    3.959 --    33 C    1.468    31 C    1.353    77 H    0.964
    33   6 C    3.963 --    32 C    1.468    34 C    1.334    78 H    0.963
    34   6 C    3.934 --    33 C    1.334    36 C    1.316    35 S    1.118
    35  16 S    2.771 --    31 C    1.193    34 C    1.118    51 O    0.131
    36   6 C    3.948 --    37 C    1.477    34 C    1.316    79 H    0.939
    37   6 C    3.952 --    36 C    1.477    38 C    1.145    50 C    1.071
    38   6 C    3.971 --    39 C    1.488    37 C    1.145    44 C    1.079
    39   6 C    3.941 --    38 C    1.488    42 C    1.097    40 C    1.094
    40   6 C    3.946 --    41 N    2.768    39 C    1.094
    41   7 N    2.971 --    40 C    2.768
    42   6 C    3.946 --    43 N    2.757    39 C    1.097
    43   7 N    2.966 --    42 C    2.757
    44   6 C    3.981 --    45 C    1.402    49 C    1.300    38 C    1.079
    45   6 C    3.971 --    44 C    1.402    46 C    1.388    80 H    0.954
    46   6 C    3.888 --    45 C    1.388    47 C    1.332    58 F    0.992
    47   6 C    3.882 --    48 C    1.385    46 C    1.332    59 F    0.989
    48   6 C    3.976 --    49 C    1.418    47 C    1.385    81 H    0.959
    49   6 C    3.975 --    48 C    1.418    44 C    1.300    50 C    1.017
    50   6 C    3.921 --    51 O    1.715    37 C    1.071    49 C    1.017
    51   8 O    2.125 --    50 C    1.715    35 S    0.131
    52  16 S    2.608 --    30 C    1.171    53 C    1.121
    53   6 C    3.916 --    54 C    1.405    31 C    1.215    52 S    1.121
    54   6 C    3.960 --    53 C    1.405    29 C    1.388    82 H    0.958
    55   6 C    3.963 --    56 C    1.412    23 C    1.386    83 H    0.955
    56   6 C    3.915 --    55 C    1.412    20 C    1.219    57 S    1.108
    57  16 S    2.591 --    22 C    1.166    56 C    1.108
    58   9 F    1.132 --    46 C    0.992
    59   9 F    1.127 --    47 C    0.989
    60   9 F    1.126 --     5 C    0.988
    61   9 F    1.132 --     6 C    0.992
    62   1 H    0.991 --     4 C    0.960
    63   1 H    0.991 --     7 C    0.954
    64   1 H    0.994 --    16 C    0.939
    65   1 H    0.996 --    18 C    0.962
    66   1 H    0.996 --    19 C    0.961
    67   1 H    0.999 --    25 C    0.977
    68   1 H    0.997 --    25 C    0.972
    69   1 H    0.997 --    26 C    0.984
    70   1 H    0.998 --    26 C    0.984
    71   1 H    0.998 --    26 C    0.984
    72   1 H    0.999 --    27 C    0.977
    73   1 H    0.996 --    27 C    0.971
    74   1 H    0.997 --    28 C    0.984
    75   1 H    0.998 --    28 C    0.984
    76   1 H    0.998 --    28 C    0.984
    77   1 H    0.996 --    32 C    0.964
    78   1 H    0.996 --    33 C    0.963
    79   1 H    0.994 --    36 C    0.939
    80   1 H    0.991 --    45 C    0.954
    81   1 H    0.991 --    48 C    0.959
    82   1 H    0.997 --    54 C    0.958
    83   1 H    0.996 --    55 C    0.955
 ---------------------------------------------------------------------------

Topologies differ in bond orders
Writing corrected topology to xtbtopo.mol

molecular dipole:
                 x           y           z       tot (Debye)
 q only:       -1.879      -1.368      -0.771
   full:       -1.861      -1.648      -0.762       6.607
molecular quadrupole (traceless):
                xx          xy          yy          xz          yz          zz
 q only:       97.045     -26.782      37.092      25.825      77.145    -134.137
  q+dip:      103.282     -24.323      46.684      26.015      70.952    -149.966
   full:      115.056     -30.661      42.334      25.058      70.464    -157.390

           -------------------------------------------------
          |                Geometry Summary                 |
           -------------------------------------------------

      molecular mass/u    :      878.9576688
   center of mass at/Å    :        0.3685763       1.2120682       0.9956420
  moments of inertia/u·Å² :        0.6438919E+04   0.6069853E+05   0.6514070E+05
rotational constants/cm⁻¹ :        0.2618084E-02   0.2777272E-03   0.2587880E-03

 * 77 selected distances

     #   Z          #   Z                                           value/Å
     1   6 C        2   8 O                                       1.2179113
     3   6 C        4   6 C                                       1.3804610
     4   6 C        5   6 C                                       1.3856196
     5   6 C        6   6 C                                       1.3948634
     6   6 C        7   6 C                                       1.3874704
     3   6 C        8   6 C                                       1.4048975
     7   6 C        8   6 C                                       1.3858871
     9   6 C       10   6 C                                       1.3706524
    11   6 C       12   7 N                                       1.1476634
    13   6 C       14   7 N                                       1.1485721
    15   6 C       16   6 C                                       1.3751700
    16   6 C       17   6 C                                       1.3985059
    17   6 C       18   6 C                                       1.4005578
    18   6 C       19   6 C                                       1.3765763
    19   6 C       20   6 C                                       1.3929875
    17   6 C       21  16 S                                       1.7472769
    20   6 C       21  16 S                                       1.7331651
    22   6 C       23   6 C                                       1.3983964
    24   6 C       25   6 C                                       1.5420799
    25   6 C       26   6 C                                       1.5225577
    24   6 C       27   6 C                                       1.5415070
    27   6 C       28   6 C                                       1.5224722
    22   6 C       30   6 C                                       1.4093307
    29   6 C       30   6 C                                       1.3991509
    31   6 C       32   6 C                                       1.3944722
    32   6 C       33   6 C                                       1.3768902
    33   6 C       34   6 C                                       1.4006929
    31   6 C       35  16 S                                       1.7316596
    34   6 C       35  16 S                                       1.7458798
    34   6 C       36   6 C                                       1.3991522
    36   6 C       37   6 C                                       1.3751036
    38   6 C       39   6 C                                       1.3707639
    40   6 C       41   7 N                                       1.1476567
    42   6 C       43   7 N                                       1.1486746
    44   6 C       45   6 C                                       1.3860225
    45   6 C       46   6 C                                       1.3874609
    46   6 C       47   6 C                                       1.3949993
    47   6 C       48   6 C                                       1.3856178
    44   6 C       49   6 C                                       1.4048229
    48   6 C       49   6 C                                       1.3804623
    50   6 C       51   8 O                                       1.2173839
    30   6 C       52  16 S                                       1.7120325
    31   6 C       53   6 C                                       1.4152090
    52  16 S       53   6 C                                       1.7517115
    29   6 C       54   6 C                                       1.3867078
    53   6 C       54   6 C                                       1.3903548
    23   6 C       55   6 C                                       1.3865340
    20   6 C       56   6 C                                       1.4128326
    55   6 C       56   6 C                                       1.3886058
    22   6 C       57  16 S                                       1.7123406
    56   6 C       57  16 S                                       1.7549502 (max)
    46   6 C       58   9 F                                       1.3374988
    47   6 C       59   9 F                                       1.3383518
     5   6 C       60   9 F                                       1.3386366
     6   6 C       61   9 F                                       1.3374761
     4   6 C       62   1 H                                       1.0782514
     7   6 C       63   1 H                                       1.0774511
    16   6 C       64   1 H                                       1.0832339
    18   6 C       65   1 H                                       1.0759118
    19   6 C       66   1 H                                       1.0758878
    25   6 C       67   1 H                                       1.0930805
    25   6 C       68   1 H                                       1.0909259
    26   6 C       69   1 H                                       1.0876771
    26   6 C       70   1 H                                       1.0862549
    26   6 C       71   1 H                                       1.0863263
    27   6 C       72   1 H                                       1.0930085
    27   6 C       73   1 H                                       1.0907034
    28   6 C       74   1 H                                       1.0876334
    28   6 C       75   1 H                                       1.0864009
    28   6 C       76   1 H                                       1.0861090
    32   6 C       77   1 H                                       1.0748485
    33   6 C       78   1 H                                       1.0760876
    36   6 C       79   1 H                                       1.0832126
    45   6 C       80   1 H                                       1.0774390
    48   6 C       81   1 H                                       1.0783001
    54   6 C       82   1 H                                       1.0740874 (min)
    55   6 C       83   1 H                                       1.0751091

 * 6 distinct bonds (by element types)

   Z      Z             #   av. dist./Å        max./Å        min./Å
   1 H    6 C          22     1.0826336     1.0930805     1.0740874
   6 C    6 C          37     1.4061040     1.5420799     1.3706524
   6 C    7 N           4     1.1481417     1.1486746     1.1476567
   6 C    8 O           2     1.2176476     1.2179113     1.2173839
   6 C    9 F           4     1.3379908     1.3386366     1.3374761
   6 C   16 S           8     1.7361270     1.7549502     1.7120325


optimized geometry written to: xtbopt.mol


           -------------------------------------------------
          | TOTAL ENERGY             -163.412801689479 Eh   |
          | GRADIENT NORM               0.000343765190 Eh/α |
          | HOMO-LUMO GAP               0.946148338740 eV   |
           -------------------------------------------------

------------------------------------------------------------------------
 * finished run on 2021/12/20 at 14:00:15.027     
------------------------------------------------------------------------
 total:
 * wall-time:     0 d,  0 h,  0 min, 40.446 sec
 *  cpu-time:     0 d,  0 h,  0 min, 40.445 sec
 * ratio c/w:     1.000 speedup
 SCF:
 * wall-time:     0 d,  0 h,  0 min,  0.424 sec
 *  cpu-time:     0 d,  0 h,  0 min,  0.423 sec
 * ratio c/w:     0.998 speedup
 ANC optimizer:
 * wall-time:     0 d,  0 h,  0 min, 39.978 sec
 *  cpu-time:     0 d,  0 h,  0 min, 39.977 sec
 * ratio c/w:     1.000 speedup

