      -----------------------------------------------------------      
     |                   =====================                   |     
     |                           x T B                           |     
     |                   =====================                   |     
     |                         S. Grimme                         |     
     |          Mulliken Center for Theoretical Chemistry        |     
     |                    University of Bonn                     |     
      -----------------------------------------------------------      

   * xtb version 6.4.1 (unknown) compiled by 'oda6@login1.crc.pitt.edu' on 2021-06-25

   xtb is free software: you can redistribute it and/or modify it under
   the terms of the GNU Lesser General Public License as published by
   the Free Software Foundation, either version 3 of the License, or
   (at your option) any later version.
   
   xtb is distributed in the hope that it will be useful,
   but WITHOUT ANY WARRANTY; without even the implied warranty of
   MERCHANTABILITY or FITNESS FOR A PARTICULAR PURPOSE.  See the
   GNU Lesser General Public License for more details.
   
   Cite this work as:
   * C. Bannwarth, E. Caldeweyher, S. Ehlert, A. Hansen, P. Pracht,
     J. Seibert, S. Spicher, S. Grimme, WIREs Comput. Mol. Sci., 2020, 11,
     e01493. DOI: 10.1002/wcms.1493
   
   for GFN2-xTB:
   * C. Bannwarth, S. Ehlert and S. Grimme., J. Chem. Theory Comput., 2019,
     15, 1652-1671. DOI: 10.1021/acs.jctc.8b01176
   for GFN1-xTB:
   * S. Grimme, C. Bannwarth, P. Shushkov, J. Chem. Theory Comput., 2017,
     13, 1989-2009. DOI: 10.1021/acs.jctc.7b00118
   for GFN0-xTB:
   * P. Pracht, E. Caldeweyher, S. Ehlert, S. Grimme, ChemRxiv, 2019, preprint.
     DOI: 10.26434/chemrxiv.8326202.v1
   for GFN-FF:
   * S. Spicher and S. Grimme, Angew. Chem. Int. Ed., 2020, 59, 15665-15673.
     DOI: 10.1002/anie.202004239
   
   for DFT-D4:
   * E. Caldeweyher, C. Bannwarth and S. Grimme, J. Chem. Phys., 2017,
     147, 034112. DOI: 10.1063/1.4993215
   * E. Caldeweyher, S. Ehlert, A. Hansen, H. Neugebauer, S. Spicher,
     C. Bannwarth and S. Grimme, J. Chem. Phys., 2019, 150, 154122.
     DOI: 10.1063/1.5090222
   * E. Caldeweyher, J.-M. Mewes, S. Ehlert and S. Grimme, Phys. Chem. Chem. Phys.
     2020, 22, 8499-8512. DOI: 10.1039/D0CP00502A
   
   for sTDA-xTB:
   * S. Grimme and C. Bannwarth, J. Chem. Phys., 2016, 145, 054103.
     DOI: 10.1063/1.4959605
   
   in the mass-spec context:
   * V. Asgeirsson, C. Bauer and S. Grimme, Chem. Sci., 2017, 8, 4879.
     DOI: 10.1039/c7sc00601b
   * J. Koopman and S. Grimme, ACS Omega 2019, 4, 12, 15120-15133.
     DOI: 10.1021/acsomega.9b02011
   
   for metadynamics refer to:
   * S. Grimme, J. Chem. Theory Comput., 2019, 155, 2847-2862
     DOI: 10.1021/acs.jctc.9b00143
   
   for SPH calculations refer to:
   * S. Spicher and S. Grimme, J. Chem. Theory Comput., 2021, 17, 1701-1714
     DOI: 10.1021/acs.jctc.0c01306
   
   with help from (in alphabetical order)
   P. Atkinson, C. Bannwarth, F. Bohle, G. Brandenburg, E. Caldeweyher
   M. Checinski, S. Dohm, S. Ehlert, S. Ehrlich, I. Gerasimov, J. Koopman
   C. Lavigne, S. Lehtola, F. März, M. Müller, F. Musil, H. Neugebauer
   J. Pisarek, C. Plett, P. Pracht, J. Seibert, P. Shushkov, S. Spicher
   M. Stahn, M. Steiner, T. Strunk, J. Stückrath, T. Rose, and J. Unsleber
   
 * started run on 2021/12/20 at 13:06:02.537     

           -------------------------------------------------
          |                Calculation Setup                |
           -------------------------------------------------

          program call               : /ihome/ghutchison/oda6/xtb/xtb-641/bin//xtb DTC-F-F.mol -opt
          hostname                   : smp-n72
          coordinate file            : DTC-F-F.mol
          omp threads                :                     1
          number of atoms            :                    83
          number of electrons        :                   270
          charge                     :                     0
          spin                       :                   0.0
          first test random number   :      0.32689570020239

   ID    Z sym.   atoms
    1    6 C      1, 3-7, 9, 11-16, 18-38, 40-44, 46, 48-50, 52, 54, 55, 57
    2    8 O      2, 17, 39, 51
    3    7 N      8, 10, 45, 47
    4   16 S      53, 56
    5    1 H      58-83
########################################################################
[WARNING] Please study the warnings concerning your input carefully
-1- prog_main_parseArguments: the use of '-opt' is discouraged, please use '--opt' next time
########################################################################

           -------------------------------------------------
          |                 G F N 2 - x T B                 |
           -------------------------------------------------

        Reference                      10.1021/acs.jctc.8b01176
      * Hamiltonian:
        H0-scaling (s, p, d)           1.850000    2.230000    2.230000
        zeta-weighting                 0.500000
      * Dispersion:
        s8                             2.700000
        a1                             0.520000
        a2                             5.000000
        s9                             5.000000
      * Repulsion:
        kExp                           1.500000    1.000000
        rExp                           1.000000
      * Coulomb:
        alpha                          2.000000
        third order                    shell-resolved
        anisotropic                    true
        a3                             3.000000
        a5                             4.000000
        cn-shift                       1.200000
        cn-exp                         4.000000
        max-rad                        5.000000


          ...................................................
          :                      SETUP                      :
          :.................................................:
          :  # basis functions                 266          :
          :  # atomic orbitals                 264          :
          :  # shells                          142          :
          :  # electrons                       270          :
          :  max. iterations                   250          :
          :  Hamiltonian                  GFN2-xTB          :
          :  restarted?                      false          :
          :  GBSA solvation                  false          :
          :  PC potential                    false          :
          :  electronic temp.          300.0000000     K    :
          :  accuracy                    1.0000000          :
          :  -> integral cutoff          0.2500000E+02      :
          :  -> integral neglect         0.1000000E-07      :
          :  -> SCF convergence          0.1000000E-05 Eh   :
          :  -> wf. convergence          0.1000000E-03 e    :
          :  Broyden damping             0.4000000          :
          ...................................................

 iter      E             dE          RMSdq      gap      omega  full diag
   1   -150.2597536 -0.150260E+03  0.504E+00    1.75       0.0  T
   2   -150.3049842 -0.452306E-01  0.326E+00    1.61       1.0  T
   3   -150.1352407  0.169744E+00  0.235E+00    1.28       1.0  T
   4   -150.4535761 -0.318335E+00  0.630E-01    1.47       1.0  T
   5   -150.4790232 -0.254471E-01  0.170E-01    1.34       1.0  T
   6   -150.4796864 -0.663193E-03  0.767E-02    1.39       1.0  T
   7   -150.4798908 -0.204331E-03  0.374E-02    1.38       1.0  T
   8   -150.4799512 -0.604651E-04  0.144E-02    1.39       1.0  T
   9   -150.4799580 -0.678857E-05  0.773E-03    1.39       1.4  T
  10   -150.4799610 -0.302203E-05  0.284E-03    1.39       3.9  T
  11   -150.4799613 -0.273367E-06  0.151E-03    1.39       7.3  T
  12   -150.4799614 -0.117706E-06  0.677E-04    1.39      16.2  T
  13   -150.4799614 -0.144836E-07  0.354E-04    1.39      31.0  T

   *** convergence criteria satisfied after 13 iterations ***

         #    Occupation            Energy/Eh            Energy/eV
      -------------------------------------------------------------
         1        2.0000           -0.7678651             -20.8947
       ...           ...                  ...                  ...
       129        2.0000           -0.4161505             -11.3240
       130        2.0000           -0.4117962             -11.2055
       131        2.0000           -0.4094363             -11.1413
       132        2.0000           -0.4058087             -11.0426
       133        2.0000           -0.4029864             -10.9658
       134        2.0000           -0.3930125             -10.6944
       135        2.0000           -0.3808504             -10.3635 (HOMO)
       136                         -0.3298625              -8.9760 (LUMO)
       137                         -0.3287469              -8.9457
       138                         -0.3149760              -8.5709
       139                         -0.3144306              -8.5561
       140                         -0.2821746              -7.6784
       ...                                ...                  ...
       264                          1.0943288              29.7782
      -------------------------------------------------------------
                  HL-Gap            0.0509879 Eh            1.3875 eV
             Fermi-level           -0.3554830 Eh           -9.6732 eV

 SCC (total)                   0 d,  0 h,  0 min,  0.321 sec
 SCC setup                      ...        0 min,  0.001 sec (  0.325%)
 Dispersion                     ...        0 min,  0.003 sec (  1.005%)
 classical contributions        ...        0 min,  0.000 sec (  0.087%)
 integral evaluation            ...        0 min,  0.031 sec (  9.817%)
 iterations                     ...        0 min,  0.173 sec ( 53.857%)
 molecular gradient             ...        0 min,  0.110 sec ( 34.427%)
 printout                       ...        0 min,  0.001 sec (  0.467%)

         :::::::::::::::::::::::::::::::::::::::::::::::::::::
         ::                     SUMMARY                     ::
         :::::::::::::::::::::::::::::::::::::::::::::::::::::
         :: total energy            -148.100713445768 Eh    ::
         :: gradient norm              0.257544151322 Eh/a0 ::
         :: HOMO-LUMO gap              1.387451274028 eV    ::
         ::.................................................::
         :: SCC energy              -150.479961448127 Eh    ::
         :: -> isotropic ES            0.108066046079 Eh    ::
         :: -> anisotropic ES          0.012606757282 Eh    ::
         :: -> anisotropic XC          0.112560543504 Eh    ::
         :: -> dispersion             -0.116470834109 Eh    ::
         :: repulsion energy           2.378997336827 Eh    ::
         :: add. restraining           0.000000000000 Eh    ::
         :: total charge              -0.000000000001 e     ::
         :::::::::::::::::::::::::::::::::::::::::::::::::::::

      ----------------------------------------------------------- 
     |                   =====================                   |
     |                        A N C O P T                        |
     |                   =====================                   |
     |               Approximate Normal Coordinate               |
     |                Rational Function Optimizer                |
      ----------------------------------------------------------- 

          ...................................................
          :                      SETUP                      :
          :.................................................:
          :   optimization level            normal          :
          :   max. optcycles                   249          :
          :   ANC micro-cycles                  20          :
          :   degrees of freedom               243          :
          :.................................................:
          :   RF solver                   davidson          :
          :   write xtbopt.log                true          :
          :   linear?                        false          :
          :   energy convergence         0.5000000E-05 Eh   :
          :   grad. convergence          0.1000000E-02 Eh/α :
          :   maximium RF displ.         1.0000000          :
          :   Hlow (freq-cutoff)         0.1000000E-01      :
          :   Hmax (freq-cutoff)         5.0000000          :
          :   S6 in model hess.         20.0000000          :
          ...................................................

generating ANC from model Hessian ...
Using Lindh-Hessian (1995)
 Shifting diagonal of input Hessian by   1.011454749909699E-002
 Lowest  eigenvalues of input Hessian
    0.010000    0.000000    0.000000    0.000000    0.000000    0.000000
    0.000000    0.010115    0.010130    0.010195    0.010217    0.010231
    0.010343    0.010423    0.010650    0.010829    0.010917    0.011043
 Highest eigenvalues
    2.147863    2.149852    2.494595    2.509547    2.542373    2.570260
 

........................................................................
.............................. CYCLE    1 ..............................
........................................................................
   1   -150.4799615 -0.150480E+03  0.149E-04    1.39       0.0  T
   2   -150.4799615 -0.140744E-09  0.118E-04    1.39      92.9  T
   3   -150.4799615 -0.858563E-09  0.555E-05    1.39     197.9  T
     SCC iter.                  ...        0 min,  0.041 sec
     gradient                   ...        0 min,  0.108 sec
 * total energy  :  -148.1007134 Eh     change       -0.4208886E-08 Eh
   gradient norm :     0.2575465 Eh/α   predicted     0.0000000E+00 (-100.00%)
   displ. norm   :     0.3539336 α      lambda       -0.5484934E-01
   maximum displ.:     0.1146680 α      in ANC's #118, #119, #91, ...

........................................................................
.............................. CYCLE    2 ..............................
........................................................................
   1   -150.5993883 -0.150599E+03  0.321E-01    1.35       0.0  T
   2   -150.6005074 -0.111914E-02  0.177E-01    1.39       1.0  T
   3   -150.6003791  0.128380E-03  0.109E-01    1.39       1.0  T
   4   -150.6007716 -0.392571E-03  0.399E-02    1.38       1.0  T
   5   -150.6008226 -0.509477E-04  0.181E-02    1.39       1.0  T
   6   -150.6008452 -0.225772E-04  0.834E-03    1.39       1.3  T
   7   -150.6008479 -0.270802E-05  0.333E-03    1.39       3.3  T
   8   -150.6008484 -0.569245E-06  0.128E-03    1.39       8.6  T
   9   -150.6008485 -0.364365E-07  0.732E-04    1.39      15.0  T
  10   -150.6008485 -0.116039E-07  0.330E-04    1.39      33.3  T
     SCC iter.                  ...        0 min,  0.127 sec
     gradient                   ...        0 min,  0.109 sec
 * total energy  :  -148.1396092 Eh     change       -0.3889575E-01 Eh
   gradient norm :     0.1190725 Eh/α   predicted    -0.3088122E-01 ( -20.61%)
   displ. norm   :     0.3744495 α      lambda       -0.2159191E-01
   maximum displ.:     0.0938239 α      in ANC's #42, #45, #118, ...

........................................................................
.............................. CYCLE    3 ..............................
........................................................................
   1   -150.6528014 -0.150653E+03  0.293E-01    1.32       0.0  T
   2   -150.6536845 -0.883098E-03  0.161E-01    1.36       1.0  T
   3   -150.6536443  0.401807E-04  0.103E-01    1.36       1.0  T
   4   -150.6540341 -0.389820E-03  0.301E-02    1.36       1.0  T
   5   -150.6540546 -0.205035E-04  0.133E-02    1.36       1.0  T
   6   -150.6540631 -0.852204E-05  0.616E-03    1.36       1.8  T
   7   -150.6540642 -0.108763E-05  0.296E-03    1.36       3.7  T
   8   -150.6540648 -0.603902E-06  0.105E-03    1.36      10.5  T
   9   -150.6540648 -0.251939E-07  0.620E-04    1.36      17.7  T
  10   -150.6540648 -0.110556E-07  0.225E-04    1.36      48.8  T
     SCC iter.                  ...        0 min,  0.127 sec
     gradient                   ...        0 min,  0.108 sec
 * total energy  :  -148.1516793 Eh     change       -0.1207005E-01 Eh
   gradient norm :     0.0316583 Eh/α   predicted    -0.1230969E-01 (   1.99%)
   displ. norm   :     0.4818391 α      lambda       -0.6410198E-02
   maximum displ.:     0.2348417 α      in ANC's #29, #33, #31, ...

........................................................................
.............................. CYCLE    4 ..............................
........................................................................
   1   -150.6441138 -0.150644E+03  0.408E-01    1.33       0.0  T
   2   -150.6443292 -0.215436E-03  0.227E-01    1.35       1.0  T
   3   -150.6434065  0.922683E-03  0.109E-01    1.34       1.0  T
   4   -150.6444767 -0.107018E-02  0.184E-02    1.35       1.0  T
   5   -150.6444936 -0.169071E-04  0.102E-02    1.35       1.1  T
   6   -150.6444996 -0.602247E-05  0.377E-03    1.35       2.9  T
   7   -150.6444999 -0.293543E-06  0.152E-03    1.35       7.2  T
   8   -150.6445001 -0.117033E-06  0.567E-04    1.35      19.4  T
   9   -150.6445001 -0.553086E-08  0.274E-04    1.35      40.1  T
     SCC iter.                  ...        0 min,  0.117 sec
     gradient                   ...        0 min,  0.109 sec
 * total energy  :  -148.1508626 Eh     change        0.8166602E-03 Eh
   gradient norm :     0.0592165 Eh/α   predicted    -0.3949309E-02 (-583.59%)
   displ. norm   :     0.3329352 α      lambda       -0.8820223E-02
   maximum displ.:     0.1159231 α      in ANC's #13, #24, #33, ...

........................................................................
.............................. CYCLE    5 ..............................
........................................................................
   1   -150.6662181 -0.150666E+03  0.317E-01    1.35       0.0  T
   2   -150.6663645 -0.146419E-03  0.176E-01    1.35       1.0  T
   3   -150.6662220  0.142475E-03  0.549E-02    1.35       1.0  T
   4   -150.6664265 -0.204428E-03  0.767E-03    1.35       1.4  T
   5   -150.6664275 -0.101898E-05  0.480E-03    1.35       2.3  T
   6   -150.6664286 -0.108936E-05  0.243E-03    1.35       4.5  T
   7   -150.6664289 -0.314207E-06  0.846E-04    1.35      13.0  T
   8   -150.6664289 -0.350208E-07  0.345E-04    1.35      31.8  T
     SCC iter.                  ...        0 min,  0.104 sec
     gradient                   ...        0 min,  0.109 sec
 * total energy  :  -148.1550296 Eh     change       -0.4166985E-02 Eh
   gradient norm :     0.0264746 Eh/α   predicted    -0.4898958E-02 (  17.57%)
   displ. norm   :     0.2582220 α      lambda       -0.1491121E-02
   maximum displ.:     0.0983389 α      in ANC's #8, #22, #12, ...

........................................................................
.............................. CYCLE    6 ..............................
........................................................................
   1   -150.6600761 -0.150660E+03  0.173E-01    1.35       0.0  T
   2   -150.6601083 -0.321407E-04  0.961E-02    1.35       1.0  T
   3   -150.6600458  0.624927E-04  0.307E-02    1.35       1.0  T
   4   -150.6601241 -0.783494E-04  0.560E-03    1.35       2.0  T
   5   -150.6601253 -0.114248E-05  0.308E-03    1.35       3.6  T
   6   -150.6601258 -0.512915E-06  0.126E-03    1.35       8.7  T
   7   -150.6601258 -0.635601E-07  0.500E-04    1.35      21.9  T
   8   -150.6601259 -0.108490E-07  0.194E-04    1.35      56.5  T
     SCC iter.                  ...        0 min,  0.104 sec
     gradient                   ...        0 min,  0.108 sec
 * total energy  :  -148.1557103 Eh     change       -0.6807110E-03 Eh
   gradient norm :     0.0130143 Eh/α   predicted    -0.7952755E-03 (  16.83%)
   displ. norm   :     0.4359298 α      lambda       -0.2091905E-02
   maximum displ.:     0.1455293 α      in ANC's #9, #29, #12, ...

........................................................................
.............................. CYCLE    7 ..............................
........................................................................
   1   -150.6553489 -0.150655E+03  0.183E-01    1.36       0.0  T
   2   -150.6553884 -0.395004E-04  0.103E-01    1.36       1.0  T
   3   -150.6553031  0.852522E-04  0.339E-02    1.35       1.0  T
   4   -150.6554059 -0.102735E-03  0.756E-03    1.36       1.5  T
   5   -150.6554084 -0.249267E-05  0.386E-03    1.36       2.8  T
   6   -150.6554090 -0.602723E-06  0.174E-03    1.36       6.3  T
   7   -150.6554091 -0.111029E-06  0.734E-04    1.36      14.9  T
   8   -150.6554091 -0.267547E-07  0.287E-04    1.36      38.2  T
     SCC iter.                  ...        0 min,  0.104 sec
     gradient                   ...        0 min,  0.110 sec
 * total energy  :  -148.1560516 Eh     change       -0.3413261E-03 Eh
   gradient norm :     0.0368803 Eh/α   predicted    -0.1244721E-02 ( 264.67%)
   displ. norm   :     0.2255171 α      lambda       -0.1846681E-02
   maximum displ.:     0.0696368 α      in ANC's #9, #12, #22, ...

........................................................................
.............................. CYCLE    8 ..............................
........................................................................
   1   -150.6653723 -0.150665E+03  0.107E-01    1.36       0.0  T
   2   -150.6653872 -0.149104E-04  0.601E-02    1.36       1.0  T
   3   -150.6653353  0.519576E-04  0.246E-02    1.36       1.0  T
   4   -150.6653964 -0.610893E-04  0.426E-03    1.36       2.6  T
   5   -150.6653970 -0.680101E-06  0.247E-03    1.36       4.4  T
   6   -150.6653973 -0.293408E-06  0.109E-03    1.36      10.1  T
   7   -150.6653974 -0.469855E-07  0.499E-04    1.36      22.0  T
   8   -150.6653974 -0.133296E-07  0.184E-04    1.36      59.6  T
     SCC iter.                  ...        0 min,  0.105 sec
     gradient                   ...        0 min,  0.109 sec
 * total energy  :  -148.1570725 Eh     change       -0.1020886E-02 Eh
   gradient norm :     0.0103032 Eh/α   predicted    -0.9703006E-03 (  -4.96%)
   displ. norm   :     0.3763820 α      lambda       -0.1471220E-02
   maximum displ.:     0.1465541 α      in ANC's #12, #9, #8, ...

........................................................................
.............................. CYCLE    9 ..............................
........................................................................
   1   -150.6708811 -0.150671E+03  0.266E-01    1.36       0.0  T
   2   -150.6709539 -0.728180E-04  0.148E-01    1.36       1.0  T
   3   -150.6708820  0.719831E-04  0.378E-02    1.36       1.0  T
   4   -150.6709881 -0.106099E-03  0.648E-03    1.36       1.7  T
   5   -150.6709881 -0.788876E-07  0.442E-03    1.36       2.5  T
   6   -150.6709894 -0.128032E-05  0.142E-03    1.36       7.7  T
   7   -150.6709895 -0.856810E-07  0.552E-04    1.36      19.9  T
   8   -150.6709895 -0.130825E-07  0.258E-04    1.36      42.5  T
     SCC iter.                  ...        0 min,  0.102 sec
     gradient                   ...        0 min,  0.108 sec
 * total energy  :  -148.1564189 Eh     change        0.6535684E-03 Eh
   gradient norm :     0.0284598 Eh/α   predicted    -0.8398218E-03 (-228.50%)
   displ. norm   :     0.1990348 α      lambda       -0.2438700E-02
   maximum displ.:     0.0707468 α      in ANC's #9, #11, #25, ...

........................................................................
.............................. CYCLE   10 ..............................
........................................................................
   1   -150.6730904 -0.150673E+03  0.152E-01    1.37       0.0  T
   2   -150.6731159 -0.255089E-04  0.845E-02    1.37       1.0  T
   3   -150.6730862  0.296892E-04  0.231E-02    1.36       1.0  T
   4   -150.6731274 -0.411504E-04  0.409E-03    1.37       2.7  T
   5   -150.6731276 -0.280028E-06  0.260E-03    1.37       4.2  T
   6   -150.6731280 -0.364234E-06  0.110E-03    1.37       9.9  T
   7   -150.6731280 -0.543043E-07  0.349E-04    1.37      31.4  T
   8   -150.6731281 -0.567721E-08  0.153E-04    1.37      72.0  T
     SCC iter.                  ...        0 min,  0.104 sec
     gradient                   ...        0 min,  0.109 sec
 * total energy  :  -148.1578340 Eh     change       -0.1415116E-02 Eh
   gradient norm :     0.0089881 Eh/α   predicted    -0.1267661E-02 ( -10.42%)
   displ. norm   :     0.3443148 α      lambda       -0.7288605E-03
   maximum displ.:     0.1503182 α      in ANC's #9, #12, #8, ...

........................................................................
.............................. CYCLE   11 ..............................
........................................................................
   1   -150.6666937 -0.150667E+03  0.155E-01    1.37       0.0  T
   2   -150.6667157 -0.219582E-04  0.863E-02    1.37       1.0  T
   3   -150.6666515  0.641948E-04  0.307E-02    1.37       1.0  T
   4   -150.6667296 -0.781383E-04  0.449E-03    1.37       2.4  T
   5   -150.6667302 -0.539332E-06  0.274E-03    1.37       4.0  T
   6   -150.6667305 -0.357406E-06  0.836E-04    1.37      13.1  T
   7   -150.6667305 -0.299638E-07  0.315E-04    1.37      34.8  T
     SCC iter.                  ...        0 min,  0.090 sec
     gradient                   ...        0 min,  0.109 sec
 * total energy  :  -148.1580068 Eh     change       -0.1727120E-03 Eh
   gradient norm :     0.0151185 Eh/α   predicted    -0.4076347E-03 ( 136.02%)
   displ. norm   :     0.4165225 α      lambda       -0.1117166E-02
   maximum displ.:     0.2092044 α      in ANC's #9, #12, #7, ...

........................................................................
.............................. CYCLE   12 ..............................
........................................................................
   1   -150.6684675 -0.150668E+03  0.119E-01    1.38       0.0  T
   2   -150.6684800 -0.124974E-04  0.670E-02    1.37       1.0  T
   3   -150.6684566  0.233349E-04  0.185E-02    1.38       1.0  T
   4   -150.6684859 -0.293100E-04  0.359E-03    1.38       3.1  T
   5   -150.6684862 -0.228399E-06  0.238E-03    1.38       4.6  T
   6   -150.6684864 -0.273363E-06  0.936E-04    1.38      11.7  T
   7   -150.6684865 -0.398535E-07  0.310E-04    1.38      35.5  T
     SCC iter.                  ...        0 min,  0.090 sec
     gradient                   ...        0 min,  0.108 sec
 * total energy  :  -148.1587181 Eh     change       -0.7112965E-03 Eh
   gradient norm :     0.0115350 Eh/α   predicted    -0.6554959E-03 (  -7.84%)
   displ. norm   :     0.4440640 α      lambda       -0.6678155E-03
   maximum displ.:     0.2253670 α      in ANC's #9, #12, #7, ...

........................................................................
.............................. CYCLE   13 ..............................
........................................................................
   1   -150.6711214 -0.150671E+03  0.963E-02    1.38       0.0  T
   2   -150.6711286 -0.721723E-05  0.550E-02    1.38       1.0  T
   3   -150.6711120  0.166268E-04  0.153E-02    1.38       1.0  T
   4   -150.6711321 -0.201033E-04  0.346E-03    1.38       3.2  T
   5   -150.6711324 -0.358187E-06  0.198E-03    1.38       5.5  T
   6   -150.6711326 -0.166784E-06  0.794E-04    1.38      13.8  T
   7   -150.6711326 -0.338846E-07  0.278E-04    1.38      39.5  T
     SCC iter.                  ...        0 min,  0.091 sec
     gradient                   ...        0 min,  0.109 sec
 * total energy  :  -148.1592556 Eh     change       -0.5375390E-03 Eh
   gradient norm :     0.0083544 Eh/α   predicted    -0.3997548E-03 ( -25.63%)
   displ. norm   :     0.6298969 α      lambda       -0.7473995E-03
   maximum displ.:     0.3235629 α      in ANC's #9, #12, #7, ...

........................................................................
.............................. CYCLE   14 ..............................
........................................................................
   1   -150.6710551 -0.150671E+03  0.117E-01    1.39       0.0  T
   2   -150.6710635 -0.837942E-05  0.680E-02    1.39       1.0  T
   3   -150.6710274  0.360823E-04  0.208E-02    1.39       1.0  T
   4   -150.6710684 -0.410091E-04  0.413E-03    1.39       2.7  T
   5   -150.6710690 -0.612704E-06  0.241E-03    1.39       4.6  T
   6   -150.6710692 -0.224759E-06  0.102E-03    1.39      10.8  T
   7   -150.6710693 -0.469329E-07  0.366E-04    1.39      30.0  T
   8   -150.6710693 -0.439374E-08  0.167E-04    1.39      65.7  T
     SCC iter.                  ...        0 min,  0.102 sec
     gradient                   ...        0 min,  0.108 sec
 * total energy  :  -148.1598690 Eh     change       -0.6134347E-03 Eh
   gradient norm :     0.0066521 Eh/α   predicted    -0.5219758E-03 ( -14.91%)
   displ. norm   :     0.6650278 α      lambda       -0.6601322E-03
   maximum displ.:     0.3461470 α      in ANC's #9, #12, #7, ...

........................................................................
.............................. CYCLE   15 ..............................
........................................................................
   1   -150.6677141 -0.150668E+03  0.130E-01    1.40       0.0  T
   2   -150.6677248 -0.107287E-04  0.748E-02    1.40       1.0  T
   3   -150.6677073  0.175166E-04  0.154E-02    1.40       1.0  T
   4   -150.6677294 -0.221234E-04  0.418E-03    1.40       2.6  T
   5   -150.6677298 -0.430892E-06  0.249E-03    1.40       4.4  T
   6   -150.6677301 -0.249912E-06  0.101E-03    1.40      10.9  T
   7   -150.6677301 -0.596891E-07  0.371E-04    1.40      29.5  T
   8   -150.6677302 -0.561201E-08  0.182E-04    1.40      60.3  T
     SCC iter.                  ...        0 min,  0.104 sec
     gradient                   ...        0 min,  0.109 sec
 * total energy  :  -148.1603929 Eh     change       -0.5239039E-03 Eh
   gradient norm :     0.0079206 Eh/α   predicted    -0.4760433E-03 (  -9.14%)
   displ. norm   :     0.6215009 α      lambda       -0.5902024E-03
   maximum displ.:     0.3240134 α      in ANC's #9, #12, #7, ...

........................................................................
.............................. CYCLE   16 ..............................
........................................................................
   1   -150.6712215 -0.150671E+03  0.108E-01    1.41       0.0  T
   2   -150.6712276 -0.603096E-05  0.631E-02    1.41       1.0  T
   3   -150.6711912  0.364066E-04  0.217E-02    1.41       1.0  T
   4   -150.6712318 -0.406651E-04  0.342E-03    1.41       3.2  T
   5   -150.6712322 -0.418665E-06  0.210E-03    1.41       5.2  T
   6   -150.6712324 -0.200826E-06  0.915E-04    1.41      12.0  T
   7   -150.6712325 -0.327787E-07  0.352E-04    1.41      31.2  T
     SCC iter.                  ...        0 min,  0.090 sec
     gradient                   ...        0 min,  0.109 sec
 * total energy  :  -148.1608210 Eh     change       -0.4280403E-03 Eh
   gradient norm :     0.0118056 Eh/α   predicted    -0.4090940E-03 (  -4.43%)
   displ. norm   :     0.6024051 α      lambda       -0.4877968E-03
   maximum displ.:     0.3081338 α      in ANC's #9, #12, #7, ...

........................................................................
.............................. CYCLE   17 ..............................
........................................................................
   1   -150.6680246 -0.150668E+03  0.117E-01    1.41       0.0  T
   2   -150.6680322 -0.757826E-05  0.673E-02    1.41       1.0  T
   3   -150.6680197  0.124819E-04  0.134E-02    1.41       1.0  T
   4   -150.6680359 -0.161099E-04  0.331E-03    1.41       3.3  T
   5   -150.6680360 -0.112493E-06  0.202E-03    1.41       5.4  T
   6   -150.6680362 -0.194541E-06  0.805E-04    1.41      13.6  T
   7   -150.6680362 -0.390043E-07  0.325E-04    1.41      33.7  T
     SCC iter.                  ...        0 min,  0.090 sec
     gradient                   ...        0 min,  0.108 sec
 * total energy  :  -148.1611943 Eh     change       -0.3733360E-03 Eh
   gradient norm :     0.0068472 Eh/α   predicted    -0.3324084E-03 ( -10.96%)
   displ. norm   :     0.5062670 α      lambda       -0.4496455E-03
   maximum displ.:     0.2363980 α      in ANC's #9, #7, #5, ...

........................................................................
.............................. CYCLE   18 ..............................
........................................................................
   1   -150.6743806 -0.150674E+03  0.990E-02    1.42       0.0  T
   2   -150.6743872 -0.669672E-05  0.571E-02    1.42       1.0  T
   3   -150.6743646  0.226377E-04  0.161E-02    1.42       1.0  T
   4   -150.6743904 -0.257849E-04  0.386E-03    1.42       2.8  T
   5   -150.6743911 -0.713723E-06  0.204E-03    1.42       5.4  T
   6   -150.6743913 -0.176934E-06  0.826E-04    1.42      13.3  T
   7   -150.6743913 -0.285830E-07  0.361E-04    1.42      30.4  T
     SCC iter.                  ...        0 min,  0.090 sec
     gradient                   ...        0 min,  0.109 sec
 * total energy  :  -148.1615096 Eh     change       -0.3153375E-03 Eh
   gradient norm :     0.0068876 Eh/α   predicted    -0.2824523E-03 ( -10.43%)
   displ. norm   :     0.5949473 α      lambda       -0.4290684E-03
   maximum displ.:     0.2702430 α      in ANC's #9, #7, #5, ...

........................................................................
.............................. CYCLE   19 ..............................
........................................................................
   1   -150.6715541 -0.150672E+03  0.115E-01    1.42       0.0  T
   2   -150.6715627 -0.860570E-05  0.665E-02    1.42       1.0  T
   3   -150.6715240  0.386632E-04  0.208E-02    1.42       1.0  T
   4   -150.6715675 -0.434320E-04  0.398E-03    1.42       2.8  T
   5   -150.6715682 -0.720088E-06  0.243E-03    1.42       4.5  T
   6   -150.6715685 -0.319169E-06  0.106E-03    1.42      10.3  T
   7   -150.6715685 -0.411879E-07  0.434E-04    1.42      25.3  T
   8   -150.6715686 -0.919798E-08  0.193E-04    1.42      56.8  T
     SCC iter.                  ...        0 min,  0.104 sec
     gradient                   ...        0 min,  0.109 sec
 * total energy  :  -148.1617607 Eh     change       -0.2510282E-03 Eh
   gradient norm :     0.0101770 Eh/α   predicted    -0.2904770E-03 (  15.71%)
   displ. norm   :     0.3426656 α      lambda       -0.2973527E-03
   maximum displ.:     0.1447762 α      in ANC's #5, #3, #7, ...

........................................................................
.............................. CYCLE   20 ..............................
........................................................................
   1   -150.6739799 -0.150674E+03  0.665E-02    1.42       0.0  T
   2   -150.6739826 -0.265615E-05  0.384E-02    1.42       1.0  T
   3   -150.6739713  0.112622E-04  0.116E-02    1.43       1.0  T
   4   -150.6739841 -0.128461E-04  0.250E-03    1.42       4.4  T
   5   -150.6739844 -0.228111E-06  0.142E-03    1.42       7.7  T
   6   -150.6739845 -0.915281E-07  0.505E-04    1.42      21.7  T
   7   -150.6739845 -0.111235E-07  0.207E-04    1.42      53.0  T
     SCC iter.                  ...        0 min,  0.092 sec
     gradient                   ...        0 min,  0.108 sec
 * total energy  :  -148.1619970 Eh     change       -0.2363241E-03 Eh
   gradient norm :     0.0065852 Eh/α   predicted    -0.1661379E-03 ( -29.70%)
   displ. norm   :     0.4660250 α      lambda       -0.3669675E-03
   maximum displ.:     0.2063450 α      in ANC's #5, #3, #7, ...
 * RMSD in coord.:     0.7265297 α      energy gain  -0.6128355E-01 Eh

generating ANC from model Hessian ...
Using Lindh-Hessian (1995)
 Shifting diagonal of input Hessian by   1.009671833608739E-002
 Lowest  eigenvalues of input Hessian
    0.010000    0.010085    0.000000    0.000000    0.000000    0.000000
    0.000000    0.000000    0.010119    0.010124    0.010206    0.010228
    0.010321    0.010401    0.010441    0.010715    0.010922    0.010970
 Highest eigenvalues
    2.297563    2.299398    2.605478    2.607891    2.658434    2.663067
 

........................................................................
.............................. CYCLE   21 ..............................
........................................................................
   1   -150.6764787 -0.150676E+03  0.933E-02    1.42       0.0  T
   2   -150.6764848 -0.616855E-05  0.539E-02    1.42       1.0  T
   3   -150.6764681  0.167725E-04  0.149E-02    1.43       1.0  T
   4   -150.6764873 -0.192584E-04  0.354E-03    1.43       3.1  T
   5   -150.6764879 -0.539411E-06  0.186E-03    1.43       5.9  T
   6   -150.6764880 -0.119014E-06  0.927E-04    1.43      11.8  T
   7   -150.6764880 -0.459503E-07  0.314E-04    1.43      34.9  T
     SCC iter.                  ...        0 min,  0.090 sec
     gradient                   ...        0 min,  0.108 sec
 * total energy  :  -148.1622757 Eh     change       -0.2786699E-03 Eh
   gradient norm :     0.0071969 Eh/α   predicted     0.0000000E+00 (-100.00%)
   displ. norm   :     0.0801277 α      lambda       -0.1352543E-03
   maximum displ.:     0.0290378 α      in ANC's #6, #30, #13, ...

........................................................................
.............................. CYCLE   22 ..............................
........................................................................
   1   -150.6745203 -0.150675E+03  0.457E-02    1.42       0.0  T
   2   -150.6745231 -0.272467E-05  0.255E-02    1.42       1.0  T
   3   -150.6745199  0.319034E-05  0.680E-03    1.42       1.6  T
   4   -150.6745239 -0.405262E-05  0.175E-03    1.42       6.3  T
   5   -150.6745241 -0.211064E-06  0.823E-04    1.42      13.3  T
   6   -150.6745242 -0.289862E-07  0.386E-04    1.42      28.4  T
     SCC iter.                  ...        0 min,  0.078 sec
     gradient                   ...        0 min,  0.108 sec
 * total energy  :  -148.1623459 Eh     change       -0.7027838E-04 Eh
   gradient norm :     0.0035718 Eh/α   predicted    -0.6806161E-04 (  -3.15%)
   displ. norm   :     0.2434382 α      lambda       -0.3383732E-03
   maximum displ.:     0.0932087 α      in ANC's #13, #6, #4, ...

........................................................................
.............................. CYCLE   23 ..............................
........................................................................
   1   -150.6696914 -0.150670E+03  0.917E-02    1.42       0.0  T
   2   -150.6697045 -0.130868E-04  0.520E-02    1.42       1.0  T
   3   -150.6696868  0.176996E-04  0.162E-02    1.42       1.0  T
   4   -150.6697078 -0.209524E-04  0.438E-03    1.42       2.5  T
   5   -150.6697091 -0.131133E-05  0.205E-03    1.42       5.4  T
   6   -150.6697093 -0.200801E-06  0.982E-04    1.42      11.2  T
   7   -150.6697093 -0.361454E-07  0.385E-04    1.42      28.5  T
     SCC iter.                  ...        0 min,  0.090 sec
     gradient                   ...        0 min,  0.109 sec
 * total energy  :  -148.1624339 Eh     change       -0.8795982E-04 Eh
   gradient norm :     0.0133477 Eh/α   predicted    -0.1792130E-03 ( 103.74%)
   displ. norm   :     0.0838007 α      lambda       -0.1936403E-03
   maximum displ.:     0.0331633 α      in ANC's #6, #13, #2, ...

........................................................................
.............................. CYCLE   24 ..............................
........................................................................
   1   -150.6725227 -0.150673E+03  0.422E-02    1.42       0.0  T
   2   -150.6725250 -0.235967E-05  0.237E-02    1.42       1.0  T
   3   -150.6725227  0.229093E-05  0.580E-03    1.42       1.9  T
   4   -150.6725256 -0.286221E-05  0.183E-03    1.42       6.0  T
   5   -150.6725258 -0.260877E-06  0.742E-04    1.42      14.8  T
   6   -150.6725259 -0.204077E-07  0.328E-04    1.42      33.4  T
     SCC iter.                  ...        0 min,  0.079 sec
     gradient                   ...        0 min,  0.109 sec
 * total energy  :  -148.1625496 Eh     change       -0.1156989E-03 Eh
   gradient norm :     0.0072944 Eh/α   predicted    -0.9750338E-04 ( -15.73%)
   displ. norm   :     0.2379238 α      lambda       -0.4036526E-03
   maximum displ.:     0.0989088 α      in ANC's #6, #1, #4, ...

........................................................................
.............................. CYCLE   25 ..............................
........................................................................
   1   -150.6783831 -0.150678E+03  0.127E-01    1.42       0.0  T
   2   -150.6784078 -0.247586E-04  0.710E-02    1.42       1.0  T
   3   -150.6783984  0.937772E-05  0.138E-02    1.42       1.0  T
   4   -150.6784136 -0.151829E-04  0.526E-03    1.42       2.1  T
   5   -150.6784155 -0.183712E-05  0.224E-03    1.42       4.9  T
   6   -150.6784157 -0.218552E-06  0.104E-03    1.42      10.5  T
   7   -150.6784157 -0.408778E-07  0.404E-04    1.42      27.1  T
   8   -150.6784157 -0.738331E-08  0.152E-04    1.42      72.1  T
     SCC iter.                  ...        0 min,  0.104 sec
     gradient                   ...        0 min,  0.109 sec
 * total energy  :  -148.1624963 Eh     change        0.5332614E-04 Eh
   gradient norm :     0.0143677 Eh/α   predicted    -0.2132546E-03 (-499.91%)
   displ. norm   :     0.1356537 α      lambda       -0.4506984E-03
   maximum displ.:     0.0495985 α      in ANC's #9, #6, #13, ...

........................................................................
.............................. CYCLE   26 ..............................
........................................................................
   1   -150.6760675 -0.150676E+03  0.760E-02    1.42       0.0  T
   2   -150.6760747 -0.718697E-05  0.424E-02    1.42       1.0  T
   3   -150.6760714  0.330057E-05  0.800E-03    1.42       1.4  T
   4   -150.6760768 -0.542227E-05  0.274E-03    1.42       4.0  T
   5   -150.6760773 -0.471931E-06  0.122E-03    1.42       9.0  T
   6   -150.6760774 -0.555831E-07  0.540E-04    1.42      20.3  T
   7   -150.6760774 -0.126841E-07  0.216E-04    1.42      50.8  T
     SCC iter.                  ...        0 min,  0.091 sec
     gradient                   ...        0 min,  0.109 sec
 * total energy  :  -148.1627430 Eh     change       -0.2466952E-03 Eh
   gradient norm :     0.0057157 Eh/α   predicted    -0.2294976E-03 (  -6.97%)
   displ. norm   :     0.2511933 α      lambda       -0.3846393E-03
   maximum displ.:     0.0998313 α      in ANC's #6, #13, #4, ...

........................................................................
.............................. CYCLE   27 ..............................
........................................................................
   1   -150.6692543 -0.150669E+03  0.144E-01    1.42       0.0  T
   2   -150.6692759 -0.216491E-04  0.800E-02    1.42       1.0  T
   3   -150.6692765 -0.619614E-06  0.944E-03    1.42       1.2  T
   4   -150.6692830 -0.643539E-05  0.382E-03    1.42       2.9  T
   5   -150.6692835 -0.561721E-06  0.205E-03    1.42       5.4  T
   6   -150.6692837 -0.204544E-06  0.830E-04    1.42      13.2  T
   7   -150.6692838 -0.414746E-07  0.325E-04    1.42      33.8  T
     SCC iter.                  ...        0 min,  0.092 sec
     gradient                   ...        0 min,  0.109 sec
 * total energy  :  -148.1625439 Eh     change        0.1991003E-03 Eh
   gradient norm :     0.0135599 Eh/α   predicted    -0.2044567E-03 (-202.69%)
   displ. norm   :     0.1240002 α      lambda       -0.6809767E-03
   maximum displ.:     0.0439537 α      in ANC's #30, #6, #8, ...

........................................................................
.............................. CYCLE   28 ..............................
........................................................................
   1   -150.6740588 -0.150674E+03  0.102E-01    1.42       0.0  T
   2   -150.6740699 -0.110522E-04  0.563E-02    1.42       1.0  T
   3   -150.6740706 -0.748439E-06  0.631E-03    1.42       1.7  T
   4   -150.6740737 -0.305897E-05  0.249E-03    1.42       4.4  T
   5   -150.6740739 -0.246200E-06  0.129E-03    1.42       8.5  T
   6   -150.6740740 -0.696002E-07  0.522E-04    1.42      21.0  T
   7   -150.6740740 -0.164213E-07  0.191E-04    1.42      57.5  T
     SCC iter.                  ...        0 min,  0.090 sec
     gradient                   ...        0 min,  0.109 sec
 * total energy  :  -148.1629254 Eh     change       -0.3815178E-03 Eh
   gradient norm :     0.0029666 Eh/α   predicted    -0.3457283E-03 (  -9.38%)
   displ. norm   :     0.2329869 α      lambda       -0.1216941E-03
   maximum displ.:     0.1094718 α      in ANC's #6, #4, #3, ...

........................................................................
.............................. CYCLE   29 ..............................
........................................................................
   1   -150.6740672 -0.150674E+03  0.478E-02    1.42       0.0  T
   2   -150.6740683 -0.111254E-05  0.274E-02    1.42       1.0  T
   3   -150.6740676  0.651558E-06  0.378E-03    1.42       2.9  T
   4   -150.6740687 -0.108661E-05  0.146E-03    1.42       7.5  T
   5   -150.6740687 -0.396026E-07  0.770E-04    1.42      14.3  T
   6   -150.6740688 -0.323481E-07  0.240E-04    1.42      45.7  T
     SCC iter.                  ...        0 min,  0.078 sec
     gradient                   ...        0 min,  0.109 sec
 * total energy  :  -148.1630326 Eh     change       -0.1071849E-03 Eh
   gradient norm :     0.0026649 Eh/α   predicted    -0.6415214E-04 ( -40.15%)
   displ. norm   :     0.5225288 α      lambda       -0.2645980E-03
   maximum displ.:     0.2458166 α      in ANC's #6, #4, #3, ...

........................................................................
.............................. CYCLE   30 ..............................
........................................................................
   1   -150.6738417 -0.150674E+03  0.109E-01    1.41       0.0  T
   2   -150.6738480 -0.629400E-05  0.623E-02    1.41       1.0  T
   3   -150.6738480  0.842287E-07  0.624E-03    1.41       1.8  T
   4   -150.6738503 -0.229798E-05  0.318E-03    1.41       3.4  T
   5   -150.6738505 -0.293250E-06  0.123E-03    1.41       8.9  T
   6   -150.6738506 -0.890555E-07  0.442E-04    1.41      24.8  T
   7   -150.6738506 -0.827737E-08  0.217E-04    1.41      50.6  T
     SCC iter.                  ...        0 min,  0.092 sec
     gradient                   ...        0 min,  0.109 sec
 * total energy  :  -148.1632192 Eh     change       -0.1866348E-03 Eh
   gradient norm :     0.0055090 Eh/α   predicted    -0.1684259E-03 (  -9.76%)
   displ. norm   :     0.6249129 α      lambda       -0.3619496E-03
   maximum displ.:     0.2953083 α      in ANC's #6, #4, #3, ...

........................................................................
.............................. CYCLE   31 ..............................
........................................................................
   1   -150.6737474 -0.150674E+03  0.136E-01    1.41       0.0  T
   2   -150.6737607 -0.132386E-04  0.770E-02    1.41       1.0  T
   3   -150.6737579  0.276411E-05  0.104E-02    1.41       1.1  T
   4   -150.6737657 -0.776965E-05  0.391E-03    1.41       2.8  T
   5   -150.6737659 -0.224936E-06  0.176E-03    1.41       6.2  T
   6   -150.6737661 -0.155476E-06  0.773E-04    1.41      14.2  T
   7   -150.6737661 -0.411472E-07  0.330E-04    1.41      33.3  T
     SCC iter.                  ...        0 min,  0.090 sec
     gradient                   ...        0 min,  0.109 sec
 * total energy  :  -148.1633868 Eh     change       -0.1675988E-03 Eh
   gradient norm :     0.0076340 Eh/α   predicted    -0.2516490E-03 (  50.15%)
   displ. norm   :     0.3684194 α      lambda       -0.2070621E-03
   maximum displ.:     0.1799152 α      in ANC's #6, #4, #3, ...

........................................................................
.............................. CYCLE   32 ..............................
........................................................................
   1   -150.6734592 -0.150673E+03  0.690E-02    1.41       0.0  T
   2   -150.6734617 -0.246758E-05  0.395E-02    1.41       1.0  T
   3   -150.6734608  0.880195E-06  0.516E-03    1.41       2.1  T
   4   -150.6734625 -0.172070E-05  0.211E-03    1.41       5.2  T
   5   -150.6734626 -0.979119E-07  0.974E-04    1.41      11.3  T
   6   -150.6734626 -0.357356E-07  0.454E-04    1.41      24.2  T
     SCC iter.                  ...        0 min,  0.078 sec
     gradient                   ...        0 min,  0.109 sec
 * total energy  :  -148.1635493 Eh     change       -0.1624926E-03 Eh
   gradient norm :     0.0048281 Eh/α   predicted    -0.1175868E-03 ( -27.64%)
   displ. norm   :     0.4198635 α      lambda       -0.2310925E-03
   maximum displ.:     0.2133978 α      in ANC's #6, #4, #3, ...

........................................................................
.............................. CYCLE   33 ..............................
........................................................................
   1   -150.6762292 -0.150676E+03  0.750E-02    1.41       0.0  T
   2   -150.6762325 -0.322674E-05  0.429E-02    1.40       1.0  T
   3   -150.6762286  0.383611E-05  0.773E-03    1.41       1.4  T
   4   -150.6762337 -0.513106E-05  0.260E-03    1.40       4.2  T
   5   -150.6762339 -0.147847E-06  0.145E-03    1.40       7.6  T
   6   -150.6762340 -0.982234E-07  0.484E-04    1.40      22.7  T
   7   -150.6762340 -0.154371E-07  0.186E-04    1.40      58.9  T
     SCC iter.                  ...        0 min,  0.090 sec
     gradient                   ...        0 min,  0.109 sec
 * total energy  :  -148.1637189 Eh     change       -0.1695918E-03 Eh
   gradient norm :     0.0044146 Eh/α   predicted    -0.1359166E-03 ( -19.86%)
   displ. norm   :     0.5638254 α      lambda       -0.1927328E-03
   maximum displ.:     0.2816027 α      in ANC's #6, #4, #3, ...

........................................................................
.............................. CYCLE   34 ..............................
........................................................................
   1   -150.6750033 -0.150675E+03  0.915E-02    1.40       0.0  T
   2   -150.6750071 -0.383464E-05  0.526E-02    1.40       1.0  T
   3   -150.6750047  0.243306E-05  0.744E-03    1.40       1.5  T
   4   -150.6750086 -0.393454E-05  0.281E-03    1.40       3.9  T
   5   -150.6750087 -0.102137E-06  0.146E-03    1.40       7.5  T
   6   -150.6750089 -0.132233E-06  0.524E-04    1.40      21.0  T
   7   -150.6750089 -0.162507E-07  0.216E-04    1.40      50.8  T
     SCC iter.                  ...        0 min,  0.090 sec
     gradient                   ...        0 min,  0.108 sec
 * total energy  :  -148.1638865 Eh     change       -0.1675679E-03 Eh
   gradient norm :     0.0047339 Eh/α   predicted    -0.1270026E-03 ( -24.21%)
   displ. norm   :     0.5913359 α      lambda       -0.2423337E-03
   maximum displ.:     0.2976506 α      in ANC's #6, #3, #4, ...

........................................................................
.............................. CYCLE   35 ..............................
........................................................................
   1   -150.6765533 -0.150677E+03  0.974E-02    1.40       0.0  T
   2   -150.6765586 -0.531382E-05  0.557E-02    1.40       1.0  T
   3   -150.6765512  0.740190E-05  0.107E-02    1.40       1.0  T
   4   -150.6765611 -0.985168E-05  0.307E-03    1.40       3.6  T
   5   -150.6765611 -0.240622E-07  0.186E-03    1.40       5.9  T
   6   -150.6765614 -0.241232E-06  0.494E-04    1.40      22.2  T
   7   -150.6765614 -0.124279E-07  0.210E-04    1.40      52.3  T
     SCC iter.                  ...        0 min,  0.092 sec
     gradient                   ...        0 min,  0.109 sec
 * total energy  :  -148.1640924 Eh     change       -0.2059316E-03 Eh
   gradient norm :     0.0041064 Eh/α   predicted    -0.1635368E-03 ( -20.59%)
   displ. norm   :     0.6309582 α      lambda       -0.2451081E-03
   maximum displ.:     0.3158851 α      in ANC's #6, #4, #3, ...

........................................................................
.............................. CYCLE   36 ..............................
........................................................................
   1   -150.6738354 -0.150674E+03  0.107E-01    1.40       0.0  T
   2   -150.6738426 -0.715472E-05  0.608E-02    1.40       1.0  T
   3   -150.6738366  0.594777E-05  0.108E-02    1.40       1.0  T
   4   -150.6738457 -0.908309E-05  0.321E-03    1.40       3.4  T
   5   -150.6738458 -0.536264E-07  0.163E-03    1.40       6.7  T
   6   -150.6738459 -0.156395E-06  0.637E-04    1.40      17.2  T
   7   -150.6738459 -0.296747E-07  0.233E-04    1.40      47.1  T
     SCC iter.                  ...        0 min,  0.090 sec
     gradient                   ...        0 min,  0.108 sec
 * total energy  :  -148.1643012 Eh     change       -0.2087882E-03 Eh
   gradient norm :     0.0044045 Eh/α   predicted    -0.1713474E-03 ( -17.93%)
   displ. norm   :     0.6150732 α      lambda       -0.2540236E-03
   maximum displ.:     0.2971615 α      in ANC's #6, #3, #4, ...

........................................................................
.............................. CYCLE   37 ..............................
........................................................................
   1   -150.6759523 -0.150676E+03  0.104E-01    1.40       0.0  T
   2   -150.6759600 -0.772605E-05  0.593E-02    1.40       1.0  T
   3   -150.6759489  0.110843E-04  0.135E-02    1.40       1.0  T
   4   -150.6759635 -0.146131E-04  0.334E-03    1.40       3.3  T
   5   -150.6759637 -0.108358E-06  0.200E-03    1.40       5.5  T
   6   -150.6759639 -0.242483E-06  0.774E-04    1.40      14.2  T
   7   -150.6759639 -0.397810E-07  0.218E-04    1.40      50.4  T
     SCC iter.                  ...        0 min,  0.092 sec
     gradient                   ...        0 min,  0.108 sec
 * total energy  :  -148.1645104 Eh     change       -0.2091714E-03 Eh
   gradient norm :     0.0048832 Eh/α   predicted    -0.1750630E-03 ( -16.31%)
   displ. norm   :     0.6699526 α      lambda       -0.2513425E-03
   maximum displ.:     0.3248833 α      in ANC's #6, #4, #3, ...

........................................................................
.............................. CYCLE   38 ..............................
........................................................................
   1   -150.6726881 -0.150673E+03  0.112E-01    1.39       0.0  T
   2   -150.6726962 -0.805321E-05  0.635E-02    1.39       1.0  T
   3   -150.6726916  0.451270E-05  0.107E-02    1.39       1.0  T
   4   -150.6726996 -0.795340E-05  0.338E-03    1.39       3.3  T
   5   -150.6726997 -0.109737E-06  0.154E-03    1.39       7.1  T
   6   -150.6726998 -0.119098E-06  0.552E-04    1.39      19.9  T
   7   -150.6726998 -0.205911E-07  0.221E-04    1.39      49.6  T
     SCC iter.                  ...        0 min,  0.092 sec
     gradient                   ...        0 min,  0.108 sec
 * total energy  :  -148.1647268 Eh     change       -0.2164855E-03 Eh
   gradient norm :     0.0053655 Eh/α   predicted    -0.1820796E-03 ( -15.89%)
   displ. norm   :     0.6660249 α      lambda       -0.3020799E-03
   maximum displ.:     0.3029382 α      in ANC's #6, #3, #4, ...

........................................................................
.............................. CYCLE   39 ..............................
........................................................................
   1   -150.6744368 -0.150674E+03  0.101E-01    1.39       0.0  T
   2   -150.6744433 -0.648686E-05  0.575E-02    1.39       1.0  T
   3   -150.6744340  0.933093E-05  0.134E-02    1.39       1.0  T
   4   -150.6744465 -0.125719E-04  0.301E-03    1.39       3.6  T
   5   -150.6744466 -0.469817E-07  0.144E-03    1.39       7.6  T
   6   -150.6744467 -0.902663E-07  0.600E-04    1.39      18.3  T
   7   -150.6744467 -0.289312E-07  0.231E-04    1.39      47.6  T
     SCC iter.                  ...        0 min,  0.092 sec
     gradient                   ...        0 min,  0.108 sec
 * total energy  :  -148.1649796 Eh     change       -0.2527340E-03 Eh
   gradient norm :     0.0062682 Eh/α   predicted    -0.2180404E-03 ( -13.73%)
   displ. norm   :     0.6812574 α      lambda       -0.3174015E-03
   maximum displ.:     0.3027434 α      in ANC's #6, #4, #3, ...

........................................................................
.............................. CYCLE   40 ..............................
........................................................................
   1   -150.6747402 -0.150675E+03  0.114E-01    1.39       0.0  T
   2   -150.6747492 -0.894604E-05  0.645E-02    1.39       1.0  T
   3   -150.6747439  0.527977E-05  0.110E-02    1.39       1.0  T
   4   -150.6747528 -0.891001E-05  0.346E-03    1.39       3.2  T
   5   -150.6747529 -0.556019E-07  0.194E-03    1.39       5.7  T
   6   -150.6747531 -0.243171E-06  0.627E-04    1.39      17.5  T
   7   -150.6747531 -0.242847E-07  0.264E-04    1.39      41.7  T
     SCC iter.                  ...        0 min,  0.092 sec
     gradient                   ...        0 min,  0.108 sec
 * total energy  :  -148.1652419 Eh     change       -0.2623564E-03 Eh
   gradient norm :     0.0067441 Eh/α   predicted    -0.2323618E-03 ( -11.43%)
   displ. norm   :     0.6600706 α      lambda       -0.3342215E-03
   maximum displ.:     0.2850419 α      in ANC's #6, #3, #4, ...

........................................................................
.............................. CYCLE   41 ..............................
........................................................................
   1   -150.6778391 -0.150678E+03  0.951E-02    1.39       0.0  T
   2   -150.6778446 -0.554962E-05  0.546E-02    1.39       1.0  T
   3   -150.6778318  0.127928E-04  0.134E-02    1.39       1.0  T
   4   -150.6778472 -0.154357E-04  0.313E-03    1.39       3.5  T
   5   -150.6778474 -0.192797E-06  0.176E-03    1.39       6.2  T
   6   -150.6778476 -0.147123E-06  0.664E-04    1.39      16.5  T
   7   -150.6778476 -0.250689E-07  0.297E-04    1.39      36.9  T
     SCC iter.                  ...        0 min,  0.091 sec
     gradient                   ...        0 min,  0.108 sec
 * total energy  :  -148.1654913 Eh     change       -0.2493359E-03 Eh
   gradient norm :     0.0076038 Eh/α   predicted    -0.2399242E-03 (  -3.77%)
   displ. norm   :     0.7030164 α      lambda       -0.2962488E-03
   maximum displ.:     0.3195441 α      in ANC's #6, #3, #4, ...

........................................................................
.............................. CYCLE   42 ..............................
........................................................................
   1   -150.6745309 -0.150675E+03  0.106E-01    1.39       0.0  T
   2   -150.6745386 -0.770938E-05  0.601E-02    1.39       1.0  T
   3   -150.6745265  0.120875E-04  0.134E-02    1.39       1.0  T
   4   -150.6745421 -0.155382E-04  0.357E-03    1.39       3.1  T
   5   -150.6745422 -0.170357E-06  0.218E-03    1.39       5.0  T
   6   -150.6745425 -0.274115E-06  0.697E-04    1.39      15.7  T
   7   -150.6745425 -0.288784E-07  0.269E-04    1.39      40.8  T
     SCC iter.                  ...        0 min,  0.092 sec
     gradient                   ...        0 min,  0.108 sec
 * total energy  :  -148.1657092 Eh     change       -0.2179079E-03 Eh
   gradient norm :     0.0095923 Eh/α   predicted    -0.2213338E-03 (   1.57%)
   displ. norm   :     0.6289456 α      lambda       -0.2897302E-03
   maximum displ.:     0.2832818 α      in ANC's #6, #3, #4, ...
 * RMSD in coord.:     0.9656256 α      energy gain  -0.3712175E-02 Eh

generating ANC from model Hessian ...
Using Lindh-Hessian (1995)
 Shifting diagonal of input Hessian by   1.001602808808251E-002
 Lowest  eigenvalues of input Hessian
    0.010000    0.000000    0.000000    0.000000    0.000000    0.000000
    0.000000    0.010039    0.010054    0.010134    0.010148    0.010168
    0.010252    0.010610    0.010787    0.010922    0.011050    0.011248
 Highest eigenvalues
    2.288161    2.289957    2.597298    2.602967    2.649551    2.653341
 

........................................................................
.............................. CYCLE   43 ..............................
........................................................................
   1   -150.6743078 -0.150674E+03  0.889E-02    1.39       0.0  T
   2   -150.6743125 -0.471966E-05  0.509E-02    1.39       1.0  T
   3   -150.6743004  0.120437E-04  0.130E-02    1.39       1.0  T
   4   -150.6743148 -0.143395E-04  0.302E-03    1.39       3.6  T
   5   -150.6743149 -0.141734E-06  0.186E-03    1.39       5.9  T
   6   -150.6743151 -0.214849E-06  0.666E-04    1.39      16.5  T
   7   -150.6743152 -0.247045E-07  0.252E-04    1.39      43.5  T
     SCC iter.                  ...        0 min,  0.092 sec
     gradient                   ...        0 min,  0.108 sec
 * total energy  :  -148.1659329 Eh     change       -0.2237474E-03 Eh
   gradient norm :     0.0079583 Eh/α   predicted     0.0000000E+00 (-100.00%)
   displ. norm   :     0.0615038 α      lambda       -0.9980582E-04
   maximum displ.:     0.0250072 α      in ANC's #8, #3, #2, ...

........................................................................
.............................. CYCLE   44 ..............................
........................................................................
   1   -150.6787481 -0.150679E+03  0.292E-02    1.39       0.0  T
   2   -150.6787495 -0.139199E-05  0.164E-02    1.39       1.0  T
   3   -150.6787471  0.243612E-05  0.599E-03    1.39       1.8  T
   4   -150.6787501 -0.299736E-05  0.120E-03    1.39       9.1  T
   5   -150.6787501 -0.731125E-07  0.598E-04    1.39      18.4  T
   6   -150.6787502 -0.116019E-07  0.334E-04    1.39      32.9  T
     SCC iter.                  ...        0 min,  0.079 sec
     gradient                   ...        0 min,  0.108 sec
 * total energy  :  -148.1659991 Eh     change       -0.6616519E-04 Eh
   gradient norm :     0.0028262 Eh/α   predicted    -0.5009142E-04 ( -24.29%)
   displ. norm   :     0.1266986 α      lambda       -0.1047778E-03
   maximum displ.:     0.0564917 α      in ANC's #8, #3, #2, ...

........................................................................
.............................. CYCLE   45 ..............................
........................................................................
   1   -150.6823947 -0.150682E+03  0.301E-02    1.39       0.0  T
   2   -150.6823958 -0.102556E-05  0.175E-02    1.39       1.0  T
   3   -150.6823909  0.484087E-05  0.795E-03    1.39       1.4  T
   4   -150.6823962 -0.529034E-05  0.177E-03    1.39       6.2  T
   5   -150.6823964 -0.224845E-06  0.726E-04    1.39      15.1  T
   6   -150.6823965 -0.213285E-07  0.354E-04    1.39      31.0  T
     SCC iter.                  ...        0 min,  0.078 sec
     gradient                   ...        0 min,  0.108 sec
 * total energy  :  -148.1660629 Eh     change       -0.6377369E-04 Eh
   gradient norm :     0.0067356 Eh/α   predicted    -0.5323001E-04 ( -16.53%)
   displ. norm   :     0.2017961 α      lambda       -0.1245174E-03
   maximum displ.:     0.0880039 α      in ANC's #3, #8, #2, ...

........................................................................
.............................. CYCLE   46 ..............................
........................................................................
   1   -150.6820003 -0.150682E+03  0.760E-02    1.39       0.0  T
   2   -150.6820057 -0.545109E-05  0.423E-02    1.39       1.0  T
   3   -150.6820024  0.335515E-05  0.849E-03    1.39       1.3  T
   4   -150.6820079 -0.547980E-05  0.229E-03    1.39       4.8  T
   5   -150.6820080 -0.155328E-06  0.125E-03    1.39       8.8  T
   6   -150.6820081 -0.575107E-07  0.577E-04    1.39      19.0  T
   7   -150.6820081 -0.230643E-07  0.158E-04    1.39      69.4  T
     SCC iter.                  ...        0 min,  0.090 sec
     gradient                   ...        0 min,  0.108 sec
 * total energy  :  -148.1661122 Eh     change       -0.4929789E-04 Eh
   gradient norm :     0.0063146 Eh/α   predicted    -0.6479798E-04 (  31.44%)
   displ. norm   :     0.2486358 α      lambda       -0.1867401E-03
   maximum displ.:     0.1135587 α      in ANC's #8, #3, #2, ...

........................................................................
.............................. CYCLE   47 ..............................
........................................................................
   1   -150.6784574 -0.150678E+03  0.853E-02    1.39       0.0  T
   2   -150.6784631 -0.566179E-05  0.476E-02    1.39       1.0  T
   3   -150.6784554  0.772914E-05  0.112E-02    1.39       1.0  T
   4   -150.6784657 -0.103607E-04  0.246E-03    1.39       4.5  T
   5   -150.6784659 -0.145825E-06  0.142E-03    1.39       7.8  T
   6   -150.6784660 -0.937335E-07  0.574E-04    1.39      19.1  T
   7   -150.6784660 -0.195635E-07  0.170E-04    1.39      64.6  T
     SCC iter.                  ...        0 min,  0.092 sec
     gradient                   ...        0 min,  0.108 sec
 * total energy  :  -148.1661846 Eh     change       -0.7245356E-04 Eh
   gradient norm :     0.0071107 Eh/α   predicted    -0.9914717E-04 (  36.84%)
   displ. norm   :     0.1158249 α      lambda       -0.1308833E-03
   maximum displ.:     0.0510324 α      in ANC's #3, #2, #8, ...

........................................................................
.............................. CYCLE   48 ..............................
........................................................................
   1   -150.6778824 -0.150678E+03  0.374E-02    1.39       0.0  T
   2   -150.6778840 -0.151509E-05  0.211E-02    1.39       1.0  T
   3   -150.6778809  0.307787E-05  0.722E-03    1.39       1.5  T
   4   -150.6778847 -0.383188E-05  0.112E-03    1.39       9.8  T
   5   -150.6778847 -0.213854E-07  0.707E-04    1.39      15.5  T
   6   -150.6778848 -0.186988E-07  0.363E-04    1.39      30.3  T
     SCC iter.                  ...        0 min,  0.079 sec
     gradient                   ...        0 min,  0.108 sec
 * total energy  :  -148.1662627 Eh     change       -0.7811661E-04 Eh
   gradient norm :     0.0047288 Eh/α   predicted    -0.6632524E-04 ( -15.09%)
   displ. norm   :     0.2105859 α      lambda       -0.1668481E-03
   maximum displ.:     0.1010639 α      in ANC's #3, #2, #4, ...

........................................................................
.............................. CYCLE   49 ..............................
........................................................................
   1   -150.6767406 -0.150677E+03  0.789E-02    1.39       0.0  T
   2   -150.6767475 -0.688948E-05  0.438E-02    1.39       1.0  T
   3   -150.6767343  0.131857E-04  0.131E-02    1.39       1.0  T
   4   -150.6767508 -0.165001E-04  0.256E-03    1.39       4.3  T
   5   -150.6767511 -0.292545E-06  0.136E-03    1.39       8.0  T
   6   -150.6767511 -0.611126E-07  0.591E-04    1.39      18.6  T
   7   -150.6767511 -0.192344E-07  0.163E-04    1.39      67.4  T
     SCC iter.                  ...        0 min,  0.090 sec
     gradient                   ...        0 min,  0.108 sec
 * total energy  :  -148.1662945 Eh     change       -0.3174113E-04 Eh
   gradient norm :     0.0057861 Eh/α   predicted    -0.8712571E-04 ( 174.49%)
   displ. norm   :     0.1866841 α      lambda       -0.1802640E-03
   maximum displ.:     0.0860697 α      in ANC's #2, #8, #3, ...

........................................................................
.............................. CYCLE   50 ..............................
........................................................................
   1   -150.6764053 -0.150676E+03  0.632E-02    1.39       0.0  T
   2   -150.6764087 -0.336412E-05  0.352E-02    1.39       1.0  T
   3   -150.6764063  0.239382E-05  0.616E-03    1.39       1.8  T
   4   -150.6764101 -0.386464E-05  0.164E-03    1.39       6.7  T
   5   -150.6764102 -0.637441E-07  0.927E-04    1.39      11.8  T
   6   -150.6764103 -0.428553E-07  0.334E-04    1.39      32.9  T
     SCC iter.                  ...        0 min,  0.079 sec
     gradient                   ...        0 min,  0.108 sec
 * total energy  :  -148.1663876 Eh     change       -0.9308842E-04 Eh
   gradient norm :     0.0053759 Eh/α   predicted    -0.9327400E-04 (   0.20%)
   displ. norm   :     0.2255376 α      lambda       -0.1569633E-03
   maximum displ.:     0.1074120 α      in ANC's #3, #2, #8, ...

........................................................................
.............................. CYCLE   51 ..............................
........................................................................
   1   -150.6763994 -0.150676E+03  0.587E-02    1.39       0.0  T
   2   -150.6764030 -0.354356E-05  0.330E-02    1.39       1.0  T
   3   -150.6763943  0.861739E-05  0.114E-02    1.39       1.0  T
   4   -150.6764050 -0.106607E-04  0.170E-03    1.39       6.5  T
   5   -150.6764050 -0.386872E-07  0.113E-03    1.39       9.7  T
   6   -150.6764051 -0.704063E-07  0.383E-04    1.39      28.6  T
   7   -150.6764051 -0.727752E-08  0.146E-04    1.39      75.4  T
     SCC iter.                  ...        0 min,  0.090 sec
     gradient                   ...        0 min,  0.108 sec
 * total energy  :  -148.1664803 Eh     change       -0.9273822E-04 Eh
   gradient norm :     0.0040890 Eh/α   predicted    -0.8247854E-04 ( -11.06%)
   displ. norm   :     0.3030189 α      lambda       -0.1183211E-03
   maximum displ.:     0.1502953 α      in ANC's #3, #2, #4, ...

........................................................................
.............................. CYCLE   52 ..............................
........................................................................
   1   -150.6770943 -0.150677E+03  0.496E-02    1.39       0.0  T
   2   -150.6770959 -0.159674E-05  0.282E-02    1.39       1.0  T
   3   -150.6770924  0.347730E-05  0.672E-03    1.39       1.6  T
   4   -150.6770967 -0.431308E-05  0.154E-03    1.39       7.1  T
   5   -150.6770967 -0.268780E-07  0.926E-04    1.39      11.9  T
   6   -150.6770968 -0.586165E-07  0.348E-04    1.39      31.5  T
     SCC iter.                  ...        0 min,  0.079 sec
     gradient                   ...        0 min,  0.108 sec
 * total energy  :  -148.1665859 Eh     change       -0.1055860E-03 Eh
   gradient norm :     0.0033708 Eh/α   predicted    -0.6459719E-04 ( -38.82%)
   displ. norm   :     0.4699078 α      lambda       -0.1880313E-03
   maximum displ.:     0.2364873 α      in ANC's #2, #3, #4, ...

........................................................................
.............................. CYCLE   53 ..............................
........................................................................
   1   -150.6786782 -0.150679E+03  0.738E-02    1.39       0.0  T
   2   -150.6786816 -0.341518E-05  0.420E-02    1.39       1.0  T
   3   -150.6786752  0.634259E-05  0.946E-03    1.39       1.2  T
   4   -150.6786832 -0.800564E-05  0.235E-03    1.39       4.7  T
   5   -150.6786833 -0.595168E-07  0.142E-03    1.39       7.7  T
   6   -150.6786834 -0.145330E-06  0.511E-04    1.39      21.5  T
   7   -150.6786835 -0.161575E-07  0.186E-04    1.39      59.1  T
     SCC iter.                  ...        0 min,  0.092 sec
     gradient                   ...        0 min,  0.108 sec
 * total energy  :  -148.1667431 Eh     change       -0.1572190E-03 Eh
   gradient norm :     0.0030790 Eh/α   predicted    -0.1147788E-03 ( -26.99%)
   displ. norm   :     0.5700563 α      lambda       -0.1807638E-03
   maximum displ.:     0.2916037 α      in ANC's #2, #3, #4, ...

........................................................................
.............................. CYCLE   54 ..............................
........................................................................
   1   -150.6782000 -0.150678E+03  0.874E-02    1.39       0.0  T
   2   -150.6782044 -0.439185E-05  0.499E-02    1.39       1.0  T
   3   -150.6781992  0.518187E-05  0.937E-03    1.39       1.2  T
   4   -150.6782064 -0.723834E-05  0.254E-03    1.39       4.3  T
   5   -150.6782065 -0.446304E-07  0.134E-03    1.39       8.2  T
   6   -150.6782066 -0.910615E-07  0.441E-04    1.39      24.9  T
   7   -150.6782066 -0.126390E-07  0.194E-04    1.39      56.6  T
     SCC iter.                  ...        0 min,  0.090 sec
     gradient                   ...        0 min,  0.108 sec
 * total energy  :  -148.1669007 Eh     change       -0.1575588E-03 Eh
   gradient norm :     0.0039179 Eh/α   predicted    -0.1197540E-03 ( -23.99%)
   displ. norm   :     0.5635477 α      lambda       -0.1767350E-03
   maximum displ.:     0.2954589 α      in ANC's #2, #3, #4, ...

........................................................................
.............................. CYCLE   55 ..............................
........................................................................
   1   -150.6780722 -0.150678E+03  0.859E-02    1.39       0.0  T
   2   -150.6780762 -0.405439E-05  0.491E-02    1.39       1.0  T
   3   -150.6780710  0.523438E-05  0.933E-03    1.39       1.2  T
   4   -150.6780781 -0.712227E-05  0.256E-03    1.39       4.3  T
   5   -150.6780782 -0.480237E-07  0.146E-03    1.39       7.5  T
   6   -150.6780783 -0.894552E-07  0.570E-04    1.39      19.3  T
   7   -150.6780783 -0.253960E-07  0.201E-04    1.39      54.6  T
     SCC iter.                  ...        0 min,  0.091 sec
     gradient                   ...        0 min,  0.107 sec
 * total energy  :  -148.1670596 Eh     change       -0.1588981E-03 Eh
   gradient norm :     0.0038655 Eh/α   predicted    -0.1164351E-03 ( -26.72%)
   displ. norm   :     0.5775058 α      lambda       -0.1976864E-03
   maximum displ.:     0.3107494 α      in ANC's #2, #3, #4, ...

........................................................................
.............................. CYCLE   56 ..............................
........................................................................
   1   -150.6780073 -0.150678E+03  0.885E-02    1.39       0.0  T
   2   -150.6780117 -0.444165E-05  0.507E-02    1.39       1.0  T
   3   -150.6780061  0.567603E-05  0.970E-03    1.38       1.1  T
   4   -150.6780137 -0.765103E-05  0.274E-03    1.39       4.0  T
   5   -150.6780138 -0.103313E-06  0.149E-03    1.39       7.3  T
   6   -150.6780139 -0.757082E-07  0.682E-04    1.39      16.1  T
   7   -150.6780139 -0.365285E-07  0.230E-04    1.39      47.7  T
     SCC iter.                  ...        0 min,  0.090 sec
     gradient                   ...        0 min,  0.108 sec
 * total energy  :  -148.1672375 Eh     change       -0.1779504E-03 Eh
   gradient norm :     0.0028894 Eh/α   predicted    -0.1318107E-03 ( -25.93%)
   displ. norm   :     0.6114200 α      lambda       -0.2216579E-03
   maximum displ.:     0.3368030 α      in ANC's #2, #3, #4, ...

........................................................................
.............................. CYCLE   57 ..............................
........................................................................
   1   -150.6787619 -0.150679E+03  0.921E-02    1.38       0.0  T
   2   -150.6787664 -0.448953E-05  0.529E-02    1.38       1.0  T
   3   -150.6787595  0.694679E-05  0.105E-02    1.38       1.0  T
   4   -150.6787685 -0.898723E-05  0.287E-03    1.38       3.8  T
   5   -150.6787686 -0.128215E-06  0.154E-03    1.38       7.1  T
   6   -150.6787687 -0.767816E-07  0.750E-04    1.38      14.6  T
   7   -150.6787687 -0.422721E-07  0.255E-04    1.38      43.1  T
     SCC iter.                  ...        0 min,  0.092 sec
     gradient                   ...        0 min,  0.107 sec
 * total energy  :  -148.1674338 Eh     change       -0.1962908E-03 Eh
   gradient norm :     0.0036598 Eh/α   predicted    -0.1522656E-03 ( -22.43%)
   displ. norm   :     0.6599421 α      lambda       -0.2366779E-03
   maximum displ.:     0.3673142 α      in ANC's #2, #3, #4, ...

........................................................................
.............................. CYCLE   58 ..............................
........................................................................
   1   -150.6777388 -0.150678E+03  0.971E-02    1.38       0.0  T
   2   -150.6777434 -0.456279E-05  0.559E-02    1.38       1.0  T
   3   -150.6777356  0.776744E-05  0.111E-02    1.38       1.0  T
   4   -150.6777455 -0.990487E-05  0.300E-03    1.38       3.7  T
   5   -150.6777456 -0.950967E-07  0.173E-03    1.38       6.3  T
   6   -150.6777458 -0.141798E-06  0.757E-04    1.38      14.5  T
   7   -150.6777458 -0.405390E-07  0.271E-04    1.38      40.5  T
     SCC iter.                  ...        0 min,  0.092 sec
     gradient                   ...        0 min,  0.108 sec
 * total energy  :  -148.1676428 Eh     change       -0.2090392E-03 Eh
   gradient norm :     0.0043993 Eh/α   predicted    -0.1698830E-03 ( -18.73%)
   displ. norm   :     0.6857068 α      lambda       -0.2477622E-03
   maximum displ.:     0.3840815 α      in ANC's #2, #3, #4, ...

........................................................................
.............................. CYCLE   59 ..............................
........................................................................
   1   -150.6782849 -0.150678E+03  0.984E-02    1.38       0.0  T
   2   -150.6782887 -0.385969E-05  0.569E-02    1.38       1.0  T
   3   -150.6782802  0.858795E-05  0.113E-02    1.38       1.0  T
   4   -150.6782908 -0.106553E-04  0.280E-03    1.38       3.9  T
   5   -150.6782908 -0.357462E-07  0.155E-03    1.38       7.1  T
   6   -150.6782910 -0.134817E-06  0.616E-04    1.38      17.8  T
   7   -150.6782910 -0.245916E-07  0.267E-04    1.38      41.1  T
     SCC iter.                  ...        0 min,  0.090 sec
     gradient                   ...        0 min,  0.107 sec
 * total energy  :  -148.1678632 Eh     change       -0.2203632E-03 Eh
   gradient norm :     0.0055293 Eh/α   predicted    -0.1821322E-03 ( -17.35%)
   displ. norm   :     0.7115769 α      lambda       -0.2669126E-03
   maximum displ.:     0.4002842 α      in ANC's #2, #3, #4, ...

........................................................................
.............................. CYCLE   60 ..............................
........................................................................
   1   -150.6776295 -0.150678E+03  0.975E-02    1.38       0.0  T
   2   -150.6776326 -0.309974E-05  0.564E-02    1.38       1.0  T
   3   -150.6776192  0.133540E-04  0.128E-02    1.38       1.0  T
   4   -150.6776346 -0.153035E-04  0.300E-03    1.38       3.7  T
   5   -150.6776346 -0.916145E-07  0.200E-03    1.38       5.5  T
   6   -150.6776349 -0.267781E-06  0.566E-04    1.38      19.4  T
   7   -150.6776349 -0.137716E-07  0.268E-04    1.38      40.9  T
     SCC iter.                  ...        0 min,  0.090 sec
     gradient                   ...        0 min,  0.107 sec
 * total energy  :  -148.1681027 Eh     change       -0.2395426E-03 Eh
   gradient norm :     0.0051025 Eh/α   predicted    -0.2010333E-03 ( -16.08%)
   displ. norm   :     0.7224039 α      lambda       -0.2812430E-03
   maximum displ.:     0.4097829 α      in ANC's #2, #3, #4, ...

........................................................................
[...]
       139                         -0.3089462              -8.4069
       140                         -0.2876087              -7.8262
       141                         -0.2766049              -7.5268
       142                         -0.2680462              -7.2939
       143                         -0.2466102              -6.7106
       144                         -0.2431985              -6.6178
       145                         -0.2407857              -6.5521
       146                         -0.2399436              -6.5292
       ...                                ...                  ...
       264                          1.1628691              31.6433
      -------------------------------------------------------------
                  HL-Gap            0.0488936 Eh            1.3305 eV
             Fermi-level           -0.3586607 Eh           -9.7597 eV

     #   Z          covCN         q      C6AA      α(0)
     1   6 C        2.852     0.233    23.131     7.883
     2   8 O        0.856    -0.366    21.005     6.145
     3   6 C        3.244    -0.034    27.830     8.547
     4   6 C        3.235    -0.009    27.365     8.488
     5   6 C        3.010     0.032    27.273     8.567
     6   6 C        2.948    -0.000    28.039     8.685
     7   6 C        1.931     0.121    28.127     8.565
     8   7 N        0.911    -0.242    26.316     7.419
     9   6 C        1.939     0.121    28.111     8.562
    10   7 N        0.911    -0.238    26.220     7.406
    11   6 C        3.009    -0.028    28.674     8.784
    12   6 C        2.896    -0.024    28.599     8.768
    13   6 C        3.088     0.121    25.241     8.235
    14   6 C        3.013    -0.053    29.284     8.877
    15   6 C        3.003    -0.062    29.521     8.913
    16   6 C        3.107     0.130    25.020     8.195
    17   8 O        1.729    -0.149    16.548     5.493
    18   6 C        2.973     0.003    27.963     8.674
    19   6 C        2.926    -0.031    28.785     8.799
    20   6 C        2.912    -0.030    28.741     8.791
    21   6 C        3.037     0.007    27.821     8.651
    22   6 C        3.053     0.009    27.767     8.642
    23   6 C        2.917    -0.037    28.927     8.820
    24   6 C        3.937     0.009    20.357     6.412
    25   6 C        3.806    -0.053    21.519     6.604
    26   6 C        3.751    -0.101    22.490     6.763
    27   6 C        3.806    -0.052    21.509     6.602
    28   6 C        3.751    -0.101    22.492     6.763
    29   6 C        3.053     0.010    27.752     8.640
    30   6 C        3.037     0.008    27.794     8.647
    31   6 C        2.912    -0.031    28.770     8.795
    32   6 C        2.924    -0.036    28.887     8.814
    33   6 C        2.972     0.000    28.016     8.682
    34   6 C        2.920    -0.031    28.780     8.797
    35   6 C        3.084     0.132    25.026     8.201
    36   6 C        3.005    -0.061    29.500     8.910
    37   6 C        3.003    -0.047    29.145     8.856
    38   6 C        3.072     0.121    25.271     8.243
    39   8 O        1.729    -0.188    17.133     5.589
    40   6 C        2.895    -0.021    28.526     8.757
    41   6 C        3.009    -0.033    28.810     8.805
    42   6 C        3.011     0.033    27.247     8.563
    43   6 C        2.948    -0.001    28.042     8.685
    44   6 C        1.932     0.122    28.101     8.561
    45   7 N        0.911    -0.243    26.337     7.422
    46   6 C        1.940     0.121    28.115     8.563
    47   7 N        0.911    -0.238    26.225     7.407
    48   6 C        3.236    -0.010    27.363     8.486
    49   6 C        3.246    -0.032    27.786     8.539
    50   6 C        2.854     0.230    23.180     7.891
    51   8 O        0.856    -0.377    21.224     6.177
    52   6 C        2.926    -0.011    28.286     8.722
    53  16 S        2.340     0.050   139.047    19.846
    54   6 C        2.928    -0.023    28.573     8.766
    55   6 C        2.928    -0.023    28.576     8.767
    56  16 S        2.341     0.053   138.922    19.838
    57   6 C        2.926    -0.010    28.275     8.720
    58   1 H        0.925     0.073     2.054     2.241
    59   1 H        0.926     0.057     2.238     2.339
    60   1 H        0.926     0.049     2.327     2.385
    61   1 H        0.926     0.079     1.993     2.208
    62   1 H        0.926     0.042     2.417     2.431
    63   1 H        0.926     0.039     2.461     2.453
    64   1 H        0.924     0.038     2.480     2.463
    65   1 H        0.924     0.043     2.411     2.428
    66   1 H        0.925     0.034     2.527     2.486
    67   1 H        0.925     0.035     2.521     2.483
    68   1 H        0.925     0.040     2.445     2.445
    69   1 H        0.924     0.042     2.423     2.434
    70   1 H        0.924     0.038     2.479     2.462
    71   1 H        0.925     0.035     2.519     2.482
    72   1 H        0.925     0.035     2.518     2.481
    73   1 H        0.925     0.040     2.450     2.448
    74   1 H        0.926     0.042     2.422     2.434
    75   1 H        0.926     0.041     2.431     2.438
    76   1 H        0.926     0.053     2.278     2.360
    77   1 H        0.926     0.049     2.327     2.385
    78   1 H        0.927     0.094     1.839     2.120
    79   1 H        0.925     0.079     1.990     2.206
    80   1 H        0.926     0.069     2.097     2.264
    81   1 H        0.926     0.071     2.078     2.254
    82   1 H        0.926     0.071     2.070     2.250
    83   1 H        0.926     0.071     2.078     2.254

 Mol. C6AA /au·bohr⁶  :     118921.559514
 Mol. C8AA /au·bohr⁸  :    3199489.854164
 Mol. α(0) /au        :        549.377229


Wiberg/Mayer (AO) data.
largest (>0.10) Wiberg bond orders for each atom

 ---------------------------------------------------------------------------
     #   Z sym  total        # sym  WBO       # sym  WBO       # sym  WBO
 ---------------------------------------------------------------------------
     1   6 C    3.935 --     2 O    1.771    11 C    1.024     3 C    1.023
     2   8 O    2.065 --     1 C    1.771
     3   6 C    3.977 --    52 C    1.587     4 C    1.161     1 C    1.023
     4   6 C    3.981 --    54 C    1.557     3 C    1.161     5 C    1.098
     5   6 C    3.975 --     6 C    1.477    11 C    1.132     4 C    1.098
     6   6 C    3.945 --     5 C    1.477     7 C    1.104     9 C    1.096
     7   6 C    3.946 --     8 N    2.751     6 C    1.104
     8   7 N    2.967 --     7 C    2.751
     9   6 C    3.946 --    10 N    2.769     6 C    1.096
    10   7 N    2.976 --     9 C    2.769
    11   6 C    3.961 --    12 C    1.541     5 C    1.132     1 C    1.024
    12   6 C    3.955 --    11 C    1.541    13 C    1.243    58 H    0.944
    13   6 C    3.902 --    14 C    1.365    12 C    1.243    17 O    1.100
    14   6 C    3.960 --    15 C    1.435    13 C    1.365    59 H    0.973
    15   6 C    3.969 --    14 C    1.435    16 C    1.396    60 H    0.972
    16   6 C    3.885 --    15 C    1.396    17 O    1.152    18 C    1.115
    17   8 O    2.471 --    16 C    1.152    13 C    1.100
    18   6 C    3.961 --    19 C    1.347    23 C    1.336    16 C    1.115
    19   6 C    3.971 --    20 C    1.474    18 C    1.347    61 H    0.962
    20   6 C    3.973 --    19 C    1.474    21 C    1.372    62 H    0.967
    21   6 C    3.962 --    20 C    1.372    22 C    1.302    30 C    1.102
    22   6 C    3.977 --    23 C    1.476    21 C    1.302    24 C    0.990
    23   6 C    3.973 --    22 C    1.476    18 C    1.336    63 H    0.964
    24   6 C    3.989 --    29 C    0.990    22 C    0.990    25 C    0.958
                            27 C    0.957
    25   6 C    3.995 --    26 C    1.020    64 H    0.975    65 H    0.974
                            24 C    0.958
    26   6 C    3.996 --    25 C    1.020    66 H    0.987    67 H    0.986
                            68 H    0.986
    27   6 C    3.995 --    28 C    1.020    70 H    0.975    69 H    0.975
                            24 C    0.957
    28   6 C    3.996 --    27 C    1.020    71 H    0.987    72 H    0.986
                            73 H    0.986
    29   6 C    3.977 --    34 C    1.475    30 C    1.303    24 C    0.990
    30   6 C    3.962 --    31 C    1.370    29 C    1.303    21 C    1.102
    31   6 C    3.973 --    32 C    1.476    30 C    1.370    74 H    0.967
    32   6 C    3.970 --    31 C    1.476    33 C    1.348    75 H    0.968
    33   6 C    3.962 --    32 C    1.348    34 C    1.335    35 C    1.115
    34   6 C    3.975 --    29 C    1.475    33 C    1.335    76 H    0.964
    35   6 C    3.882 --    36 C    1.405    39 O    1.145    33 C    1.115
    36   6 C    3.970 --    37 C    1.423    35 C    1.405    77 H    0.972
    37   6 C    3.950 --    36 C    1.423    38 C    1.380    78 H    0.957
    38   6 C    3.891 --    37 C    1.380    40 C    1.247    39 O    1.068
    39   8 O    2.431 --    35 C    1.145    38 C    1.068
    40   6 C    3.952 --    41 C    1.536    38 C    1.247    79 H    0.941
    41   6 C    3.961 --    40 C    1.536    42 C    1.131    50 C    1.031
    42   6 C    3.976 --    43 C    1.479    41 C    1.131    48 C    1.098
    43   6 C    3.948 --    42 C    1.479    44 C    1.104    46 C    1.095
    44   6 C    3.946 --    45 N    2.751    43 C    1.104
    45   7 N    2.962 --    44 C    2.751
    46   6 C    3.946 --    47 N    2.769    43 C    1.095
    47   7 N    2.976 --    46 C    2.769
    48   6 C    3.981 --    55 C    1.559    49 C    1.160    42 C    1.098
    49   6 C    3.978 --    57 C    1.584    48 C    1.160    50 C    1.028
    50   6 C    3.928 --    51 O    1.754    41 C    1.031    49 C    1.028
    51   8 O    2.057 --    50 C    1.754
    52   6 C    3.949 --     3 C    1.587    53 S    1.203    80 H    0.967
    53  16 S    2.665 --    54 C    1.209    52 C    1.203
    54   6 C    3.937 --     4 C    1.557    53 S    1.209    81 H    0.964
    55   6 C    3.937 --    48 C    1.559    56 S    1.208    82 H    0.964
    56  16 S    2.666 --    55 C    1.208    57 C    1.205
    57   6 C    3.949 --    49 C    1.584    56 S    1.205    83 H    0.967
    58   1 H    0.993 --    12 C    0.944
    59   1 H    0.996 --    14 C    0.973
    60   1 H    0.997 --    15 C    0.972
    61   1 H    0.993 --    19 C    0.962
    62   1 H    0.997 --    20 C    0.967
    63   1 H    0.998 --    23 C    0.964
    64   1 H    0.998 --    25 C    0.975
    65   1 H    0.998 --    25 C    0.974
    66   1 H    0.999 --    26 C    0.987
    67   1 H    0.999 --    26 C    0.986
    68   1 H    0.998 --    26 C    0.986
    69   1 H    0.998 --    27 C    0.975
    70   1 H    0.998 --    27 C    0.975
    71   1 H    0.999 --    28 C    0.987
    72   1 H    0.999 --    28 C    0.986
    73   1 H    0.998 --    28 C    0.986
    74   1 H    0.997 --    31 C    0.967
    75   1 H    0.997 --    32 C    0.968
    76   1 H    0.997 --    34 C    0.964
    77   1 H    0.997 --    36 C    0.972
    78   1 H    0.991 --    37 C    0.957
    79   1 H    0.993 --    40 C    0.941
    80   1 H    0.995 --    52 C    0.967
    81   1 H    0.995 --    54 C    0.964
    82   1 H    0.995 --    55 C    0.964
    83   1 H    0.995 --    57 C    0.967
 ---------------------------------------------------------------------------

Topologies differ in bond orders
Writing corrected topology to xtbtopo.mol

molecular dipole:
                 x           y           z       tot (Debye)
 q only:       -0.002      -1.596      -1.617
   full:        0.010      -1.877      -1.949       6.878
molecular quadrupole (traceless):
                xx          xy          yy          xz          yz          zz
 q only:       18.928     -39.292     -50.332       7.685       4.969      31.403
  q+dip:       17.221     -44.859     -55.918      10.882      14.736      38.697
   full:       29.020     -54.640     -59.866      16.455      12.774      30.846

           -------------------------------------------------
          |                Geometry Summary                 |
           -------------------------------------------------

      molecular mass/u    :      774.8650541
   center of mass at/Å    :        0.4766234       0.1421428      -0.4533316
  moments of inertia/u·Å² :        0.3530679E+04   0.5166534E+05   0.5434863E+05
rotational constants/cm⁻¹ :        0.4774615E-02   0.3262852E-03   0.3101759E-03

 * 78 selected distances

     #   Z          #   Z                                           value/Å
     1   6 C        2   8 O                                       1.2102336
     3   6 C        4   6 C                                       1.4306826
     4   6 C        5   6 C                                       1.4489046
     5   6 C        6   6 C                                       1.3716396
     7   6 C        8   7 N                                       1.1491536
     9   6 C       10   7 N                                       1.1477300
    11   6 C       12   6 C                                       1.3680045
    12   6 C       13   6 C                                       1.4083118
    13   6 C       14   6 C                                       1.3966708
    14   6 C       15   6 C                                       1.3900651
    15   6 C       16   6 C                                       1.3917919
    13   6 C       17   8 O                                       1.3479382
    16   6 C       17   8 O                                       1.3360509
    16   6 C       18   6 C                                       1.4423041
    18   6 C       19   6 C                                       1.4023323
    19   6 C       20   6 C                                       1.3795829
    20   6 C       21   6 C                                       1.3883812
    21   6 C       22   6 C                                       1.4069720
    18   6 C       23   6 C                                       1.4022586
    22   6 C       23   6 C                                       1.3732287
    24   6 C       25   6 C                                       1.5403087
    25   6 C       26   6 C                                       1.5239091
    24   6 C       27   6 C                                       1.5406680
    27   6 C       28   6 C                                       1.5238841
    29   6 C       30   6 C                                       1.4063255
    30   6 C       31   6 C                                       1.3884522
    31   6 C       32   6 C                                       1.3799169
    32   6 C       33   6 C                                       1.4007238
    29   6 C       34   6 C                                       1.3723918
    33   6 C       34   6 C                                       1.4036075
    33   6 C       35   6 C                                       1.4424098
    35   6 C       36   6 C                                       1.3894161
    36   6 C       37   6 C                                       1.3916787
    37   6 C       38   6 C                                       1.3924391
    35   6 C       39   8 O                                       1.3392018
    38   6 C       39   8 O                                       1.3647043
    38   6 C       40   6 C                                       1.4082988
    40   6 C       41   6 C                                       1.3672840
    42   6 C       43   6 C                                       1.3716138
    44   6 C       45   7 N                                       1.1492256
    46   6 C       47   7 N                                       1.1476906
    42   6 C       48   6 C                                       1.4491611
    48   6 C       49   6 C                                       1.4311565
    50   6 C       51   8 O                                       1.2122724
     3   6 C       52   6 C                                       1.3561335
    52   6 C       53  16 S                                       1.7259139 (max)
     4   6 C       54   6 C                                       1.3617941
    53  16 S       54   6 C                                       1.7240518
    48   6 C       55   6 C                                       1.3615533
    55   6 C       56  16 S                                       1.7243322
    49   6 C       57   6 C                                       1.3564603
    56  16 S       57   6 C                                       1.7252294
    12   6 C       58   1 H                                       1.0821552
    14   6 C       59   1 H                                       1.0713784
    15   6 C       60   1 H                                       1.0704572
    19   6 C       61   1 H                                       1.0792401
    20   6 C       62   1 H                                       1.0793028
    23   6 C       63   1 H                                       1.0788099
    25   6 C       64   1 H                                       1.0918121
    25   6 C       65   1 H                                       1.0915284
    26   6 C       66   1 H                                       1.0879137
    26   6 C       67   1 H                                       1.0877812
    26   6 C       68   1 H                                       1.0873421
    27   6 C       69   1 H                                       1.0916092
    27   6 C       70   1 H                                       1.0918716
    28   6 C       71   1 H                                       1.0878011
    28   6 C       72   1 H                                       1.0878683
    28   6 C       73   1 H                                       1.0874264
    31   6 C       74   1 H                                       1.0793385
    32   6 C       75   1 H                                       1.0784553
    34   6 C       76   1 H                                       1.0791518
    36   6 C       77   1 H                                       1.0704860
    37   6 C       78   1 H                                       1.0698532 (min)
    40   6 C       79   1 H                                       1.0838588
    52   6 C       80   1 H                                       1.0714378
    54   6 C       81   1 H                                       1.0714014
    55   6 C       82   1 H                                       1.0713943
    57   6 C       83   1 H                                       1.0714468

 * 5 distinct bonds (by element types)

   Z      Z             #   av. dist./Å        max./Å        min./Å
   1 H    6 C          26     1.0808124     1.0918716     1.0698532
   6 C    6 C          38     1.4094926     1.5406680     1.3561335
   6 C    7 N           4     1.1484499     1.1492256     1.1476906
   6 C    8 O           6     1.3017335     1.3647043     1.2102336
   6 C   16 S           4     1.7248818     1.7259139     1.7240518


optimized geometry written to: xtbopt.mol


           -------------------------------------------------
          | TOTAL ENERGY             -148.176167333746 Eh   |
          | GRADIENT NORM               0.000268687028 Eh/α |
          | HOMO-LUMO GAP               1.330463029787 eV   |
           -------------------------------------------------

------------------------------------------------------------------------
 * finished run on 2021/12/20 at 13:06:43.171     
------------------------------------------------------------------------
 total:
 * wall-time:     0 d,  0 h,  0 min, 40.633 sec
 *  cpu-time:     0 d,  0 h,  0 min, 40.632 sec
 * ratio c/w:     1.000 speedup
 SCF:
 * wall-time:     0 d,  0 h,  0 min,  0.322 sec
 *  cpu-time:     0 d,  0 h,  0 min,  0.322 sec
 * ratio c/w:     1.000 speedup
 ANC optimizer:
 * wall-time:     0 d,  0 h,  0 min, 40.272 sec
 *  cpu-time:     0 d,  0 h,  0 min, 40.271 sec
 * ratio c/w:     1.000 speedup

