      -----------------------------------------------------------      
     |                   =====================                   |     
     |                           x T B                           |     
     |                   =====================                   |     
     |                         S. Grimme                         |     
     |          Mulliken Center for Theoretical Chemistry        |     
     |                    University of Bonn                     |     
      -----------------------------------------------------------      

   * xtb version 6.4.1 (unknown) compiled by 'oda6@login1.crc.pitt.edu' on 2021-06-25

   xtb is free software: you can redistribute it and/or modify it under
   the terms of the GNU Lesser General Public License as published by
   the Free Software Foundation, either version 3 of the License, or
   (at your option) any later version.
   
   xtb is distributed in the hope that it will be useful,
   but WITHOUT ANY WARRANTY; without even the implied warranty of
   MERCHANTABILITY or FITNESS FOR A PARTICULAR PURPOSE.  See the
   GNU Lesser General Public License for more details.
   
   Cite this work as:
   * C. Bannwarth, E. Caldeweyher, S. Ehlert, A. Hansen, P. Pracht,
     J. Seibert, S. Spicher, S. Grimme, WIREs Comput. Mol. Sci., 2020, 11,
     e01493. DOI: 10.1002/wcms.1493
   
   for GFN2-xTB:
   * C. Bannwarth, S. Ehlert and S. Grimme., J. Chem. Theory Comput., 2019,
     15, 1652-1671. DOI: 10.1021/acs.jctc.8b01176
   for GFN1-xTB:
   * S. Grimme, C. Bannwarth, P. Shushkov, J. Chem. Theory Comput., 2017,
     13, 1989-2009. DOI: 10.1021/acs.jctc.7b00118
   for GFN0-xTB:
   * P. Pracht, E. Caldeweyher, S. Ehlert, S. Grimme, ChemRxiv, 2019, preprint.
     DOI: 10.26434/chemrxiv.8326202.v1
   for GFN-FF:
   * S. Spicher and S. Grimme, Angew. Chem. Int. Ed., 2020, 59, 15665-15673.
     DOI: 10.1002/anie.202004239
   
   for DFT-D4:
   * E. Caldeweyher, C. Bannwarth and S. Grimme, J. Chem. Phys., 2017,
     147, 034112. DOI: 10.1063/1.4993215
   * E. Caldeweyher, S. Ehlert, A. Hansen, H. Neugebauer, S. Spicher,
     C. Bannwarth and S. Grimme, J. Chem. Phys., 2019, 150, 154122.
     DOI: 10.1063/1.5090222
   * E. Caldeweyher, J.-M. Mewes, S. Ehlert and S. Grimme, Phys. Chem. Chem. Phys.
     2020, 22, 8499-8512. DOI: 10.1039/D0CP00502A
   
   for sTDA-xTB:
   * S. Grimme and C. Bannwarth, J. Chem. Phys., 2016, 145, 054103.
     DOI: 10.1063/1.4959605
   
   in the mass-spec context:
   * V. Asgeirsson, C. Bauer and S. Grimme, Chem. Sci., 2017, 8, 4879.
     DOI: 10.1039/c7sc00601b
   * J. Koopman and S. Grimme, ACS Omega 2019, 4, 12, 15120-15133.
     DOI: 10.1021/acsomega.9b02011
   
   for metadynamics refer to:
   * S. Grimme, J. Chem. Theory Comput., 2019, 155, 2847-2862
     DOI: 10.1021/acs.jctc.9b00143
   
   for SPH calculations refer to:
   * S. Spicher and S. Grimme, J. Chem. Theory Comput., 2021, 17, 1701-1714
     DOI: 10.1021/acs.jctc.0c01306
   
   with help from (in alphabetical order)
   P. Atkinson, C. Bannwarth, F. Bohle, G. Brandenburg, E. Caldeweyher
   M. Checinski, S. Dohm, S. Ehlert, S. Ehrlich, I. Gerasimov, J. Koopman
   C. Lavigne, S. Lehtola, F. März, M. Müller, F. Musil, H. Neugebauer
   J. Pisarek, C. Plett, P. Pracht, J. Seibert, P. Shushkov, S. Spicher
   M. Stahn, M. Steiner, T. Strunk, J. Stückrath, T. Rose, and J. Unsleber
   
 * started run on 2022/01/10 at 18:07:01.200     

           -------------------------------------------------
          |                Calculation Setup                |
           -------------------------------------------------

          program call               : /ihome/ghutchison/oda6/xtb/xtb-641/bin//xtb DTNIC6.mol -opt
          hostname                   : smp-n154
          coordinate file            : DTNIC6.mol
          omp threads                :                     1
          number of atoms            :                    98
          number of electrons        :                   296
          charge                     :                     0
          spin                       :                   0.0
          first test random number   :      0.66599725122087

   ID    Z sym.   atoms
    1    8 O      1, 58
    2    6 C      2-11, 13, 15-25, 27-33, 35-47, 49, 51-57, 59-62
    3    7 N      12, 14, 48, 50
    4   16 S      26, 34
    5    1 H      63-98
########################################################################
[WARNING] Please study the warnings concerning your input carefully
-1- prog_main_parseArguments: the use of '-opt' is discouraged, please use '--opt' next time
########################################################################

           -------------------------------------------------
          |                 G F N 2 - x T B                 |
           -------------------------------------------------

        Reference                      10.1021/acs.jctc.8b01176
      * Hamiltonian:
        H0-scaling (s, p, d)           1.850000    2.230000    2.230000
        zeta-weighting                 0.500000
      * Dispersion:
        s8                             2.700000
        a1                             0.520000
        a2                             5.000000
        s9                             5.000000
      * Repulsion:
        kExp                           1.500000    1.000000
        rExp                           1.000000
      * Coulomb:
        alpha                          2.000000
        third order                    shell-resolved
        anisotropic                    true
        a3                             3.000000
        a5                             4.000000
        cn-shift                       1.200000
        cn-exp                         4.000000
        max-rad                        5.000000


          ...................................................
          :                      SETUP                      :
          :.................................................:
          :  # basis functions                 296          :
          :  # atomic orbitals                 294          :
          :  # shells                          162          :
          :  # electrons                       296          :
          :  max. iterations                   250          :
          :  Hamiltonian                  GFN2-xTB          :
          :  restarted?                      false          :
          :  GBSA solvation                  false          :
          :  PC potential                    false          :
          :  electronic temp.          300.0000000     K    :
          :  accuracy                    1.0000000          :
          :  -> integral cutoff          0.2500000E+02      :
          :  -> integral neglect         0.1000000E-07      :
          :  -> SCF convergence          0.1000000E-05 Eh   :
          :  -> wf. convergence          0.1000000E-03 e    :
          :  Broyden damping             0.4000000          :
          ...................................................

 iter      E             dE          RMSdq      gap      omega  full diag
   1   -162.5583933 -0.162558E+03  0.471E+00    1.58       0.0  T
   2   -162.6270037 -0.686104E-01  0.292E+00    1.27       1.0  T
   3   -162.4361610  0.190843E+00  0.217E+00    0.81       1.0  T
   4   -162.7556611 -0.319500E+00  0.586E-01    0.97       1.0  T
   5   -162.7777600 -0.220989E-01  0.174E-01    0.83       1.0  T
   6   -162.7786513 -0.891334E-03  0.938E-02    0.94       1.0  T
   7   -162.7792527 -0.601340E-03  0.410E-02    0.92       1.0  T
   8   -162.7793823 -0.129669E-03  0.161E-02    0.92       1.0  T
   9   -162.7793885 -0.618825E-05  0.782E-03    0.92       1.3  T
  10   -162.7793913 -0.278224E-05  0.300E-03    0.92       3.4  T
  11   -162.7793916 -0.335443E-06  0.164E-03    0.92       6.2  T
  12   -162.7793918 -0.162972E-06  0.699E-04    0.92      14.4  T
  13   -162.7793918 -0.132881E-07  0.378E-04    0.92      26.7  T

   *** convergence criteria satisfied after 13 iterations ***

         #    Occupation            Energy/Eh            Energy/eV
      -------------------------------------------------------------
         1        2.0000           -0.7454202             -20.2839
       ...           ...                  ...                  ...
       142        2.0000           -0.4102722             -11.1641
       143        2.0000           -0.4074830             -11.0882
       144        2.0000           -0.4047639             -11.0142
       145        2.0000           -0.4001275             -10.8880
       146        2.0000           -0.3987783             -10.8513
       147        2.0000           -0.3844872             -10.4624
       148        2.0000           -0.3657626              -9.9529 (HOMO)
       149                         -0.3319640              -9.0332 (LUMO)
       150                         -0.3263198              -8.8796
       151                         -0.3231827              -8.7942
       152                         -0.3184765              -8.6662
       153                         -0.2849175              -7.7530
       ...                                ...                  ...
       294                          1.0792390              29.3676
      -------------------------------------------------------------
                  HL-Gap            0.0337986 Eh            0.9197 eV
             Fermi-level           -0.3488646 Eh           -9.4931 eV

 SCC (total)                   0 d,  0 h,  0 min,  0.394 sec
 SCC setup                      ...        0 min,  0.001 sec (  0.312%)
 Dispersion                     ...        0 min,  0.004 sec (  0.996%)
 classical contributions        ...        0 min,  0.000 sec (  0.093%)
 integral evaluation            ...        0 min,  0.039 sec (  9.912%)
 iterations                     ...        0 min,  0.203 sec ( 51.636%)
 molecular gradient             ...        0 min,  0.144 sec ( 36.646%)
 printout                       ...        0 min,  0.002 sec (  0.391%)

         :::::::::::::::::::::::::::::::::::::::::::::::::::::
         ::                     SUMMARY                     ::
         :::::::::::::::::::::::::::::::::::::::::::::::::::::
         :: total energy            -160.109303190892 Eh    ::
         :: gradient norm              0.216126670668 Eh/a0 ::
         :: HOMO-LUMO gap              0.919706415192 eV    ::
         ::.................................................::
         :: SCC energy              -162.779391806665 Eh    ::
         :: -> isotropic ES            0.093473846289 Eh    ::
         :: -> anisotropic ES          0.014230710553 Eh    ::
         :: -> anisotropic XC          0.132036249880 Eh    ::
         :: -> dispersion             -0.144068146082 Eh    ::
         :: repulsion energy           2.669930155929 Eh    ::
         :: add. restraining           0.000000000000 Eh    ::
         :: total charge              -0.000000000102 e     ::
         :::::::::::::::::::::::::::::::::::::::::::::::::::::

      ----------------------------------------------------------- 
     |                   =====================                   |
     |                        A N C O P T                        |
     |                   =====================                   |
     |               Approximate Normal Coordinate               |
     |                Rational Function Optimizer                |
      ----------------------------------------------------------- 

          ...................................................
          :                      SETUP                      :
          :.................................................:
          :   optimization level            normal          :
          :   max. optcycles                   294          :
          :   ANC micro-cycles                  20          :
          :   degrees of freedom               288          :
          :.................................................:
          :   RF solver                   davidson          :
          :   write xtbopt.log                true          :
          :   linear?                        false          :
          :   energy convergence         0.5000000E-05 Eh   :
          :   grad. convergence          0.1000000E-02 Eh/α :
          :   maximium RF displ.         1.0000000          :
          :   Hlow (freq-cutoff)         0.1000000E-01      :
          :   Hmax (freq-cutoff)         5.0000000          :
          :   S6 in model hess.         20.0000000          :
          ...................................................

generating ANC from model Hessian ...
Using Lindh-Hessian (1995)
 Shifting diagonal of input Hessian by   1.006736260405751E-002
 Lowest  eigenvalues of input Hessian
    0.010000    0.010064    0.000000    0.000000    0.000000    0.000000
    0.000000    0.000000    0.010092    0.010110    0.010143    0.010147
    0.010210    0.010230    0.010277    0.010416    0.010498    0.010568
 Highest eigenvalues
    2.143222    2.148344    2.504337    2.504931    2.557989    2.558232
 

........................................................................
.............................. CYCLE    1 ..............................
........................................................................
   1   -162.7793918 -0.162779E+03  0.169E-04    0.92       0.0  T
   2   -162.7793918  0.862599E-10  0.141E-04    0.92      71.8  T
   3   -162.7793918 -0.157692E-08  0.662E-05    0.92     152.5  T
     SCC iter.                  ...        0 min,  0.052 sec
     gradient                   ...        0 min,  0.139 sec
 * total energy  :  -160.1093032 Eh     change       -0.6054421E-08 Eh
   gradient norm :     0.2161290 Eh/α   predicted     0.0000000E+00 (-100.00%)
   displ. norm   :     0.3555564 α      lambda       -0.4413842E-01
   maximum displ.:     0.0869679 α      in ANC's #184, #163, #64, ...

........................................................................
.............................. CYCLE    2 ..............................
........................................................................
   1   -162.9108296 -0.162911E+03  0.218E-01    0.92       0.0  T
   2   -162.9116539 -0.824362E-03  0.134E-01    0.96       1.0  T
   3   -162.9117115 -0.575657E-04  0.792E-02    0.95       1.0  T
   4   -162.9118407 -0.129164E-03  0.310E-02    0.93       1.0  T
   5   -162.9119102 -0.695347E-04  0.118E-02    0.96       1.0  T
   6   -162.9119238 -0.135574E-04  0.418E-03    0.95       2.4  T
   7   -162.9119244 -0.607711E-06  0.198E-03    0.95       5.1  T
   8   -162.9119245 -0.180533E-06  0.945E-04    0.95      10.7  T
   9   -162.9119246 -0.267860E-07  0.502E-04    0.95      20.1  T
     SCC iter.                  ...        0 min,  0.136 sec
     gradient                   ...        0 min,  0.131 sec
 * total energy  :  -160.1390019 Eh     change       -0.2969869E-01 Eh
   gradient norm :     0.0928284 Eh/α   predicted    -0.2488576E-01 ( -16.21%)
   displ. norm   :     0.4591931 α      lambda       -0.1683016E-01
   maximum displ.:     0.1388407 α      in ANC's #11, #67, #58, ...

........................................................................
.............................. CYCLE    3 ..............................
........................................................................
   1   -162.9649396 -0.162965E+03  0.369E-01    0.90       0.0  T
   2   -162.9657584 -0.818856E-03  0.208E-01    0.97       1.0  T
   3   -162.9652417  0.516772E-03  0.108E-01    0.93       1.0  T
   4   -162.9660160 -0.774380E-03  0.251E-02    0.94       1.0  T
   5   -162.9660656 -0.495140E-04  0.117E-02    0.95       1.0  T
   6   -162.9660756 -0.999544E-05  0.500E-03    0.95       2.0  T
   7   -162.9660764 -0.895754E-06  0.235E-03    0.95       4.3  T
   8   -162.9660768 -0.311164E-06  0.858E-04    0.95      11.8  T
   9   -162.9660768 -0.286479E-07  0.481E-04    0.95      21.0  T
     SCC iter.                  ...        0 min,  0.135 sec
     gradient                   ...        0 min,  0.131 sec
 * total energy  :  -160.1440907 Eh     change       -0.5088804E-02 Eh
   gradient norm :     0.0456030 Eh/α   predicted    -0.1018950E-01 ( 100.23%)
   displ. norm   :     0.4681882 α      lambda       -0.1177324E-01
   maximum displ.:     0.1937930 α      in ANC's #11, #25, #64, ...

........................................................................
.............................. CYCLE    4 ..............................
........................................................................
   1   -162.9858397 -0.162986E+03  0.394E-01    0.95       0.0  T
   2   -162.9860973 -0.257588E-03  0.221E-01    1.00       1.0  T
   3   -162.9852760  0.821309E-03  0.869E-02    0.95       1.0  T
   4   -162.9862255 -0.949443E-03  0.204E-02    0.99       1.0  T
   5   -162.9862662 -0.407825E-04  0.866E-03    0.99       1.2  T
   6   -162.9862695 -0.327356E-05  0.362E-03    0.99       2.8  T
   7   -162.9862699 -0.434146E-06  0.135E-03    0.99       7.5  T
   8   -162.9862701 -0.113926E-06  0.581E-04    0.99      17.4  T
   9   -162.9862701 -0.831068E-08  0.339E-04    0.99      29.8  T
     SCC iter.                  ...        0 min,  0.135 sec
     gradient                   ...        0 min,  0.132 sec
 * total energy  :  -160.1464436 Eh     change       -0.2352947E-02 Eh
   gradient norm :     0.0512172 Eh/α   predicted    -0.7176968E-02 ( 205.02%)
   displ. norm   :     0.2377865 α      lambda       -0.5377176E-02
   maximum displ.:     0.0955098 α      in ANC's #11, #1, #12, ...

........................................................................
.............................. CYCLE    5 ..............................
........................................................................
   1   -162.9681916 -0.162968E+03  0.203E-01    1.00       0.0  T
   2   -162.9683666 -0.175032E-03  0.114E-01    1.00       1.0  T
   3   -162.9681369  0.229712E-03  0.543E-02    0.99       1.0  T
   4   -162.9684088 -0.271848E-03  0.137E-02    1.00       1.0  T
   5   -162.9684282 -0.194876E-04  0.538E-03    1.00       1.9  T
   6   -162.9684307 -0.245804E-05  0.214E-03    1.00       4.7  T
   7   -162.9684308 -0.110569E-06  0.105E-03    1.00       9.6  T
   8   -162.9684309 -0.813054E-07  0.469E-04    1.00      21.6  T
   9   -162.9684309 -0.121860E-07  0.198E-04    1.00      51.0  T
     SCC iter.                  ...        0 min,  0.134 sec
     gradient                   ...        0 min,  0.132 sec
 * total energy  :  -160.1493943 Eh     change       -0.2950693E-02 Eh
   gradient norm :     0.0164082 Eh/α   predicted    -0.2840615E-02 (  -3.73%)
   displ. norm   :     0.3378095 α      lambda       -0.1920181E-02
   maximum displ.:     0.1142050 α      in ANC's #34, #36, #4, ...

........................................................................
.............................. CYCLE    6 ..............................
........................................................................
   1   -162.9596999 -0.162960E+03  0.257E-01    0.99       0.0  T
   2   -162.9597696 -0.696978E-04  0.144E-01    1.02       1.0  T
   3   -162.9591754  0.594190E-03  0.690E-02    0.99       1.0  T
   4   -162.9598481 -0.672619E-03  0.706E-03    1.01       1.4  T
   5   -162.9598492 -0.116240E-05  0.421E-03    1.02       2.4  T
   6   -162.9598500 -0.780989E-06  0.180E-03    1.02       5.6  T
   7   -162.9598502 -0.205223E-06  0.678E-04    1.02      14.9  T
   8   -162.9598502 -0.291134E-07  0.294E-04    1.02      34.3  T
     SCC iter.                  ...        0 min,  0.125 sec
     gradient                   ...        0 min,  0.132 sec
 * total energy  :  -160.1494512 Eh     change       -0.5685722E-04 Eh
   gradient norm :     0.0252270 Eh/α   predicted    -0.1069655E-02 (1781.30%)
   displ. norm   :     0.3262632 α      lambda       -0.2943323E-02
   maximum displ.:     0.1176349 α      in ANC's #22, #1, #25, ...

........................................................................
.............................. CYCLE    7 ..............................
........................................................................
   1   -162.9677733 -0.162968E+03  0.182E-01    1.02       0.0  T
   2   -162.9678246 -0.512873E-04  0.103E-01    1.06       1.0  T
   3   -162.9673579  0.466724E-03  0.616E-02    1.01       1.0  T
   4   -162.9678875 -0.529622E-03  0.969E-03    1.04       1.0  T
   5   -162.9678947 -0.720489E-05  0.407E-03    1.05       2.5  T
   6   -162.9678953 -0.584191E-06  0.177E-03    1.05       5.7  T
   7   -162.9678954 -0.124896E-06  0.698E-04    1.05      14.5  T
   8   -162.9678954 -0.325094E-07  0.324E-04    1.05      31.2  T
     SCC iter.                  ...        0 min,  0.120 sec
     gradient                   ...        0 min,  0.131 sec
 * total energy  :  -160.1511071 Eh     change       -0.1655881E-02 Eh
   gradient norm :     0.0152490 Eh/α   predicted    -0.1628317E-02 (  -1.66%)
   displ. norm   :     0.3254843 α      lambda       -0.1151654E-02
   maximum displ.:     0.1298941 α      in ANC's #22, #25, #12, ...

........................................................................
.............................. CYCLE    8 ..............................
........................................................................
   1   -162.9709104 -0.162971E+03  0.155E-01    1.05       0.0  T
   2   -162.9709324 -0.220386E-04  0.877E-02    1.08       1.0  T
   3   -162.9705522  0.380254E-03  0.548E-02    1.04       1.0  T
   4   -162.9709785 -0.426358E-03  0.636E-03    1.07       1.6  T
   5   -162.9709804 -0.182834E-05  0.333E-03    1.07       3.0  T
   6   -162.9709807 -0.364092E-06  0.153E-03    1.07       6.6  T
   7   -162.9709809 -0.141639E-06  0.597E-04    1.07      16.9  T
   8   -162.9709809 -0.198127E-07  0.272E-04    1.07      37.1  T
     SCC iter.                  ...        0 min,  0.120 sec
     gradient                   ...        0 min,  0.131 sec
 * total energy  :  -160.1514910 Eh     change       -0.3839323E-03 Eh
   gradient norm :     0.0177085 Eh/α   predicted    -0.6368319E-03 (  65.87%)
   displ. norm   :     0.4700614 α      lambda       -0.1989020E-02
   maximum displ.:     0.1915253 α      in ANC's #22, #25, #4, ...

........................................................................
.............................. CYCLE    9 ..............................
........................................................................
   1   -162.9820184 -0.162982E+03  0.194E-01    1.09       0.0  T
   2   -162.9820482 -0.297879E-04  0.111E-01    1.13       1.0  T
   3   -162.9813129  0.735300E-03  0.766E-02    1.08       1.0  T
   4   -162.9821411 -0.828222E-03  0.849E-03    1.12       1.2  T
   5   -162.9821438 -0.266170E-05  0.488E-03    1.12       2.1  T
   6   -162.9821447 -0.948380E-06  0.212E-03    1.12       4.8  T
   7   -162.9821450 -0.265577E-06  0.884E-04    1.12      11.4  T
   8   -162.9821450 -0.434731E-07  0.400E-04    1.12      25.3  T
     SCC iter.                  ...        0 min,  0.120 sec
     gradient                   ...        0 min,  0.131 sec
 * total energy  :  -160.1521295 Eh     change       -0.6384691E-03 Eh
   gradient norm :     0.0298894 Eh/α   predicted    -0.1214257E-02 (  90.18%)
   displ. norm   :     0.2146643 α      lambda       -0.9520383E-03
   maximum displ.:     0.0817735 α      in ANC's #22, #2, #8, ...

........................................................................
.............................. CYCLE   10 ..............................
........................................................................
   1   -162.9782016 -0.162978E+03  0.952E-02    1.11       0.0  T
   2   -162.9782161 -0.145410E-04  0.534E-02    1.13       1.0  T
   3   -162.9781406  0.755224E-04  0.253E-02    1.11       1.0  T
   4   -162.9782260 -0.854165E-04  0.403E-03    1.13       2.5  T
   5   -162.9782269 -0.927519E-06  0.213E-03    1.13       4.7  T
   6   -162.9782271 -0.198834E-06  0.922E-04    1.13      11.0  T
   7   -162.9782272 -0.358024E-07  0.416E-04    1.13      24.3  T
     SCC iter.                  ...        0 min,  0.106 sec
     gradient                   ...        0 min,  0.131 sec
 * total energy  :  -160.1527578 Eh     change       -0.6283256E-03 Eh
   gradient norm :     0.0090644 Eh/α   predicted    -0.4979566E-03 ( -20.75%)
   displ. norm   :     0.3230547 α      lambda       -0.5717415E-03
   maximum displ.:     0.1175948 α      in ANC's #22, #8, #1, ...

........................................................................
.............................. CYCLE   11 ..............................
........................................................................
   1   -162.9802284 -0.162980E+03  0.103E-01    1.13       0.0  T
   2   -162.9802436 -0.152030E-04  0.581E-02    1.14       1.0  T
   3   -162.9801565  0.870678E-04  0.279E-02    1.13       1.0  T
   4   -162.9802557 -0.991443E-04  0.440E-03    1.14       2.3  T
   5   -162.9802566 -0.912211E-06  0.250E-03    1.14       4.0  T
   6   -162.9802569 -0.301081E-06  0.985E-04    1.14      10.3  T
   7   -162.9802569 -0.439287E-07  0.454E-04    1.14      22.2  T
     SCC iter.                  ...        0 min,  0.106 sec
     gradient                   ...        0 min,  0.131 sec
 * total energy  :  -160.1530697 Eh     change       -0.3119433E-03 Eh
   gradient norm :     0.0136112 Eh/α   predicted    -0.3157072E-03 (   1.21%)
   displ. norm   :     0.5225061 α      lambda       -0.9444746E-03
   maximum displ.:     0.1763671 α      in ANC's #2, #22, #8, ...

........................................................................
.............................. CYCLE   12 ..............................
........................................................................
   1   -162.9799251 -0.162980E+03  0.186E-01    1.14       0.0  T
   2   -162.9799695 -0.444133E-04  0.104E-01    1.16       1.0  T
   3   -162.9797851  0.184454E-03  0.413E-02    1.15       1.0  T
   4   -162.9799967 -0.211598E-03  0.732E-03    1.16       1.4  T
   5   -162.9799995 -0.284175E-05  0.427E-03    1.16       2.4  T
   6   -162.9800006 -0.108546E-05  0.164E-03    1.16       6.2  T
   7   -162.9800007 -0.922831E-07  0.756E-04    1.16      13.4  T
   8   -162.9800007 -0.339106E-07  0.313E-04    1.16      32.2  T
     SCC iter.                  ...        0 min,  0.121 sec
     gradient                   ...        0 min,  0.131 sec
 * total energy  :  -160.1530111 Eh     change        0.5863739E-04 Eh
   gradient norm :     0.0315805 Eh/α   predicted    -0.6011642E-03 (*******%)
   displ. norm   :     0.1493069 α      lambda       -0.1190255E-02
   maximum displ.:     0.0515297 α      in ANC's #4, #1, #12, ...

........................................................................
.............................. CYCLE   13 ..............................
........................................................................
   1   -162.9840598 -0.162984E+03  0.114E-01    1.17       0.0  T
   2   -162.9840783 -0.184861E-04  0.634E-02    1.18       1.0  T
   3   -162.9840531  0.252005E-04  0.158E-02    1.17       1.0  T
   4   -162.9840860 -0.329406E-04  0.354E-03    1.17       2.9  T
   5   -162.9840869 -0.814398E-06  0.183E-03    1.17       5.5  T
   6   -162.9840870 -0.109208E-06  0.791E-04    1.17      12.8  T
   7   -162.9840870 -0.380602E-07  0.278E-04    1.17      36.3  T
     SCC iter.                  ...        0 min,  0.107 sec
     gradient                   ...        0 min,  0.131 sec
 * total energy  :  -160.1536822 Eh     change       -0.6711072E-03 Eh
   gradient norm :     0.0082570 Eh/α   predicted    -0.6083959E-03 (  -9.34%)
   displ. norm   :     0.3007999 α      lambda       -0.3937459E-03
   maximum displ.:     0.1144644 α      in ANC's #8, #1, #2, ...

........................................................................
.............................. CYCLE   14 ..............................
........................................................................
   1   -162.9807103 -0.162981E+03  0.719E-02    1.18       0.0  T
   2   -162.9807145 -0.422232E-05  0.419E-02    1.19       1.0  T
   3   -162.9806244  0.901332E-04  0.281E-02    1.18       1.0  T
   4   -162.9807254 -0.101052E-03  0.341E-03    1.19       3.0  T
   5   -162.9807258 -0.392157E-06  0.186E-03    1.19       5.4  T
   6   -162.9807259 -0.112556E-06  0.924E-04    1.19      10.9  T
   7   -162.9807260 -0.474770E-07  0.343E-04    1.19      29.4  T
     SCC iter.                  ...        0 min,  0.105 sec
     gradient                   ...        0 min,  0.132 sec
 * total energy  :  -160.1539630 Eh     change       -0.2808172E-03 Eh
   gradient norm :     0.0071090 Eh/α   predicted    -0.2146878E-03 ( -23.55%)
   displ. norm   :     0.5179317 α      lambda       -0.5370198E-03
   maximum displ.:     0.2139959 α      in ANC's #11, #8, #1, ...

........................................................................
.............................. CYCLE   15 ..............................
........................................................................
   1   -162.9843805 -0.162984E+03  0.961E-02    1.19       0.0  T
   2   -162.9843899 -0.937060E-05  0.554E-02    1.20       1.0  T
   3   -162.9843025  0.874323E-04  0.285E-02    1.19       1.0  T
   4   -162.9843992 -0.967736E-04  0.494E-03    1.20       2.0  T
   5   -162.9844011 -0.182738E-05  0.235E-03    1.20       4.3  T
   6   -162.9844013 -0.259336E-06  0.117E-03    1.20       8.6  T
   7   -162.9844014 -0.784876E-07  0.437E-04    1.20      23.1  T
   8   -162.9844014 -0.902125E-08  0.218E-04    1.20      46.3  T
     SCC iter.                  ...        0 min,  0.119 sec
     gradient                   ...        0 min,  0.132 sec
 * total energy  :  -160.1544051 Eh     change       -0.4420877E-03 Eh
   gradient norm :     0.0087892 Eh/α   predicted    -0.3405449E-03 ( -22.97%)
   displ. norm   :     0.6895249 α      lambda       -0.6674883E-03
   maximum displ.:     0.2773150 α      in ANC's #8, #11, #1, ...

........................................................................
.............................. CYCLE   16 ..............................
........................................................................
   1   -162.9797105 -0.162980E+03  0.143E-01    1.20       0.0  T
   2   -162.9797306 -0.200441E-04  0.814E-02    1.21       1.0  T
   3   -162.9796099  0.120701E-03  0.326E-02    1.20       1.0  T
   4   -162.9797441 -0.134265E-03  0.628E-03    1.21       1.6  T
   5   -162.9797467 -0.261129E-05  0.326E-03    1.21       3.1  T
   6   -162.9797471 -0.369957E-06  0.157E-03    1.21       6.4  T
   7   -162.9797473 -0.148477E-06  0.543E-04    1.21      18.6  T
   8   -162.9797473 -0.176413E-07  0.259E-04    1.21      39.0  T
     SCC iter.                  ...        0 min,  0.119 sec
     gradient                   ...        0 min,  0.133 sec
 * total energy  :  -160.1549685 Eh     change       -0.5633745E-03 Eh
   gradient norm :     0.0100954 Eh/α   predicted    -0.4924230E-03 ( -12.59%)
   displ. norm   :     0.7077888 α      lambda       -0.7566400E-03
   maximum displ.:     0.3186640 α      in ANC's #11, #8, #2, ...

........................................................................
.............................. CYCLE   17 ..............................
........................................................................
   1   -162.9818954 -0.162982E+03  0.131E-01    1.21       0.0  T
   2   -162.9819074 -0.120308E-04  0.755E-02    1.21       1.0  T
   3   -162.9818466  0.608245E-04  0.245E-02    1.21       1.0  T
   4   -162.9819139 -0.672644E-04  0.454E-03    1.21       2.2  T
   5   -162.9819153 -0.148813E-05  0.224E-03    1.21       4.5  T
   6   -162.9819155 -0.163254E-06  0.127E-03    1.21       8.0  T
   7   -162.9819156 -0.124145E-06  0.407E-04    1.21      24.8  T
   8   -162.9819156 -0.966068E-08  0.193E-04    1.21      52.4  T
     SCC iter.                  ...        0 min,  0.120 sec
     gradient                   ...        0 min,  0.131 sec
 * total energy  :  -160.1555341 Eh     change       -0.5656083E-03 Eh
   gradient norm :     0.0128424 Eh/α   predicted    -0.5678495E-03 (   0.40%)
   displ. norm   :     0.7163884 α      lambda       -0.6576019E-03
   maximum displ.:     0.2997340 α      in ANC's #8, #2, #11, ...

........................................................................
.............................. CYCLE   18 ..............................
........................................................................
   1   -162.9756460 -0.162976E+03  0.147E-01    1.21       0.0  T
   2   -162.9756603 -0.142737E-04  0.842E-02    1.22       1.0  T
   3   -162.9755277  0.132568E-03  0.335E-02    1.21       1.0  T
   4   -162.9756742 -0.146472E-03  0.533E-03    1.22       1.9  T
   5   -162.9756755 -0.128201E-05  0.302E-03    1.22       3.3  T
   6   -162.9756758 -0.342793E-06  0.144E-03    1.22       7.0  T
   7   -162.9756760 -0.140465E-06  0.474E-04    1.22      21.3  T
   8   -162.9756760 -0.116823E-07  0.217E-04    1.22      46.5  T
     SCC iter.                  ...        0 min,  0.121 sec
     gradient                   ...        0 min,  0.131 sec
 * total energy  :  -160.1560688 Eh     change       -0.5346553E-03 Eh
   gradient norm :     0.0097229 Eh/α   predicted    -0.4975521E-03 (  -6.94%)
   displ. norm   :     0.6598570 α      lambda       -0.6768779E-03
   maximum displ.:     0.2821174 α      in ANC's #11, #2, #8, ...

........................................................................
.............................. CYCLE   19 ..............................
........................................................................
   1   -162.9783456 -0.162978E+03  0.115E-01    1.22       0.0  T
   2   -162.9783515 -0.591490E-05  0.670E-02    1.23       1.0  T
   3   -162.9782389  0.112581E-03  0.300E-02    1.22       1.0  T
   4   -162.9783612 -0.122236E-03  0.373E-03    1.22       2.7  T
   5   -162.9783622 -0.998834E-06  0.200E-03    1.22       5.1  T
   6   -162.9783623 -0.154601E-06  0.113E-03    1.22       8.9  T
   7   -162.9783624 -0.872217E-07  0.376E-04    1.22      26.9  T
   8   -162.9783624 -0.984679E-08  0.162E-04    1.22      62.3  T
     SCC iter.                  ...        0 min,  0.121 sec
     gradient                   ...        0 min,  0.131 sec
 * total energy  :  -160.1566380 Eh     change       -0.5692660E-03 Eh
   gradient norm :     0.0115139 Eh/α   predicted    -0.4858052E-03 ( -14.66%)
   displ. norm   :     0.7240317 α      lambda       -0.7639900E-03
   maximum displ.:     0.3252140 α      in ANC's #2, #11, #8, ...

........................................................................
.............................. CYCLE   20 ..............................
........................................................................
   1   -162.9816340 -0.162982E+03  0.126E-01    1.23       0.0  T
   2   -162.9816400 -0.594252E-05  0.734E-02    1.23       1.0  T
   3   -162.9815066  0.133401E-03  0.324E-02    1.22       1.0  T
   4   -162.9816516 -0.145015E-03  0.405E-03    1.23       2.5  T
   5   -162.9816526 -0.979135E-06  0.228E-03    1.23       4.4  T
   6   -162.9816528 -0.189516E-06  0.111E-03    1.23       9.1  T
   7   -162.9816528 -0.860205E-07  0.414E-04    1.23      24.4  T
   8   -162.9816529 -0.994334E-08  0.181E-04    1.23      55.8  T
     SCC iter.                  ...        0 min,  0.120 sec
     gradient                   ...        0 min,  0.131 sec
 * total energy  :  -160.1572748 Eh     change       -0.6367713E-03 Eh
   gradient norm :     0.0095753 Eh/α   predicted    -0.5822501E-03 (  -8.56%)
   displ. norm   :     0.7286886 α      lambda       -0.7635555E-03
   maximum displ.:     0.3376380 α      in ANC's #2, #11, #8, ...
 * RMSD in coord.:     0.6889412 α      energy gain  -0.4797160E-01 Eh

generating ANC from model Hessian ...
Using Lindh-Hessian (1995)
 Shifting diagonal of input Hessian by   9.983399126981507E-003
 Lowest  eigenvalues of input Hessian
    0.000000    0.000000    0.000000    0.000000    0.000000    0.000000
    0.010000    0.010007    0.010030    0.010078    0.010152    0.010173
    0.010220    0.010322    0.010423    0.010741    0.010767    0.010997
 Highest eigenvalues
    2.280921    2.287361    2.602868    2.606702    2.654251    2.659817
 

........................................................................
.............................. CYCLE   21 ..............................
........................................................................
   1   -162.9876741 -0.162988E+03  0.120E-01    1.24       0.0  T
   2   -162.9876796 -0.547472E-05  0.701E-02    1.24       1.0  T
   3   -162.9876048  0.747631E-04  0.242E-02    1.24       1.0  T
   4   -162.9876860 -0.811637E-04  0.330E-03    1.24       3.1  T
   5   -162.9876867 -0.732508E-06  0.184E-03    1.24       5.5  T
   6   -162.9876868 -0.149343E-06  0.963E-04    1.24      10.5  T
   7   -162.9876869 -0.607143E-07  0.355E-04    1.24      28.4  T
     SCC iter.                  ...        0 min,  0.106 sec
     gradient                   ...        0 min,  0.131 sec
 * total energy  :  -160.1578977 Eh     change       -0.6228797E-03 Eh
   gradient norm :     0.0110826 Eh/α   predicted     0.0000000E+00 (-100.00%)
   displ. norm   :     0.1168361 α      lambda       -0.2854090E-03
   maximum displ.:     0.0679512 α      in ANC's #1, #3, #5, ...

........................................................................
.............................. CYCLE   22 ..............................
........................................................................
   1   -162.9852690 -0.162985E+03  0.664E-02    1.24       0.0  T
   2   -162.9852745 -0.548199E-05  0.369E-02    1.24       1.0  T
   3   -162.9852691  0.542702E-05  0.816E-03    1.24       1.2  T
   4   -162.9852770 -0.796039E-05  0.169E-03    1.24       6.0  T
   5   -162.9852771 -0.576686E-07  0.978E-04    1.24      10.3  T
   6   -162.9852772 -0.759019E-07  0.334E-04    1.24      30.3  T
     SCC iter.                  ...        0 min,  0.092 sec
     gradient                   ...        0 min,  0.131 sec
 * total energy  :  -160.1580467 Eh     change       -0.1489982E-03 Eh
   gradient norm :     0.0063165 Eh/α   predicted    -0.1446566E-03 (  -2.91%)
   displ. norm   :     0.2956809 α      lambda       -0.6155428E-03
   maximum displ.:     0.1524081 α      in ANC's #1, #4, #8, ...

........................................................................
.............................. CYCLE   23 ..............................
........................................................................
   1   -162.9809701 -0.162981E+03  0.870E-02    1.23       0.0  T
   2   -162.9809800 -0.986978E-05  0.498E-02    1.23       1.0  T
   3   -162.9809408  0.392041E-04  0.194E-02    1.23       1.0  T
   4   -162.9809859 -0.451288E-04  0.336E-03    1.23       3.0  T
   5   -162.9809865 -0.591466E-06  0.193E-03    1.23       5.2  T
   6   -162.9809868 -0.254287E-06  0.822E-04    1.23      12.3  T
   7   -162.9809868 -0.413953E-07  0.413E-04    1.23      24.5  T
     SCC iter.                  ...        0 min,  0.106 sec
     gradient                   ...        0 min,  0.131 sec
 * total energy  :  -160.1581891 Eh     change       -0.1424460E-03 Eh
   gradient norm :     0.0177443 Eh/α   predicted    -0.3346797E-03 ( 134.95%)
   displ. norm   :     0.1267725 α      lambda       -0.3953803E-03
   maximum displ.:     0.0689262 α      in ANC's #1, #3, #4, ...

........................................................................
.............................. CYCLE   24 ..............................
........................................................................
   1   -162.9837145 -0.162984E+03  0.681E-02    1.23       0.0  T
   2   -162.9837213 -0.676066E-05  0.380E-02    1.23       1.0  T
   3   -162.9837130  0.826228E-05  0.888E-03    1.23       1.1  T
   4   -162.9837239 -0.109312E-04  0.196E-03    1.23       5.1  T
   5   -162.9837241 -0.192049E-06  0.110E-03    1.23       9.2  T
   6   -162.9837242 -0.801582E-07  0.425E-04    1.23      23.8  T
   7   -162.9837242 -0.709329E-08  0.199E-04    1.23      50.9  T
     SCC iter.                  ...        0 min,  0.106 sec
     gradient                   ...        0 min,  0.133 sec
 * total energy  :  -160.1583961 Eh     change       -0.2070060E-03 Eh
   gradient norm :     0.0083780 Eh/α   predicted    -0.2008687E-03 (  -2.96%)
   displ. norm   :     0.1929128 α      lambda       -0.4412887E-03
   maximum displ.:     0.1032851 α      in ANC's #1, #3, #4, ...

........................................................................
.............................. CYCLE   25 ..............................
........................................................................
   1   -162.9882807 -0.162988E+03  0.688E-02    1.23       0.0  T
   2   -162.9882873 -0.661647E-05  0.386E-02    1.23       1.0  T
   3   -162.9882730  0.142601E-04  0.123E-02    1.23       1.0  T
   4   -162.9882906 -0.175303E-04  0.273E-03    1.23       3.7  T
   5   -162.9882909 -0.293154E-06  0.153E-03    1.23       6.6  T
   6   -162.9882910 -0.114446E-06  0.622E-04    1.23      16.2  T
   7   -162.9882910 -0.228323E-07  0.252E-04    1.23      40.1  T
     SCC iter.                  ...        0 min,  0.105 sec
     gradient                   ...        0 min,  0.132 sec
 * total energy  :  -160.1585868 Eh     change       -0.1906833E-03 Eh
   gradient norm :     0.0108235 Eh/α   predicted    -0.2288581E-03 (  20.02%)
   displ. norm   :     0.2594934 α      lambda       -0.2776568E-03
   maximum displ.:     0.1443372 α      in ANC's #1, #4, #3, ...

........................................................................
.............................. CYCLE   26 ..............................
........................................................................
   1   -162.9878326 -0.162988E+03  0.436E-02    1.23       0.0  T
   2   -162.9878338 -0.114405E-05  0.252E-02    1.23       1.0  T
   3   -162.9878309  0.287939E-05  0.568E-03    1.23       1.8  T
   4   -162.9878343 -0.343631E-05  0.136E-03    1.23       7.5  T
   5   -162.9878344 -0.506897E-07  0.810E-04    1.23      12.5  T
   6   -162.9878344 -0.417161E-07  0.278E-04    1.23      36.4  T
     SCC iter.                  ...        0 min,  0.091 sec
     gradient                   ...        0 min,  0.132 sec
 * total energy  :  -160.1588362 Eh     change       -0.2493759E-03 Eh
   gradient norm :     0.0070553 Eh/α   predicted    -0.1481805E-03 ( -40.58%)
   displ. norm   :     0.6867075 α      lambda       -0.7207973E-03
   maximum displ.:     0.3717794 α      in ANC's #1, #3, #4, ...

........................................................................
.............................. CYCLE   27 ..............................
........................................................................
   1   -162.9845480 -0.162985E+03  0.123E-01    1.23       0.0  T
   2   -162.9845556 -0.764363E-05  0.708E-02    1.23       1.0  T
   3   -162.9845170  0.386156E-04  0.192E-02    1.23       1.0  T
   4   -162.9845608 -0.438070E-04  0.375E-03    1.23       2.7  T
   5   -162.9845612 -0.386607E-06  0.217E-03    1.23       4.7  T
   6   -162.9845615 -0.235746E-06  0.752E-04    1.23      13.4  T
   7   -162.9845615 -0.452091E-07  0.248E-04    1.23      40.8  T
     SCC iter.                  ...        0 min,  0.105 sec
     gradient                   ...        0 min,  0.131 sec
 * total energy  :  -160.1592206 Eh     change       -0.3844680E-03 Eh
   gradient norm :     0.0119113 Eh/α   predicted    -0.5303626E-03 (  37.95%)
   displ. norm   :     0.5755468 α      lambda       -0.6971218E-03
   maximum displ.:     0.3320355 α      in ANC's #1, #4, #3, ...

........................................................................
.............................. CYCLE   28 ..............................
........................................................................
   1   -162.9825147 -0.162983E+03  0.119E-01    1.23       0.0  T
   2   -162.9825253 -0.105921E-04  0.676E-02    1.24       1.0  T
   3   -162.9824874  0.379128E-04  0.178E-02    1.23       1.0  T
   4   -162.9825320 -0.446001E-04  0.353E-03    1.24       2.9  T
   5   -162.9825322 -0.233710E-06  0.198E-03    1.24       5.1  T
   6   -162.9825324 -0.177306E-06  0.773E-04    1.24      13.1  T
   7   -162.9825325 -0.556198E-07  0.245E-04    1.24      41.2  T
     SCC iter.                  ...        0 min,  0.105 sec
     gradient                   ...        0 min,  0.131 sec
 * total energy  :  -160.1597344 Eh     change       -0.5137346E-03 Eh
   gradient norm :     0.0109289 Eh/α   predicted    -0.4640307E-03 (  -9.68%)
   displ. norm   :     0.5518839 α      lambda       -0.4824254E-03
   maximum displ.:     0.3184083 α      in ANC's #1, #3, #4, ...

........................................................................
.............................. CYCLE   29 ..............................
........................................................................
   1   -162.9827579 -0.162983E+03  0.896E-02    1.24       0.0  T
   2   -162.9827620 -0.413741E-05  0.516E-02    1.24       1.0  T
   3   -162.9827440  0.180481E-04  0.124E-02    1.23       1.0  T
   4   -162.9827645 -0.205213E-04  0.271E-03    1.24       3.7  T
   5   -162.9827648 -0.325304E-06  0.151E-03    1.24       6.7  T
   6   -162.9827649 -0.822993E-07  0.675E-04    1.24      15.0  T
   7   -162.9827650 -0.424387E-07  0.205E-04    1.24      49.2  T
     SCC iter.                  ...        0 min,  0.105 sec
     gradient                   ...        0 min,  0.131 sec
 * total energy  :  -160.1601685 Eh     change       -0.4340702E-03 Eh
   gradient norm :     0.0075890 Eh/α   predicted    -0.3146859E-03 ( -27.50%)
   displ. norm   :     0.6853785 α      lambda       -0.6807934E-03
   maximum displ.:     0.3996007 α      in ANC's #1, #4, #3, ...

........................................................................
.............................. CYCLE   30 ..............................
........................................................................
   1   -162.9864979 -0.162986E+03  0.115E-01    1.24       0.0  T
   2   -162.9865057 -0.778660E-05  0.662E-02    1.24       1.0  T
   3   -162.9864756  0.300607E-04  0.168E-02    1.24       1.0  T
   4   -162.9865101 -0.345453E-04  0.352E-03    1.24       2.9  T
   5   -162.9865107 -0.557337E-06  0.203E-03    1.24       5.0  T
   6   -162.9865109 -0.167276E-06  0.892E-04    1.24      11.3  T
   7   -162.9865109 -0.696640E-07  0.262E-04    1.24      38.5  T
     SCC iter.                  ...        0 min,  0.106 sec
     gradient                   ...        0 min,  0.131 sec
 * total energy  :  -160.1607695 Eh     change       -0.6010543E-03 Eh
   gradient norm :     0.0049551 Eh/α   predicted    -0.5003068E-03 ( -16.76%)
   displ. norm   :     0.8277051 α      lambda       -0.7264894E-03
   maximum displ.:     0.4854423 α      in ANC's #1, #4, #3, ...

........................................................................
.............................. CYCLE   31 ..............................
........................................................................
   1   -162.9857764 -0.162986E+03  0.136E-01    1.24       0.0  T
   2   -162.9857865 -0.100572E-04  0.784E-02    1.24       1.0  T
   3   -162.9857507  0.357606E-04  0.172E-02    1.24       1.0  T
   4   -162.9857917 -0.409806E-04  0.427E-03    1.24       2.4  T
   5   -162.9857927 -0.974312E-06  0.222E-03    1.24       4.5  T
   6   -162.9857928 -0.149149E-06  0.908E-04    1.24      11.1  T
   7   -162.9857929 -0.660541E-07  0.273E-04    1.24      37.0  T
     SCC iter.                  ...        0 min,  0.106 sec
     gradient                   ...        0 min,  0.131 sec
 * total energy  :  -160.1614319 Eh     change       -0.6623708E-03 Eh
   gradient norm :     0.0060292 Eh/α   predicted    -0.6121179E-03 (  -7.59%)
   displ. norm   :     0.8351353 α      lambda       -0.7861942E-03
   maximum displ.:     0.4975654 α      in ANC's #1, #4, #3, ...

........................................................................
.............................. CYCLE   32 ..............................
........................................................................
   1   -162.9873649 -0.162987E+03  0.151E-01    1.24       0.0  T
   2   -162.9873799 -0.149968E-04  0.865E-02    1.25       1.0  T
   3   -162.9873520  0.279181E-04  0.163E-02    1.24       1.0  T
   4   -162.9873863 -0.342920E-04  0.477E-03    1.24       2.1  T
   5   -162.9873874 -0.107462E-05  0.261E-03    1.24       3.9  T
   6   -162.9873877 -0.311283E-06  0.887E-04    1.24      11.4  T
   7   -162.9873877 -0.586162E-07  0.314E-04    1.24      32.1  T
     SCC iter.                  ...        0 min,  0.106 sec
     gradient                   ...        0 min,  0.131 sec
 * total energy  :  -160.1620886 Eh     change       -0.6567570E-03 Eh
   gradient norm :     0.0074132 Eh/α   predicted    -0.6672868E-03 (   1.60%)
   displ. norm   :     0.8341606 α      lambda       -0.7326717E-03
   maximum displ.:     0.4998899 α      in ANC's #1, #4, #3, ...

........................................................................
.............................. CYCLE   33 ..............................
........................................................................
   1   -162.9862019 -0.162986E+03  0.140E-01    1.24       0.0  T
   2   -162.9862138 -0.118217E-04  0.806E-02    1.24       1.0  T
   3   -162.9862054  0.838024E-05  0.109E-02    1.24       1.0  T
   4   -162.9862178 -0.124424E-04  0.430E-03    1.24       2.3  T
   5   -162.9862186 -0.798618E-06  0.226E-03    1.24       4.5  T
   6   -162.9862189 -0.272497E-06  0.717E-04    1.24      14.1  T
   7   -162.9862189 -0.447763E-07  0.273E-04    1.24      37.1  T
     SCC iter.                  ...        0 min,  0.106 sec
     gradient                   ...        0 min,  0.131 sec
 * total energy  :  -160.1627283 Eh     change       -0.6396617E-03 Eh
   gradient norm :     0.0066566 Eh/α   predicted    -0.6212597E-03 (  -2.88%)
   displ. norm   :     0.8065178 α      lambda       -0.6856944E-03
   maximum displ.:     0.4917302 α      in ANC's #1, #4, #3, ...

........................................................................
.............................. CYCLE   34 ..............................
........................................................................
   1   -162.9883816 -0.162988E+03  0.127E-01    1.24       0.0  T
   2   -162.9883892 -0.750630E-05  0.734E-02    1.24       1.0  T
   3   -162.9883745  0.146740E-04  0.137E-02    1.24       1.0  T
   4   -162.9883923 -0.178332E-04  0.343E-03    1.24       2.9  T
   5   -162.9883927 -0.354387E-06  0.216E-03    1.24       4.7  T
   6   -162.9883930 -0.358477E-06  0.715E-04    1.24      14.1  T
   7   -162.9883931 -0.377076E-07  0.252E-04    1.24      40.0  T
     SCC iter.                  ...        0 min,  0.106 sec
     gradient                   ...        0 min,  0.131 sec
 * total energy  :  -160.1633159 Eh     change       -0.5875627E-03 Eh
   gradient norm :     0.0102273 Eh/α   predicted    -0.5658727E-03 (  -3.69%)
   displ. norm   :     0.7916055 α      lambda       -0.7239449E-03
   maximum displ.:     0.4908906 α      in ANC's #1, #4, #3, ...

........................................................................
.............................. CYCLE   35 ..............................
........................................................................
   1   -162.9821977 -0.162982E+03  0.151E-01    1.24       0.0  T
   2   -162.9822168 -0.191727E-04  0.862E-02    1.24       1.0  T
   3   -162.9821928  0.240737E-04  0.173E-02    1.24       1.0  T
   4   -162.9822247 -0.319052E-04  0.490E-03    1.24       2.1  T
   5   -162.9822253 -0.645273E-06  0.285E-03    1.24       3.5  T
   6   -162.9822259 -0.560974E-06  0.859E-04    1.24      11.8  T
   7   -162.9822259 -0.529021E-07  0.316E-04    1.24      32.0  T
     SCC iter.                  ...        0 min,  0.107 sec
     gradient                   ...        0 min,  0.132 sec
 * total energy  :  -160.1638204 Eh     change       -0.5045037E-03 Eh
   gradient norm :     0.0171362 Eh/α   predicted    -0.5888123E-03 (  16.71%)
   displ. norm   :     0.6734719 α      lambda       -0.6032208E-03
   maximum displ.:     0.4193515 α      in ANC's #1, #4, #3, ...

........................................................................
.............................. CYCLE   36 ..............................
........................................................................
   1   -162.9851830 -0.162985E+03  0.103E-01    1.24       0.0  T
   2   -162.9851872 -0.415302E-05  0.597E-02    1.24       1.0  T
   3   -162.9851619  0.252710E-04  0.164E-02    1.24       1.0  T
   4   -162.9851904 -0.284920E-04  0.270E-03    1.24       3.7  T
   5   -162.9851906 -0.194571E-06  0.170E-03    1.24       5.9  T
   6   -162.9851908 -0.167387E-06  0.550E-04    1.24      18.4  T
   7   -162.9851908 -0.203336E-07  0.223E-04    1.24      45.4  T
     SCC iter.                  ...        0 min,  0.111 sec
     gradient                   ...        0 min,  0.133 sec
 * total energy  :  -160.1643183 Eh     change       -0.4979311E-03 Eh
   gradient norm :     0.0081185 Eh/α   predicted    -0.4384200E-03 ( -11.95%)
   displ. norm   :     0.6632331 α      lambda       -0.6419377E-03
   maximum displ.:     0.4160975 α      in ANC's #1, #4, #2, ...

........................................................................
.............................. CYCLE   37 ..............................
........................................................................
   1   -163.0047230 -0.163005E+03  0.115E-01    1.24       0.0  T
   2   -163.0047284 -0.542345E-05  0.672E-02    1.24       1.0  T
   3   -163.0046026  0.125833E-03  0.332E-02    1.25       1.0  T
   4   -163.0047397 -0.137150E-03  0.428E-03    1.24       2.4  T
   5   -163.0047406 -0.916696E-06  0.222E-03    1.24       4.6  T
   6   -163.0047408 -0.134327E-06  0.926E-04    1.24      10.9  T
   7   -163.0047408 -0.765448E-07  0.280E-04    1.24      36.1  T
     SCC iter.                  ...        0 min,  0.105 sec
     gradient                   ...        0 min,  0.132 sec
 * total energy  :  -160.1645086 Eh     change       -0.1903502E-03 Eh
   gradient norm :     0.0161466 Eh/α   predicted    -0.4621673E-03 ( 142.80%)
   displ. norm   :     0.6306744 α      lambda       -0.9545984E-03
   maximum displ.:     0.3820317 α      in ANC's #1, #4, #3, ...

........................................................................
.............................. CYCLE   38 ..............................
........................................................................
   1   -162.9883997 -0.162988E+03  0.100E-01    1.24       0.0  T
   2   -162.9883981  0.160588E-05  0.600E-02    1.24       1.0  T
   3   -162.9881504  0.247750E-03  0.429E-02    1.23       1.0  T
   4   -162.9884204 -0.269996E-03  0.327E-03    1.24       3.1  T
   5   -162.9884208 -0.462928E-06  0.166E-03    1.24       6.1  T
   6   -162.9884209 -0.708779E-07  0.828E-04    1.24      12.2  T
   7   -162.9884210 -0.434213E-07  0.324E-04    1.24      31.2  T
     SCC iter.                  ...        0 min,  0.106 sec
     gradient                   ...        0 min,  0.131 sec
 * total energy  :  -160.1651336 Eh     change       -0.6249813E-03 Eh
   gradient norm :     0.0140059 Eh/α   predicted    -0.6671544E-03 (   6.75%)
   displ. norm   :     0.7235915 α      lambda       -0.5635556E-03
   maximum displ.:     0.4638291 α      in ANC's #1, #4, #3, ...

........................................................................
.............................. CYCLE   39 ..............................
........................................................................
   1   -162.9833198 -0.162983E+03  0.117E-01    1.23       0.0  T
   2   -162.9833280 -0.815693E-05  0.677E-02    1.24       1.0  T
   3   -162.9832279  0.100074E-03  0.265E-02    1.23       1.0  T
   4   -162.9833373 -0.109437E-03  0.371E-03    1.24       2.7  T
   5   -162.9833377 -0.378418E-06  0.214E-03    1.24       4.7  T
   6   -162.9833379 -0.147827E-06  0.808E-04    1.24      12.5  T
   7   -162.9833379 -0.453989E-07  0.320E-04    1.24      31.6  T
     SCC iter.                  ...        0 min,  0.106 sec
     gradient                   ...        0 min,  0.131 sec
 * total energy  :  -160.1655574 Eh     change       -0.4237837E-03 Eh
   gradient norm :     0.0108311 Eh/α   predicted    -0.4293162E-03 (   1.31%)
   displ. norm   :     0.6663082 α      lambda       -0.5430501E-03
   maximum displ.:     0.4368217 α      in ANC's #1, #4, #3, ...

........................................................................
.............................. CYCLE   40 ..............................
........................................................................
   1   -162.9817314 -0.162982E+03  0.108E-01    1.24       0.0  T
   2   -162.9817369 -0.549133E-05  0.621E-02    1.24       1.0  T
   3   -162.9816690  0.678999E-04  0.225E-02    1.23       1.0  T
   4   -162.9817438 -0.747981E-04  0.310E-03    1.24       3.3  T
   5   -162.9817439 -0.687471E-07  0.210E-03    1.24       4.8  T
   6   -162.9817441 -0.251292E-06  0.783E-04    1.24      12.9  T
   7   -162.9817442 -0.573693E-07  0.222E-04    1.24      45.5  T
     SCC iter.                  ...        0 min,  0.106 sec
     gradient                   ...        0 min,  0.131 sec
 * total energy  :  -160.1660242 Eh     change       -0.4668231E-03 Eh
   gradient norm :     0.0111933 Eh/α   predicted    -0.3920771E-03 ( -16.01%)
   displ. norm   :     0.5680652 α      lambda       -0.7996065E-03
   maximum displ.:     0.3450164 α      in ANC's #1, #4, #2, ...

........................................................................
.............................. CYCLE   41 ..............................
........................................................................
   1   -162.9950127 -0.162995E+03  0.113E-01    1.24       0.0  T
   2   -162.9950189 -0.611209E-05  0.656E-02    1.25       1.0  T
   3   -162.9948119  0.206974E-03  0.405E-02    1.23       1.0  T
   4   -162.9950408 -0.228926E-03  0.483E-03    1.24       2.1  T
   5   -162.9950419 -0.109940E-05  0.295E-03    1.24       3.4  T
   6   -162.9950423 -0.423192E-06  0.118E-03    1.24       8.5  T
   7   -162.9950424 -0.109217E-06  0.430E-04    1.24      23.5  T
   8   -162.9950425 -0.108461E-07  0.192E-04    1.24      52.7  T
     SCC iter.                  ...        0 min,  0.122 sec
     gradient                   ...        0 min,  0.131 sec
 * total energy  :  -160.1663805 Eh     change       -0.3562983E-03 Eh
   gradient norm :     0.0118942 Eh/α   predicted    -0.5288229E-03 (  48.42%)
   displ. norm   :     0.7582784 α      lambda       -0.7085573E-03
   maximum displ.:     0.4906960 α      in ANC's #1, #4, #3, ...

........................................................................
.............................. CYCLE   42 ..............................
........................................................................
   1   -162.9892895 -0.162989E+03  0.118E-01    1.24       0.0  T
   2   -162.9892961 -0.665326E-05  0.690E-02    1.24       1.0  T
   3   -162.9892606  0.355479E-04  0.172E-02    1.24       1.0  T
   4   -162.9892998 -0.392123E-04  0.370E-03    1.24       2.7  T
   5   -162.9893005 -0.698824E-06  0.196E-03    1.24       5.1  T
   6   -162.9893007 -0.175424E-06  0.782E-04    1.24      12.9  T
   7   -162.9893007 -0.455072E-07  0.317E-04    1.24      31.9  T
     SCC iter.                  ...        0 min,  0.107 sec
     gradient                   ...        0 min,  0.131 sec
 * total energy  :  -160.1668854 Eh     change       -0.5049075E-03 Eh
   gradient norm :     0.0099296 Eh/α   predicted    -0.5579870E-03 (  10.51%)
   displ. norm   :     0.7880220 α      lambda       -0.5074829E-03
   maximum displ.:     0.5134408 α      in ANC's #1, #4, #2, ...
 * RMSD in coord.:     1.2584394 α      energy gain  -0.9610647E-02 Eh

generating ANC from model Hessian ...
Using Lindh-Hessian (1995)
 Shifting diagonal of input Hessian by   9.984014702505092E-003
 Lowest  eigenvalues of input Hessian
    0.000000    0.000000    0.000000    0.000000    0.000000    0.000000
    0.010000    0.010009    0.010038    0.010100    0.010154    0.010192
    0.010294    0.010419    0.010776    0.010858    0.010993    0.011031
 Highest eigenvalues
    2.267759    2.276814    2.597691    2.610592    2.646053    2.652691
 

........................................................................
.............................. CYCLE   43 ..............................
........................................................................
   1   -162.9849608 -0.162985E+03  0.118E-01    1.24       0.0  T
   2   -162.9849670 -0.621189E-05  0.688E-02    1.24       1.0  T
   3   -162.9849058  0.611314E-04  0.212E-02    1.23       1.0  T
   4   -162.9849730 -0.671189E-04  0.339E-03    1.24       3.0  T
   5   -162.9849734 -0.427348E-06  0.198E-03    1.24       5.1  T
   6   -162.9849736 -0.168507E-06  0.792E-04    1.24      12.8  T
   7   -162.9849736 -0.589123E-07  0.255E-04    1.24      39.6  T
     SCC iter.                  ...        0 min,  0.107 sec
     gradient                   ...        0 min,  0.131 sec
 * total energy  :  -160.1672753 Eh     change       -0.3898216E-03 Eh
   gradient norm :     0.0098280 Eh/α   predicted     0.0000000E+00 (-100.00%)
   displ. norm   :     0.0928807 α      lambda       -0.2828708E-03
   maximum displ.:     0.0373222 α      in ANC's #1, #3, #25, ...

........................................................................
.............................. CYCLE   44 ..............................
........................................................................
   1   -162.9914169 -0.162991E+03  0.593E-02    1.24       0.0  T
   2   -162.9914209 -0.405075E-05  0.334E-02    1.24       1.0  T
   3   -162.9914000  0.208865E-04  0.137E-02    1.24       1.0  T
   4   -162.9914238 -0.238073E-04  0.206E-03    1.24       4.9  T
   5   -162.9914241 -0.265637E-06  0.109E-03    1.24       9.3  T
   6   -162.9914242 -0.423812E-07  0.453E-04    1.24      22.3  T
   7   -162.9914242 -0.162524E-07  0.142E-04    1.24      70.9  T
     SCC iter.                  ...        0 min,  0.107 sec
     gradient                   ...        0 min,  0.132 sec
 * total energy  :  -160.1674240 Eh     change       -0.1486961E-03 Eh
   gradient norm :     0.0040214 Eh/α   predicted    -0.1426576E-03 (  -4.06%)
   displ. norm   :     0.1749343 α      lambda       -0.3201212E-03
   maximum displ.:     0.0667887 α      in ANC's #3, #1, #10, ...

........................................................................
.............................. CYCLE   45 ..............................
........................................................................
   1   -163.0000920 -0.163000E+03  0.900E-02    1.24       0.0  T
   2   -163.0000989 -0.685898E-05  0.507E-02    1.24       1.0  T
   3   -163.0000411  0.577571E-04  0.213E-02    1.25       1.0  T
   4   -163.0001059 -0.647746E-04  0.276E-03    1.24       3.7  T
   5   -163.0001062 -0.264986E-06  0.163E-03    1.24       6.2  T
   6   -163.0001062 -0.766087E-07  0.645E-04    1.24      15.7  T
   7   -163.0001063 -0.329856E-07  0.217E-04    1.24      46.6  T
     SCC iter.                  ...        0 min,  0.107 sec
     gradient                   ...        0 min,  0.131 sec
 * total energy  :  -160.1673785 Eh     change        0.4543917E-04 Eh
   gradient norm :     0.0122896 Eh/α   predicted    -0.1649637E-03 (-463.04%)
   displ. norm   :     0.0715122 α      lambda       -0.3574365E-03
   maximum displ.:     0.0262344 α      in ANC's #1, #10, #3, ...

........................................................................
.............................. CYCLE   46 ..............................
........................................................................
   1   -162.9972113 -0.162997E+03  0.661E-02    1.24       0.0  T
   2   -162.9972157 -0.443605E-05  0.366E-02    1.24       1.0  T
   3   -162.9972138  0.193367E-05  0.633E-03    1.24       1.6  T
   4   -162.9972176 -0.378843E-05  0.148E-03    1.24       6.8  T
   5   -162.9972176 -0.288522E-07  0.946E-04    1.24      10.7  T
   6   -162.9972177 -0.729563E-07  0.317E-04    1.24      31.9  T
     SCC iter.                  ...        0 min,  0.092 sec
     gradient                   ...        0 min,  0.132 sec
 * total energy  :  -160.1675685 Eh     change       -0.1899714E-03 Eh
   gradient norm :     0.0041420 Eh/α   predicted    -0.1796359E-03 (  -5.44%)
   displ. norm   :     0.1049756 α      lambda       -0.1734470E-03
   maximum displ.:     0.0466611 α      in ANC's #3, #1, #2, ...

........................................................................
.............................. CYCLE   47 ..............................
........................................................................
   1   -162.9919986 -0.162992E+03  0.622E-02    1.24       0.0  T
   2   -162.9920029 -0.427440E-05  0.346E-02    1.24       1.0  T
   3   -162.9919905  0.123986E-04  0.107E-02    1.24       1.0  T
   4   -162.9920054 -0.149188E-04  0.165E-03    1.24       6.1  T
   5   -162.9920055 -0.831830E-07  0.981E-04    1.24      10.3  T
   6   -162.9920055 -0.519585E-07  0.332E-04    1.24      30.4  T
     SCC iter.                  ...        0 min,  0.092 sec
     gradient                   ...        0 min,  0.132 sec
 * total energy  :  -160.1676200 Eh     change       -0.5149415E-04 Eh
   gradient norm :     0.0065523 Eh/α   predicted    -0.8768167E-04 (  70.28%)
   displ. norm   :     0.1432751 α      lambda       -0.1484966E-03
   maximum displ.:     0.0696957 α      in ANC's #1, #3, #2, ...

........................................................................
.............................. CYCLE   48 ..............................
........................................................................
   1   -162.9919547 -0.162992E+03  0.438E-02    1.24       0.0  T
   2   -162.9919569 -0.223607E-05  0.246E-02    1.24       1.0  T
   3   -162.9919552  0.166694E-05  0.448E-03    1.24       2.3  T
   4   -162.9919578 -0.259328E-05  0.127E-03    1.24       8.0  T
   5   -162.9919579 -0.191932E-07  0.786E-04    1.24      12.8  T
   6   -162.9919579 -0.510362E-07  0.216E-04    1.24      46.8  T
     SCC iter.                  ...        0 min,  0.091 sec
     gradient                   ...        0 min,  0.132 sec
 * total energy  :  -160.1677188 Eh     change       -0.9883590E-04 Eh
   gradient norm :     0.0035474 Eh/α   predicted    -0.7577252E-04 ( -23.34%)
   displ. norm   :     0.3944052 α      lambda       -0.3378675E-03
   maximum displ.:     0.1969551 α      in ANC's #3, #1, #2, ...

........................................................................
.............................. CYCLE   49 ..............................
........................................................................
   1   -162.9934808 -0.162993E+03  0.923E-02    1.24       0.0  T
   2   -162.9934856 -0.487879E-05  0.527E-02    1.24       1.0  T
   3   -162.9934554  0.302849E-04  0.154E-02    1.24       1.0  T
   4   -162.9934895 -0.341094E-04  0.274E-03    1.24       3.7  T
   5   -162.9934895 -0.614913E-07  0.161E-03    1.24       6.3  T
   6   -162.9934897 -0.156350E-06  0.589E-04    1.24      17.1  T
   7   -162.9934897 -0.301397E-07  0.220E-04    1.24      45.9  T
     SCC iter.                  ...        0 min,  0.105 sec
     gradient                   ...        0 min,  0.131 sec
 * total energy  :  -160.1678507 Eh     change       -0.1318665E-03 Eh
   gradient norm :     0.0080651 Eh/α   predicted    -0.1952129E-03 (  48.04%)
   displ. norm   :     0.2550839 α      lambda       -0.2200106E-03
   maximum displ.:     0.1319379 α      in ANC's #1, #3, #2, ...

........................................................................
.............................. CYCLE   50 ..............................
........................................................................
   1   -162.9916581 -0.162992E+03  0.661E-02    1.24       0.0  T
   2   -162.9916629 -0.475217E-05  0.371E-02    1.24       1.0  T
   3   -162.9916607  0.216750E-05  0.613E-03    1.24       1.6  T
   4   -162.9916648 -0.412235E-05  0.196E-03    1.24       5.2  T
   5   -162.9916649 -0.647089E-07  0.106E-03    1.24       9.5  T
   6   -162.9916650 -0.973822E-07  0.268E-04    1.24      37.7  T
   7   -162.9916650 -0.592397E-08  0.108E-04    1.24      93.5  T
     SCC iter.                  ...        0 min,  0.106 sec
     gradient                   ...        0 min,  0.131 sec
 * total energy  :  -160.1680296 Eh     change       -0.1789085E-03 Eh
   gradient norm :     0.0033037 Eh/α   predicted    -0.1171647E-03 ( -34.51%)
   displ. norm   :     0.4006923 α      lambda       -0.2632146E-03
   maximum displ.:     0.2142586 α      in ANC's #1, #3, #2, ...

........................................................................
.............................. CYCLE   51 ..............................
........................................................................
   1   -162.9904197 -0.162990E+03  0.947E-02    1.24       0.0  T
   2   -162.9904278 -0.814779E-05  0.533E-02    1.24       1.0  T
   3   -162.9904182  0.956905E-05  0.971E-03    1.23       1.0  T
   4   -162.9904315 -0.133061E-04  0.277E-03    1.24       3.7  T
   5   -162.9904317 -0.123424E-06  0.154E-03    1.24       6.6  T
   6   -162.9904318 -0.159792E-06  0.455E-04    1.24      22.2  T
   7   -162.9904318 -0.187263E-07  0.171E-04    1.24      59.2  T
     SCC iter.                  ...        0 min,  0.106 sec
     gradient                   ...        0 min,  0.131 sec
 * total energy  :  -160.1682282 Eh     change       -0.1985816E-03 Eh
   gradient norm :     0.0039154 Eh/α   predicted    -0.1527383E-03 ( -23.09%)
   displ. norm   :     0.4421508 α      lambda       -0.2314561E-03
   maximum displ.:     0.2398908 α      in ANC's #1, #3, #2, ...

........................................................................
.............................. CYCLE   52 ..............................
........................................................................
   1   -162.9888312 -0.162989E+03  0.909E-02    1.23       0.0  T
   2   -162.9888394 -0.821184E-05  0.514E-02    1.24       1.0  T
   3   -162.9888234  0.160445E-04  0.118E-02    1.23       1.0  T
   4   -162.9888435 -0.201862E-04  0.279E-03    1.24       3.6  T
   5   -162.9888436 -0.105481E-06  0.162E-03    1.24       6.2  T
   6   -162.9888438 -0.164740E-06  0.528E-04    1.24      19.1  T
   7   -162.9888438 -0.231590E-07  0.191E-04    1.24      52.8  T
     SCC iter.                  ...        0 min,  0.107 sec
     gradient                   ...        0 min,  0.131 sec
 * total energy  :  -160.1683959 Eh     change       -0.1677443E-03 Eh
   gradient norm :     0.0117438 Eh/α   predicted    -0.1383549E-03 ( -17.52%)
   displ. norm   :     0.4817991 α      lambda       -0.3028471E-03
   maximum displ.:     0.2656456 α      in ANC's #1, #3, #2, ...

........................................................................
.............................. CYCLE   53 ..............................
........................................................................
   1   -162.9910053 -0.162991E+03  0.806E-02    1.23       0.0  T
   2   -162.9910084 -0.303027E-05  0.464E-02    1.24       1.0  T
   3   -162.9909844  0.239466E-04  0.135E-02    1.23       1.0  T
   4   -162.9910110 -0.266108E-04  0.248E-03    1.24       4.1  T
   5   -162.9910112 -0.138852E-06  0.158E-03    1.24       6.4  T
   6   -162.9910113 -0.115417E-06  0.508E-04    1.24      19.9  T
   7   -162.9910113 -0.274821E-07  0.186E-04    1.24      54.4  T
     SCC iter.                  ...        0 min,  0.107 sec
     gradient                   ...        0 min,  0.131 sec
 * total energy  :  -160.1686542 Eh     change       -0.2583197E-03 Eh
   gradient norm :     0.0057251 Eh/α   predicted    -0.1865757E-03 ( -27.77%)
   displ. norm   :     0.6611137 α      lambda       -0.4036840E-03
   maximum displ.:     0.3672327 α      in ANC's #1, #3, #2, ...

........................................................................
.............................. CYCLE   54 ..............................
........................................................................
   1   -162.9923411 -0.162992E+03  0.108E-01    1.24       0.0  T
   2   -162.9923471 -0.596023E-05  0.619E-02    1.24       1.0  T
   3   -162.9923232  0.238585E-04  0.138E-02    1.23       1.0  T
   4   -162.9923508 -0.275659E-04  0.311E-03    1.24       3.2  T
   5   -162.9923509 -0.997748E-07  0.193E-03    1.24       5.2  T
   6   -162.9923511 -0.239111E-06  0.506E-04    1.24      20.0  T
   7   -162.9923511 -0.241866E-07  0.195E-04    1.24      51.8  T
     SCC iter.                  ...        0 min,  0.108 sec
     gradient                   ...        0 min,  0.131 sec
 * total energy  :  -160.1690127 Eh     change       -0.3584145E-03 Eh
   gradient norm :     0.0059867 Eh/α   predicted    -0.2900675E-03 ( -19.07%)
   displ. norm   :     0.7316253 α      lambda       -0.4482602E-03
   maximum displ.:     0.4076956 α      in ANC's #1, #3, #2, ...

........................................................................
.............................. CYCLE   55 ..............................
........................................................................
   1   -162.9932491 -0.162993E+03  0.112E-01    1.24       0.0  T
   2   -162.9932546 -0.544508E-05  0.647E-02    1.24       1.0  T
   3   -162.9932327  0.218375E-04  0.134E-02    1.23       1.0  T
   4   -162.9932578 -0.251073E-04  0.305E-03    1.24       3.3  T
   5   -162.9932580 -0.149317E-06  0.197E-03    1.24       5.1  T
   6   -162.9932583 -0.276216E-06  0.510E-04    1.24      19.8  T
   7   -162.9932583 -0.222963E-07  0.223E-04    1.24      45.2  T
     SCC iter.                  ...        0 min,  0.107 sec
     gradient                   ...        0 min,  0.131 sec
 * total energy  :  -160.1694047 Eh     change       -0.3920444E-03 Eh
   gradient norm :     0.0061835 Eh/α   predicted    -0.3441034E-03 ( -12.23%)
   displ. norm   :     0.8218248 α      lambda       -0.4542640E-03
   maximum displ.:     0.4606595 α      in ANC's #1, #3, #2, ...

........................................................................
.............................. CYCLE   56 ..............................
........................................................................
   1   -162.9898023 -0.162990E+03  0.141E-01    1.23       0.0  T
   2   -162.9898162 -0.139472E-04  0.809E-02    1.24       1.0  T
   3   -162.9897899  0.262856E-04  0.155E-02    1.23       1.0  T
   4   -162.9898228 -0.328826E-04  0.431E-03    1.24       2.3  T
   5   -162.9898231 -0.267995E-06  0.240E-03    1.24       4.2  T
   6   -162.9898236 -0.514369E-06  0.575E-04    1.24      17.6  T
   7   -162.9898236 -0.219565E-07  0.268E-04    1.24      37.7  T
     SCC iter.                  ...        0 min,  0.107 sec
     gradient                   ...        0 min,  0.131 sec
 * total energy  :  -160.1697921 Eh     change       -0.3873945E-03 Eh
   gradient norm :     0.0069912 Eh/α   predicted    -0.3805393E-03 (  -1.77%)
   displ. norm   :     0.7782376 α      lambda       -0.4305667E-03
   maximum displ.:     0.4359675 α      in ANC's #1, #3, #2, ...

........................................................................
.............................. CYCLE   57 ..............................
........................................................................
   1   -162.9914524 -0.162991E+03  0.117E-01    1.23       0.0  T
   2   -162.9914582 -0.582712E-05  0.680E-02    1.24       1.0  T
   3   -162.9914329  0.253377E-04  0.156E-02    1.23       1.0  T
   4   -162.9914622 -0.293498E-04  0.301E-03    1.24       3.4  T
   5   -162.9914623 -0.786673E-07  0.179E-03    1.23       5.7  T
   6   -162.9914625 -0.242645E-06  0.445E-04    1.24      22.7  T
   7   -162.9914625 -0.132779E-07  0.234E-04    1.23      43.1  T
     SCC iter.                  ...        0 min,  0.107 sec
     gradient                   ...        0 min,  0.132 sec
 * total energy  :  -160.1701599 Eh     change       -0.3677854E-03 Eh
   gradient norm :     0.0045752 Eh/α   predicted    -0.3456729E-03 (  -6.01%)
   displ. norm   :     0.8291304 α      lambda       -0.3778847E-03
   maximum displ.:     0.4669877 α      in ANC's #1, #3, #2, ...

........................................................................
.............................. CYCLE   58 ..............................
........................................................................
   1   -162.9874592 -0.162987E+03  0.127E-01    1.23       0.0  T
   2   -162.9874660 -0.680514E-05  0.734E-02    1.23       1.0  T
   3   -162.9874403  0.257075E-04  0.142E-02    1.23       1.0  T
   4   -162.9874700 -0.296709E-04  0.354E-03    1.23       2.9  T
   5   -162.9874703 -0.260505E-06  0.199E-03    1.23       5.1  T
   6   -162.9874705 -0.277016E-06  0.508E-04    1.23      19.9  T
   7   -162.9874706 -0.209671E-07  0.222E-04    1.23      45.5  T
     SCC iter.                  ...        0 min,  0.106 sec
     gradient                   ...        0 min,  0.132 sec
 * total energy  :  -160.1704899 Eh     change       -0.3300552E-03 Eh
   gradient norm :     0.0059451 Eh/α   predicted    -0.3188345E-03 (  -3.40%)
   displ. norm   :     0.7113061 α      lambda       -0.4465493E-03
   maximum displ.:     0.3946531 α      in ANC's #1, #3, #2, ...

........................................................................
.............................. CYCLE   59 ..............................
........................................................................
   1   -162.9986428 -0.162999E+03  0.110E-01    1.24       0.0  T
   2   -162.9986473 -0.449514E-05  0.641E-02    1.23       1.0  T
   3   -162.9985834  0.639138E-04  0.235E-02    1.24       1.0  T
   4   -162.9986530 -0.696811E-04  0.330E-03    1.24       3.1  T
   5   -162.9986534 -0.367903E-06  0.205E-03    1.24       4.9  T
   6   -162.9986536 -0.212918E-06  0.745E-04    1.24      13.6  T
   7   -162.9986537 -0.547579E-07  0.246E-04    1.24      41.0  T
     SCC iter.                  ...        0 min,  0.106 sec
     gradient                   ...        0 min,  0.132 sec
 * total energy  :  -160.1707644 Eh     change       -0.2744329E-03 Eh
   gradient norm :     0.0065662 Eh/α   predicted    -0.3362424E-03 (  22.52%)
   displ. norm   :     0.7666393 α      lambda       -0.3749514E-03
   maximum displ.:     0.4364167 α      in ANC's #1, #3, #2, ...

........................................................................
.............................. CYCLE   60 ..............................
........................................................................
   1   -162.9886695 -0.162989E+03  0.124E-01    1.23       0.0  T
   2   -162.9886752 -0.570559E-05  0.714E-02    1.23       1.0  T
   3   -162.9886019  0.732990E-04  0.232E-02    1.23       1.0  T
   4   -162.9886822 -0.802428E-04  0.350E-03    1.23       2.9  T
   5   -162.9886823 -0.155892E-06  0.217E-03    1.23       4.6  T
   6   -162.9886826 -0.222635E-06  0.589E-04    1.23      17.2  T
   7   -162.9886826 -0.323944E-07  0.200E-04    1.23      50.4  T
     SCC iter.                  ...        0 min,  0.106 sec
     gradient                   ...        0 min,  0.131 sec
[...]
    31   6 C        2.981     0.009    27.810     8.650
    32   6 C        3.040    -0.002    28.028     8.683
    33   6 C        3.078     0.010    27.718     8.631
    34  16 S        2.322     0.050   139.015    19.844
    35   6 C        3.221    -0.011    27.553     8.534
    36   6 C        3.937     0.014    20.275     6.399
    37   6 C        3.804    -0.052    21.505     6.602
    38   6 C        3.751    -0.101    22.491     6.763
    39   6 C        3.808    -0.050    21.458     6.594
    40   6 C        3.751    -0.105    22.567     6.775
    41   6 C        3.066    -0.044    29.030     8.835
    42   6 C        2.991     0.019    27.568     8.613
    43   6 C        2.918    -0.014    28.373     8.735
    44   6 C        3.007    -0.040    28.988     8.832
    45   6 C        3.019     0.028    27.357     8.580
    46   6 C        2.947     0.003    27.959     8.672
    47   6 C        1.947     0.123    28.055     8.554
    48   7 N        0.911    -0.238    26.215     7.405
    49   6 C        1.946     0.122    28.084     8.558
    50   7 N        0.911    -0.243    26.349     7.424
    51   6 C        3.036     0.006    27.843     8.655
    52   6 C        3.045    -0.017    28.398     8.740
    53   6 C        2.913    -0.015    28.381     8.736
    54   6 C        2.921    -0.022    28.556     8.763
    55   6 C        2.921    -0.020    28.498     8.754
    56   6 C        2.914    -0.027    28.665     8.779
    57   6 C        2.873     0.223    23.312     7.915
    58   8 O        0.949    -0.361    20.876     6.128
    59   6 C        3.071     0.007    27.779     8.642
    60   6 C        2.911    -0.030    28.760     8.794
    61   6 C        2.918    -0.034    28.841     8.807
    62   6 C        2.980     0.009    27.817     8.651
    63   1 H        0.926     0.058     2.223     2.331
    64   1 H        0.926     0.047     2.360     2.402
    65   1 H        0.926     0.049     2.337     2.391
    66   1 H        0.926     0.056     2.250     2.346
    67   1 H        0.925     0.064     2.156     2.296
    68   1 H        0.926     0.095     1.831     2.116
    69   1 H        0.924     0.044     2.391     2.418
    70   1 H        0.924     0.043     2.414     2.430
    71   1 H        0.925     0.035     2.514     2.480
    72   1 H        0.925     0.034     2.531     2.488
    73   1 H        0.925     0.040     2.452     2.449
    74   1 H        0.924     0.047     2.361     2.403
    75   1 H        0.924     0.034     2.531     2.488
    76   1 H        0.925     0.041     2.431     2.438
    77   1 H        0.925     0.041     2.432     2.439
    78   1 H        0.925     0.040     2.450     2.448
    79   1 H        0.926     0.047     2.361     2.403
    80   1 H        0.926     0.056     2.243     2.342
    81   1 H        0.924     0.043     2.415     2.430
    82   1 H        0.924     0.041     2.433     2.439
    83   1 H        0.925     0.040     2.448     2.447
    84   1 H        0.925     0.034     2.529     2.487
    85   1 H        0.925     0.035     2.511     2.478
    86   1 H        0.924     0.034     2.525     2.485
    87   1 H        0.924     0.041     2.432     2.439
    88   1 H        0.925     0.040     2.450     2.448
    89   1 H        0.925     0.042     2.422     2.434
    90   1 H        0.925     0.042     2.428     2.437
    91   1 H        0.926     0.050     2.318     2.381
    92   1 H        0.925     0.065     2.142     2.289
    93   1 H        0.926     0.058     2.225     2.333
    94   1 H        0.926     0.047     2.355     2.400
    95   1 H        0.926     0.049     2.331     2.387
    96   1 H        0.926     0.056     2.242     2.342
    97   1 H        0.926     0.046     2.371     2.408
    98   1 H        0.926     0.049     2.335     2.390

 Mol. C6AA /au·bohr⁶  :     150033.656439
 Mol. C8AA /au·bohr⁸  :    3977354.048380
 Mol. α(0) /au        :        615.455705


Wiberg/Mayer (AO) data.
largest (>0.10) Wiberg bond orders for each atom

 ---------------------------------------------------------------------------
     #   Z sym  total        # sym  WBO       # sym  WBO       # sym  WBO
 ---------------------------------------------------------------------------
     1   8 O    2.049 --     2 C    1.745
     2   6 C    3.922 --     1 O    1.745    15 C    1.042     3 C    1.020
     3   6 C    3.977 --     4 C    1.421     8 C    1.296     2 C    1.020
     4   6 C    3.983 --     5 C    1.423     3 C    1.421    63 H    0.966
     5   6 C    3.972 --     6 C    1.437     4 C    1.423    64 H    0.970
     6   6 C    3.980 --     5 C    1.437     7 C    1.428    65 H    0.970
     7   6 C    3.978 --     6 C    1.428     8 C    1.404    66 H    0.961
     8   6 C    3.981 --     7 C    1.404     3 C    1.296     9 C    1.082
     9   6 C    3.974 --    10 C    1.490    15 C    1.137     8 C    1.082
    10   6 C    3.949 --     9 C    1.490    11 C    1.096    13 C    1.095
    11   6 C    3.945 --    12 N    2.754    10 C    1.096
    12   7 N    2.965 --    11 C    2.754
    13   6 C    3.945 --    14 N    2.764    10 C    1.095
    14   7 N    2.969 --    13 C    2.764
    15   6 C    3.956 --    16 C    1.510     9 C    1.137     2 C    1.042
    16   6 C    3.954 --    15 C    1.510    17 C    1.288    67 H    0.944
    17   6 C    3.926 --    18 C    1.383    16 C    1.288    26 S    1.078
    18   6 C    3.956 --    19 C    1.403    17 C    1.383    68 H    0.939
    19   6 C    3.966 --    18 C    1.403    25 C    1.353    20 C    0.987
    20   6 C    3.989 --    28 C    0.991    19 C    0.987    21 C    0.964
                            23 C    0.946
    21   6 C    3.993 --    22 C    1.019    69 H    0.975    70 H    0.972
                            20 C    0.964
    22   6 C    3.996 --    21 C    1.019    72 H    0.987    71 H    0.987
                            73 H    0.986
    23   6 C    3.991 --    24 C    1.019    75 H    0.978    74 H    0.974
                            20 C    0.946
    24   6 C    3.994 --    23 C    1.019    78 H    0.985    77 H    0.984
                            76 H    0.984
    25   6 C    3.925 --    19 C    1.353    26 S    1.201    27 C    1.161
    26  16 S    2.608 --    25 C    1.201    17 C    1.078
    27   6 C    3.976 --    28 C    1.362    62 C    1.231    25 C    1.161
    28   6 C    3.953 --    27 C    1.362    29 C    1.358    20 C    0.991
    29   6 C    3.979 --    30 C    1.500    28 C    1.358    79 H    0.964
    30   6 C    3.940 --    29 C    1.500    31 C    1.302    80 H    0.960
    31   6 C    3.979 --    30 C    1.302    62 C    1.241    32 C    1.231
    32   6 C    3.977 --    59 C    1.364    31 C    1.231    33 C    1.160
    33   6 C    3.936 --    35 C    1.330    34 S    1.222    32 C    1.160
    34  16 S    2.783 --    33 C    1.222    42 C    1.104    58 O    0.127
    35   6 C    3.962 --    41 C    1.438    33 C    1.330    36 C    0.987
    36   6 C    3.988 --    59 C    0.990    35 C    0.987    37 C    0.965
                            39 C    0.948
    37   6 C    3.993 --    38 C    1.019    82 H    0.975    81 H    0.972
                            36 C    0.965
    38   6 C    3.996 --    37 C    1.019    84 H    0.987    85 H    0.986
                            83 H    0.986
    39   6 C    3.991 --    40 C    1.019    86 H    0.978    87 H    0.974
                            36 C    0.948
    40   6 C    3.994 --    39 C    1.019    88 H    0.985    89 H    0.984
                            90 H    0.984
    41   6 C    3.965 --    35 C    1.438    42 C    1.339    91 H    0.962
    42   6 C    3.934 --    41 C    1.339    43 C    1.314    34 S    1.104
    43   6 C    3.953 --    44 C    1.487    42 C    1.314    92 H    0.939
    44   6 C    3.958 --    43 C    1.487    45 C    1.143    57 C    1.066
    45   6 C    3.972 --    46 C    1.486    44 C    1.143    51 C    1.080
    46   6 C    3.947 --    45 C    1.486    49 C    1.098    47 C    1.095
    47   6 C    3.945 --    48 N    2.763    46 C    1.095
    48   7 N    2.968 --    47 C    2.763
    49   6 C    3.945 --    50 N    2.751    46 C    1.098
    50   7 N    2.964 --    49 C    2.751
    51   6 C    3.980 --    56 C    1.408    52 C    1.295    45 C    1.080
    52   6 C    3.976 --    53 C    1.423    51 C    1.295    57 C    1.022
    53   6 C    3.981 --    52 C    1.423    54 C    1.420    93 H    0.967
    54   6 C    3.972 --    55 C    1.439    53 C    1.420    94 H    0.970
    55   6 C    3.980 --    54 C    1.439    56 C    1.425    95 H    0.970
    56   6 C    3.977 --    55 C    1.425    51 C    1.408    96 H    0.961
    57   6 C    3.921 --    58 O    1.710    44 C    1.066    52 C    1.022
    58   8 O    2.115 --    57 C    1.710    34 S    0.127
    59   6 C    3.951 --    32 C    1.364    60 C    1.359    36 C    0.990
    60   6 C    3.979 --    61 C    1.499    59 C    1.359    97 H    0.964
    61   6 C    3.938 --    60 C    1.499    62 C    1.303    98 H    0.961
    62   6 C    3.980 --    61 C    1.303    31 C    1.241    27 C    1.231
    63   1 H    0.996 --     4 C    0.966
    64   1 H    0.997 --     5 C    0.970
    65   1 H    0.997 --     6 C    0.970
    66   1 H    0.996 --     7 C    0.961
    67   1 H    0.995 --    16 C    0.944
    68   1 H    0.990 --    18 C    0.939
    69   1 H    0.997 --    21 C    0.975
    70   1 H    0.997 --    21 C    0.972
    71   1 H    0.999 --    22 C    0.987
    72   1 H    0.999 --    22 C    0.987
    73   1 H    0.998 --    22 C    0.986
    74   1 H    0.997 --    23 C    0.974
    75   1 H    0.999 --    23 C    0.978
    76   1 H    0.997 --    24 C    0.984
    77   1 H    0.998 --    24 C    0.984
    78   1 H    0.998 --    24 C    0.985
    79   1 H    0.996 --    29 C    0.964
    80   1 H    0.996 --    30 C    0.960
    81   1 H    0.997 --    37 C    0.972
    82   1 H    0.998 --    37 C    0.975
    83   1 H    0.998 --    38 C    0.986
    84   1 H    0.999 --    38 C    0.987
    85   1 H    0.999 --    38 C    0.986
    86   1 H    0.999 --    39 C    0.978
    87   1 H    0.997 --    39 C    0.974
    88   1 H    0.998 --    40 C    0.985
    89   1 H    0.998 --    40 C    0.984
    90   1 H    0.997 --    40 C    0.984
    91   1 H    0.997 --    41 C    0.962
    92   1 H    0.995 --    43 C    0.939
    93   1 H    0.996 --    53 C    0.967
    94   1 H    0.997 --    54 C    0.970
    95   1 H    0.997 --    55 C    0.970
    96   1 H    0.996 --    56 C    0.961
    97   1 H    0.996 --    60 C    0.964
    98   1 H    0.997 --    61 C    0.961
 ---------------------------------------------------------------------------

Topologies differ in bond orders
Writing corrected topology to xtbtopo.mol

molecular dipole:
                 x           y           z       tot (Debye)
 q only:        1.869       0.599       0.132
   full:        2.508       0.845       0.231       6.752
molecular quadrupole (traceless):
                xx          xy          yy          xz          yz          zz
 q only:       41.047      11.353      17.477     -18.431      55.141     -58.524
  q+dip:       45.972       9.036      21.102      -8.842      51.768     -67.074
   full:       43.272       2.517      20.131     -17.883      63.201     -63.402

           -------------------------------------------------
          |                Geometry Summary                 |
           -------------------------------------------------

      molecular mass/u    :      837.0208031
   center of mass at/Å    :        0.1273773      -0.2782488      -0.4349148
  moments of inertia/u·Å² :        0.5414085E+04   0.4241824E+05   0.4675406E+05
rotational constants/cm⁻¹ :        0.3113662E-02   0.3974147E-03   0.3605598E-03

 * 88 selected distances

     #   Z          #   Z                                           value/Å
     1   8 O        2   6 C                                       1.2150528
     3   6 C        4   6 C                                       1.3809913
     4   6 C        5   6 C                                       1.3875763
     5   6 C        6   6 C                                       1.3874461
     6   6 C        7   6 C                                       1.3888552
     3   6 C        8   6 C                                       1.4042364
     7   6 C        8   6 C                                       1.3860950
     9   6 C       10   6 C                                       1.3707861
    11   6 C       12   7 N                                       1.1489299
    13   6 C       14   7 N                                       1.1480603
    15   6 C       16   6 C                                       1.3717212
    16   6 C       17   6 C                                       1.4038113
    17   6 C       18   6 C                                       1.3923674
    18   6 C       19   6 C                                       1.3820498
    20   6 C       21   6 C                                       1.5356287
    21   6 C       22   6 C                                       1.5245088
    23   6 C       24   6 C                                       1.5224613
    19   6 C       25   6 C                                       1.3945663
    25   6 C       26  16 S                                       1.7072710
    25   6 C       27   6 C                                       1.4287674
    27   6 C       28   6 C                                       1.3998504
    28   6 C       29   6 C                                       1.3920453
    29   6 C       30   6 C                                       1.3751450
    30   6 C       31   6 C                                       1.4070300
    31   6 C       32   6 C                                       1.4137254
    32   6 C       33   6 C                                       1.4291462
    33   6 C       34  16 S                                       1.7088392
    33   6 C       35   6 C                                       1.3974377
    36   6 C       37   6 C                                       1.5357180
    37   6 C       38   6 C                                       1.5243864
    39   6 C       40   6 C                                       1.5226073
    35   6 C       41   6 C                                       1.3761424
    34  16 S       42   6 C                                       1.7569577 (max)
    41   6 C       42   6 C                                       1.4036141
    42   6 C       43   6 C                                       1.3995225
    43   6 C       44   6 C                                       1.3732876
    45   6 C       46   6 C                                       1.3711310
    47   6 C       48   7 N                                       1.1482327
    49   6 C       50   7 N                                       1.1491923
    51   6 C       52   6 C                                       1.4057407
    52   6 C       53   6 C                                       1.3805389
    53   6 C       54   6 C                                       1.3880289
    54   6 C       55   6 C                                       1.3869564
    51   6 C       56   6 C                                       1.3856950
    55   6 C       56   6 C                                       1.3894089
    57   6 C       58   8 O                                       1.2190785
    32   6 C       59   6 C                                       1.3993306
    59   6 C       60   6 C                                       1.3920899
    60   6 C       61   6 C                                       1.3753419
    27   6 C       62   6 C                                       1.4138584
    31   6 C       62   6 C                                       1.4238924
    61   6 C       62   6 C                                       1.4068405
     4   6 C       63   1 H                                       1.0792315
     5   6 C       64   1 H                                       1.0796270
     6   6 C       65   1 H                                       1.0797220
     7   6 C       66   1 H                                       1.0775433
    16   6 C       67   1 H                                       1.0842539
    18   6 C       68   1 H                                       1.0738068 (min)
    21   6 C       69   1 H                                       1.0916566
    21   6 C       70   1 H                                       1.0903581
    22   6 C       71   1 H                                       1.0875927
    22   6 C       72   1 H                                       1.0880999
    22   6 C       73   1 H                                       1.0873464
    23   6 C       74   1 H                                       1.0920832
    23   6 C       75   1 H                                       1.0932621
    24   6 C       76   1 H                                       1.0878299
    24   6 C       77   1 H                                       1.0864818
    24   6 C       78   1 H                                       1.0865522
    29   6 C       79   1 H                                       1.0786636
    30   6 C       80   1 H                                       1.0796285
    37   6 C       81   1 H                                       1.0903980
    37   6 C       82   1 H                                       1.0918520
    38   6 C       83   1 H                                       1.0873215
    38   6 C       84   1 H                                       1.0879527
    38   6 C       85   1 H                                       1.0875857
    39   6 C       86   1 H                                       1.0931606
    39   6 C       87   1 H                                       1.0923487
    40   6 C       88   1 H                                       1.0865802
    40   6 C       89   1 H                                       1.0863364
    40   6 C       90   1 H                                       1.0878184
    41   6 C       91   1 H                                       1.0758179
    43   6 C       92   1 H                                       1.0834835
    53   6 C       93   1 H                                       1.0792126
    54   6 C       94   1 H                                       1.0796106
    55   6 C       95   1 H                                       1.0796951
    56   6 C       96   1 H                                       1.0774871
    60   6 C       97   1 H                                       1.0787117
    61   6 C       98   1 H                                       1.0799189

 * 5 distinct bonds (by element types)

   Z      Z             #   av. dist./Å        max./Å        min./Å
   1 H    6 C          36     1.0846953     1.0932621     1.0738068
   6 C    6 C          43     1.4123344     1.5357180     1.3707861
   6 C    7 N           4     1.1486038     1.1491923     1.1480603
   6 C    8 O           2     1.2170657     1.2190785     1.2150528
   6 C   16 S           3     1.7243560     1.7569577     1.7072710


optimized geometry written to: xtbopt.mol


           -------------------------------------------------
          | TOTAL ENERGY             -160.174268297943 Eh   |
          | GRADIENT NORM               0.000423554468 Eh/α |
          | HOMO-LUMO GAP               1.226268252046 eV   |
           -------------------------------------------------

------------------------------------------------------------------------
 * finished run on 2022/01/10 at 18:07:33.537     
------------------------------------------------------------------------
 total:
 * wall-time:     0 d,  0 h,  0 min, 32.336 sec
 *  cpu-time:     0 d,  0 h,  0 min, 32.260 sec
 * ratio c/w:     0.998 speedup
 SCF:
 * wall-time:     0 d,  0 h,  0 min,  0.395 sec
 *  cpu-time:     0 d,  0 h,  0 min,  0.394 sec
 * ratio c/w:     0.997 speedup
 ANC optimizer:
 * wall-time:     0 d,  0 h,  0 min, 31.894 sec
 *  cpu-time:     0 d,  0 h,  0 min, 31.819 sec
 * ratio c/w:     0.998 speedup

