      -----------------------------------------------------------      
     |                   =====================                   |     
     |                           x T B                           |     
     |                   =====================                   |     
     |                         S. Grimme                         |     
     |          Mulliken Center for Theoretical Chemistry        |     
     |                    University of Bonn                     |     
      -----------------------------------------------------------      

   * xtb version 6.4.1 (unknown) compiled by 'oda6@login1.crc.pitt.edu' on 2021-06-25

   xtb is free software: you can redistribute it and/or modify it under
   the terms of the GNU Lesser General Public License as published by
   the Free Software Foundation, either version 3 of the License, or
   (at your option) any later version.
   
   xtb is distributed in the hope that it will be useful,
   but WITHOUT ANY WARRANTY; without even the implied warranty of
   MERCHANTABILITY or FITNESS FOR A PARTICULAR PURPOSE.  See the
   GNU Lesser General Public License for more details.
   
   Cite this work as:
   * C. Bannwarth, E. Caldeweyher, S. Ehlert, A. Hansen, P. Pracht,
     J. Seibert, S. Spicher, S. Grimme, WIREs Comput. Mol. Sci., 2020, 11,
     e01493. DOI: 10.1002/wcms.1493
   
   for GFN2-xTB:
   * C. Bannwarth, S. Ehlert and S. Grimme., J. Chem. Theory Comput., 2019,
     15, 1652-1671. DOI: 10.1021/acs.jctc.8b01176
   for GFN1-xTB:
   * S. Grimme, C. Bannwarth, P. Shushkov, J. Chem. Theory Comput., 2017,
     13, 1989-2009. DOI: 10.1021/acs.jctc.7b00118
   for GFN0-xTB:
   * P. Pracht, E. Caldeweyher, S. Ehlert, S. Grimme, ChemRxiv, 2019, preprint.
     DOI: 10.26434/chemrxiv.8326202.v1
   for GFN-FF:
   * S. Spicher and S. Grimme, Angew. Chem. Int. Ed., 2020, 59, 15665-15673.
     DOI: 10.1002/anie.202004239
   
   for DFT-D4:
   * E. Caldeweyher, C. Bannwarth and S. Grimme, J. Chem. Phys., 2017,
     147, 034112. DOI: 10.1063/1.4993215
   * E. Caldeweyher, S. Ehlert, A. Hansen, H. Neugebauer, S. Spicher,
     C. Bannwarth and S. Grimme, J. Chem. Phys., 2019, 150, 154122.
     DOI: 10.1063/1.5090222
   * E. Caldeweyher, J.-M. Mewes, S. Ehlert and S. Grimme, Phys. Chem. Chem. Phys.
     2020, 22, 8499-8512. DOI: 10.1039/D0CP00502A
   
   for sTDA-xTB:
   * S. Grimme and C. Bannwarth, J. Chem. Phys., 2016, 145, 054103.
     DOI: 10.1063/1.4959605
   
   in the mass-spec context:
   * V. Asgeirsson, C. Bauer and S. Grimme, Chem. Sci., 2017, 8, 4879.
     DOI: 10.1039/c7sc00601b
   * J. Koopman and S. Grimme, ACS Omega 2019, 4, 12, 15120-15133.
     DOI: 10.1021/acsomega.9b02011
   
   for metadynamics refer to:
   * S. Grimme, J. Chem. Theory Comput., 2019, 155, 2847-2862
     DOI: 10.1021/acs.jctc.9b00143
   
   for SPH calculations refer to:
   * S. Spicher and S. Grimme, J. Chem. Theory Comput., 2021, 17, 1701-1714
     DOI: 10.1021/acs.jctc.0c01306
   
   with help from (in alphabetical order)
   P. Atkinson, C. Bannwarth, F. Bohle, G. Brandenburg, E. Caldeweyher
   M. Checinski, S. Dohm, S. Ehlert, S. Ehrlich, I. Gerasimov, J. Koopman
   C. Lavigne, S. Lehtola, F. März, M. Müller, F. Musil, H. Neugebauer
   J. Pisarek, C. Plett, P. Pracht, J. Seibert, P. Shushkov, S. Spicher
   M. Stahn, M. Steiner, T. Strunk, J. Stückrath, T. Rose, and J. Unsleber
   
 * started run on 2021/12/20 at 14:00:22.148     

           -------------------------------------------------
          |                Calculation Setup                |
           -------------------------------------------------

          program call               : /ihome/ghutchison/oda6/xtb/xtb-641/bin//xtb HF-TCIC.mol -opt
          hostname                   : smp-n72
          coordinate file            : HF-TCIC.mol
          omp threads                :                     1
          number of atoms            :                   103
          number of electrons        :                   358
          charge                     :                     0
          spin                       :                   0.0
          first test random number   :      0.21204408538702

   ID    Z sym.   atoms
    1    6 C      1-14, 16-20, 22-26, 30-32, 35, 37-42, 44-55, 59-65, 68, 69,
                  72
    2   16 S      15, 21, 36, 43, 70
    3    8 O      27, 58
    4    9 F      28, 29, 56, 57, 71, 73
    5    7 N      33, 34, 66, 67
    6    1 H      74-103
########################################################################
[WARNING] Please study the warnings concerning your input carefully
-1- prog_main_parseArguments: the use of '-opt' is discouraged, please use '--opt' next time
########################################################################

           -------------------------------------------------
          |                 G F N 2 - x T B                 |
           -------------------------------------------------

        Reference                      10.1021/acs.jctc.8b01176
      * Hamiltonian:
        H0-scaling (s, p, d)           1.850000    2.230000    2.230000
        zeta-weighting                 0.500000
      * Dispersion:
        s8                             2.700000
        a1                             0.520000
        a2                             5.000000
        s9                             5.000000
      * Repulsion:
        kExp                           1.500000    1.000000
        rExp                           1.000000
      * Coulomb:
        alpha                          2.000000
        third order                    shell-resolved
        anisotropic                    true
        a3                             3.000000
        a5                             4.000000
        cn-shift                       1.200000
        cn-exp                         4.000000
        max-rad                        5.000000


          ...................................................
          :                      SETUP                      :
          :.................................................:
          :  # basis functions                 352          :
          :  # atomic orbitals                 347          :
          :  # shells                          181          :
          :  # electrons                       358          :
          :  max. iterations                   250          :
          :  Hamiltonian                  GFN2-xTB          :
          :  restarted?                      false          :
          :  GBSA solvation                  false          :
          :  PC potential                    false          :
          :  electronic temp.          300.0000000     K    :
          :  accuracy                    1.0000000          :
          :  -> integral cutoff          0.2500000E+02      :
          :  -> integral neglect         0.1000000E-07      :
          :  -> SCF convergence          0.1000000E-05 Eh   :
          :  -> wf. convergence          0.1000000E-03 e    :
          :  Broyden damping             0.4000000          :
          ...................................................

 iter      E             dE          RMSdq      gap      omega  full diag
   1   -201.8493386 -0.201849E+03  0.478E+00    1.26       0.0  T
   2   -201.9330619 -0.837233E-01  0.302E+00    1.09       1.0  T
   3   -201.7758186  0.157243E+00  0.215E+00    0.56       1.0  T
   4   -202.0985064 -0.322688E+00  0.662E-01    0.82       1.0  T
   5   -202.1314972 -0.329909E-01  0.204E-01    0.65       1.0  T
   6   -202.1324736 -0.976409E-03  0.986E-02    0.73       1.0  T
   7   -202.1331257 -0.652082E-03  0.452E-02    0.72       1.0  T
   8   -202.1333094 -0.183637E-03  0.170E-02    0.72       1.0  T
   9   -202.1333180 -0.862308E-05  0.872E-03    0.72       1.1  T
  10   -202.1333218 -0.379658E-05  0.383E-03    0.72       2.6  T
  11   -202.1333227 -0.908079E-06  0.171E-03    0.72       5.8  T
  12   -202.1333229 -0.179898E-06  0.670E-04    0.72      14.7  T
  13   -202.1333229 -0.182055E-07  0.359E-04    0.72      27.4  T

   *** convergence criteria satisfied after 13 iterations ***

         #    Occupation            Energy/Eh            Energy/eV
      -------------------------------------------------------------
         1        2.0000           -0.8555584             -23.2809
       ...           ...                  ...                  ...
       173        2.0000           -0.4233114             -11.5189
       174        2.0000           -0.4203034             -11.4370
       175        2.0000           -0.4174814             -11.3602
       176        2.0000           -0.4154108             -11.3039
       177        2.0000           -0.4123334             -11.2202
       178        2.0000           -0.3934847             -10.7073
       179        2.0000           -0.3791209             -10.3164 (HOMO)
       180        0.0000           -0.3527497              -9.5988 (LUMO)
       181                         -0.3455310              -9.4024
       182                         -0.3422540              -9.3132
       183                         -0.3372455              -9.1769
       184                         -0.3110300              -8.4636
       ...                                ...                  ...
       347                          1.0728740              29.1944
      -------------------------------------------------------------
                  HL-Gap            0.0263712 Eh            0.7176 eV
             Fermi-level           -0.3659355 Eh           -9.9576 eV

 SCC (total)                   0 d,  0 h,  0 min,  0.382 sec
 SCC setup                      ...        0 min,  0.001 sec (  0.329%)
 Dispersion                     ...        0 min,  0.004 sec (  0.920%)
 classical contributions        ...        0 min,  0.000 sec (  0.092%)
 integral evaluation            ...        0 min,  0.040 sec ( 10.557%)
 iterations                     ...        0 min,  0.198 sec ( 51.788%)
 molecular gradient             ...        0 min,  0.137 sec ( 35.923%)
 printout                       ...        0 min,  0.001 sec (  0.379%)

         :::::::::::::::::::::::::::::::::::::::::::::::::::::
         ::                     SUMMARY                     ::
         :::::::::::::::::::::::::::::::::::::::::::::::::::::
         :: total energy            -199.399852119735 Eh    ::
         :: gradient norm              0.255108066155 Eh/a0 ::
         :: HOMO-LUMO gap              0.717596296097 eV    ::
         ::.................................................::
         :: SCC energy              -202.133322880740 Eh    ::
         :: -> isotropic ES            0.154068465448 Eh    ::
         :: -> anisotropic ES          0.014673551736 Eh    ::
         :: -> anisotropic XC          0.097308358299 Eh    ::
         :: -> dispersion             -0.155649085897 Eh    ::
         :: repulsion energy           2.733653823287 Eh    ::
         :: add. restraining           0.000000000000 Eh    ::
         :: total charge              -0.000000000972 e     ::
         :::::::::::::::::::::::::::::::::::::::::::::::::::::

      ----------------------------------------------------------- 
     |                   =====================                   |
     |                        A N C O P T                        |
     |                   =====================                   |
     |               Approximate Normal Coordinate               |
     |                Rational Function Optimizer                |
      ----------------------------------------------------------- 

          ...................................................
          :                      SETUP                      :
          :.................................................:
          :   optimization level            normal          :
          :   max. optcycles                   309          :
          :   ANC micro-cycles                  20          :
          :   degrees of freedom               303          :
          :.................................................:
          :   RF solver                   davidson          :
          :   write xtbopt.log                true          :
          :   linear?                        false          :
          :   energy convergence         0.5000000E-05 Eh   :
          :   grad. convergence          0.1000000E-02 Eh/α :
          :   maximium RF displ.         1.0000000          :
          :   Hlow (freq-cutoff)         0.1000000E-01      :
          :   Hmax (freq-cutoff)         5.0000000          :
          :   S6 in model hess.         20.0000000          :
          ...................................................

generating ANC from model Hessian ...
Using Lindh-Hessian (1995)
 Shifting diagonal of input Hessian by   1.012816498717176E-002
 Lowest  eigenvalues of input Hessian
    0.010000    0.000000    0.000000    0.000000    0.000000    0.000000
    0.000000    0.010132    0.010136    0.010151    0.010172    0.010219
    0.010268    0.010308    0.010324    0.010359    0.010551    0.010712
 Highest eigenvalues
    2.143684    2.154556    2.508909    2.509047    2.560127    2.562034
 

........................................................................
.............................. CYCLE    1 ..............................
........................................................................
   1   -202.1333229 -0.202133E+03  0.194E-04    0.72       0.0  T
   2   -202.1333229  0.303430E-09  0.167E-04    0.72      59.1  T
   3   -202.1333229 -0.241261E-08  0.824E-05    0.72     119.6  T
     SCC iter.                  ...        0 min,  0.049 sec
     gradient                   ...        0 min,  0.137 sec
 * total energy  :  -199.3998521 Eh     change       -0.5570854E-08 Eh
   gradient norm :     0.2551088 Eh/α   predicted     0.0000000E+00 (-100.00%)
   displ. norm   :     0.3997166 α      lambda       -0.6181864E-01
   maximum displ.:     0.0869684 α      in ANC's #78, #130, #79, ...

........................................................................
.............................. CYCLE    2 ..............................
........................................................................
   1   -202.2526974 -0.202253E+03  0.267E-01    0.69       0.0  T
   2   -202.2537481 -0.105076E-02  0.166E-01    0.75       1.0  T
   3   -202.2539060 -0.157901E-03  0.962E-02    0.71       1.0  T
   4   -202.2542325 -0.326508E-03  0.351E-02    0.71       1.0  T
   5   -202.2543059 -0.733277E-04  0.177E-02    0.72       1.0  T
   6   -202.2543307 -0.248468E-04  0.588E-03    0.72       1.7  T
   7   -202.2543323 -0.161140E-05  0.271E-03    0.72       3.6  T
   8   -202.2543329 -0.532500E-06  0.121E-03    0.72       8.1  T
   9   -202.2543329 -0.536351E-07  0.737E-04    0.72      13.4  T
  10   -202.2543329 -0.270055E-07  0.292E-04    0.72      33.7  T
     SCC iter.                  ...        0 min,  0.150 sec
     gradient                   ...        0 min,  0.137 sec
 * total energy  :  -199.4439288 Eh     change       -0.4407668E-01 Eh
   gradient norm :     0.1205132 Eh/α   predicted    -0.3588352E-01 ( -18.59%)
   displ. norm   :     0.4349659 α      lambda       -0.2591269E-01
   maximum displ.:     0.1355644 α      in ANC's #38, #79, #69, ...

........................................................................
.............................. CYCLE    3 ..............................
........................................................................
   1   -202.3072739 -0.202307E+03  0.297E-01    0.66       0.0  T
   2   -202.3081491 -0.875268E-03  0.170E-01    0.75       1.0  T
   3   -202.3079324  0.216710E-03  0.117E-01    0.68       1.0  T
   4   -202.3086392 -0.706826E-03  0.457E-02    0.71       1.0  T
   5   -202.3088746 -0.235364E-03  0.184E-02    0.71       1.0  T
   6   -202.3089002 -0.255840E-04  0.570E-03    0.71       1.7  T
   7   -202.3089012 -0.102552E-05  0.265E-03    0.71       3.7  T
   8   -202.3089017 -0.442446E-06  0.111E-03    0.71       8.9  T
   9   -202.3089017 -0.416095E-07  0.660E-04    0.71      14.9  T
  10   -202.3089017 -0.212406E-07  0.277E-04    0.71      35.5  T
     SCC iter.                  ...        0 min,  0.151 sec
     gradient                   ...        0 min,  0.137 sec
 * total energy  :  -199.4582514 Eh     change       -0.1432255E-01 Eh
   gradient norm :     0.0395565 Eh/α   predicted    -0.1540764E-01 (   7.58%)
   displ. norm   :     0.5443266 α      lambda       -0.1060885E-01
   maximum displ.:     0.1900293 α      in ANC's #38, #23, #42, ...

........................................................................
.............................. CYCLE    4 ..............................
........................................................................
   1   -202.3146081 -0.202315E+03  0.396E-01    0.69       0.0  T
   2   -202.3148653 -0.257247E-03  0.222E-01    0.75       1.0  T
   3   -202.3127067  0.215861E-02  0.136E-01    0.66       1.0  T
   4   -202.3151121 -0.240539E-02  0.309E-02    0.73       1.0  T
   5   -202.3152260 -0.113839E-03  0.114E-02    0.73       1.0  T
   6   -202.3152322 -0.619966E-05  0.481E-03    0.73       2.0  T
   7   -202.3152328 -0.680749E-06  0.204E-03    0.73       4.8  T
   8   -202.3152331 -0.300664E-06  0.954E-04    0.73      10.3  T
   9   -202.3152332 -0.493734E-07  0.441E-04    0.73      22.3  T
     SCC iter.                  ...        0 min,  0.136 sec
     gradient                   ...        0 min,  0.137 sec
 * total energy  :  -199.4583455 Eh     change       -0.9412660E-04 Eh
   gradient norm :     0.0532400 Eh/α   predicted    -0.6876100E-02 (7205.16%)
   displ. norm   :     0.3620778 α      lambda       -0.1013792E-01
   maximum displ.:     0.1493673 α      in ANC's #38, #12, #29, ...

........................................................................
.............................. CYCLE    5 ..............................
........................................................................
   1   -202.3300872 -0.202330E+03  0.300E-01    0.74       0.0  T
   2   -202.3302413 -0.154065E-03  0.167E-01    0.75       1.0  T
   3   -202.3298212  0.420101E-03  0.610E-02    0.73       1.0  T
   4   -202.3303188 -0.497622E-03  0.964E-03    0.75       1.0  T
   5   -202.3303244 -0.559017E-05  0.546E-03    0.75       1.8  T
   6   -202.3303262 -0.181982E-05  0.270E-03    0.75       3.6  T
   7   -202.3303266 -0.440825E-06  0.123E-03    0.75       8.0  T
   8   -202.3303268 -0.143096E-06  0.462E-04    0.75      21.3  T
   9   -202.3303268 -0.780895E-08  0.245E-04    0.75      40.2  T
     SCC iter.                  ...        0 min,  0.136 sec
     gradient                   ...        0 min,  0.137 sec
 * total energy  :  -199.4641713 Eh     change       -0.5825785E-02 Eh
   gradient norm :     0.0259747 Eh/α   predicted    -0.5733509E-02 (  -1.58%)
   displ. norm   :     0.4361796 α      lambda       -0.3677296E-02
   maximum displ.:     0.2111195 α      in ANC's #38, #37, #35, ...

........................................................................
.............................. CYCLE    6 ..............................
........................................................................
   1   -202.3148045 -0.202315E+03  0.298E-01    0.74       0.0  T
   2   -202.3148820 -0.774979E-04  0.166E-01    0.78       1.0  T
   3   -202.3137087  0.117332E-02  0.953E-02    0.72       1.0  T
   4   -202.3150185 -0.130981E-02  0.968E-03    0.77       1.0  T
   5   -202.3150208 -0.222074E-05  0.603E-03    0.77       1.6  T
   6   -202.3150235 -0.273172E-05  0.263E-03    0.77       3.7  T
   7   -202.3150241 -0.565722E-06  0.113E-03    0.77       8.7  T
   8   -202.3150241 -0.760461E-07  0.503E-04    0.77      19.6  T
   9   -202.3150241 -0.143139E-07  0.239E-04    0.77      41.2  T
     SCC iter.                  ...        0 min,  0.137 sec
     gradient                   ...        0 min,  0.138 sec
 * total energy  :  -199.4651483 Eh     change       -0.9770783E-03 Eh
   gradient norm :     0.0316808 Eh/α   predicted    -0.2188458E-02 ( 123.98%)
   displ. norm   :     0.4641272 α      lambda       -0.4731592E-02
   maximum displ.:     0.2369737 α      in ANC's #38, #23, #1, ...

........................................................................
.............................. CYCLE    7 ..............................
........................................................................
   1   -202.3203891 -0.202320E+03  0.249E-01    0.77       0.0  T
   2   -202.3204486 -0.595009E-04  0.140E-01    0.82       1.0  T
   3   -202.3194275  0.102114E-02  0.860E-02    0.76       1.0  T
   4   -202.3205701 -0.114265E-02  0.108E-02    0.81       1.0  T
   5   -202.3205757 -0.559066E-05  0.588E-03    0.81       1.7  T
   6   -202.3205772 -0.148612E-05  0.260E-03    0.81       3.8  T
   7   -202.3205778 -0.601110E-06  0.102E-03    0.81       9.6  T
   8   -202.3205778 -0.474370E-07  0.560E-04    0.81      17.6  T
   9   -202.3205779 -0.212573E-07  0.236E-04    0.81      41.8  T
     SCC iter.                  ...        0 min,  0.136 sec
     gradient                   ...        0 min,  0.138 sec
 * total energy  :  -199.4675590 Eh     change       -0.2410667E-02 Eh
   gradient norm :     0.0303856 Eh/α   predicted    -0.2875423E-02 (  19.28%)
   displ. norm   :     0.3653238 α      lambda       -0.2320448E-02
   maximum displ.:     0.1726774 α      in ANC's #38, #18, #23, ...

........................................................................
.............................. CYCLE    8 ..............................
........................................................................
   1   -202.3373095 -0.202337E+03  0.144E-01    0.81       0.0  T
   2   -202.3373308 -0.212879E-04  0.812E-02    0.85       1.0  T
   3   -202.3369179  0.412897E-03  0.567E-02    0.80       1.0  T
   4   -202.3373906 -0.472659E-03  0.895E-03    0.84       1.1  T
   5   -202.3373960 -0.539424E-05  0.398E-03    0.84       2.5  T
   6   -202.3373965 -0.518885E-06  0.180E-03    0.84       5.5  T
   7   -202.3373968 -0.279407E-06  0.762E-04    0.84      12.9  T
   8   -202.3373968 -0.350205E-07  0.378E-04    0.84      26.1  T
     SCC iter.                  ...        0 min,  0.121 sec
     gradient                   ...        0 min,  0.138 sec
 * total energy  :  -199.4688382 Eh     change       -0.1279188E-02 Eh
   gradient norm :     0.0193991 Eh/α   predicted    -0.1315070E-02 (   2.81%)
   displ. norm   :     0.5209384 α      lambda       -0.2602654E-02
   maximum displ.:     0.2245964 α      in ANC's #38, #35, #23, ...

........................................................................
.............................. CYCLE    9 ..............................
........................................................................
   1   -202.3502984 -0.202350E+03  0.252E-01    0.85       0.0  T
   2   -202.3503595 -0.611574E-04  0.142E-01    0.89       1.0  T
   3   -202.3493209  0.103859E-02  0.847E-02    0.83       1.0  T
   4   -202.3504788 -0.115785E-02  0.102E-02    0.88       1.0  T
   5   -202.3504823 -0.352820E-05  0.589E-03    0.88       1.7  T
   6   -202.3504840 -0.172464E-05  0.249E-03    0.88       4.0  T
   7   -202.3504845 -0.456872E-06  0.120E-03    0.88       8.2  T
   8   -202.3504846 -0.103709E-06  0.507E-04    0.88      19.5  T
   9   -202.3504846 -0.162976E-07  0.232E-04    0.88      42.5  T
     SCC iter.                  ...        0 min,  0.136 sec
     gradient                   ...        0 min,  0.137 sec
 * total energy  :  -199.4691515 Eh     change       -0.3133338E-03 Eh
   gradient norm :     0.0466864 Eh/α   predicted    -0.1654478E-02 ( 428.02%)
   displ. norm   :     0.2785119 α      lambda       -0.2286131E-02
   maximum displ.:     0.1021607 α      in ANC's #38, #18, #11, ...

........................................................................
.............................. CYCLE   10 ..............................
........................................................................
   1   -202.3435844 -0.202344E+03  0.128E-01    0.87       0.0  T
   2   -202.3436073 -0.229367E-04  0.716E-02    0.89       1.0  T
   3   -202.3433949  0.212415E-03  0.406E-02    0.87       1.0  T
   4   -202.3436349 -0.239972E-03  0.530E-03    0.89       1.9  T
   5   -202.3436362 -0.126172E-05  0.313E-03    0.89       3.1  T
   6   -202.3436367 -0.563200E-06  0.113E-03    0.89       8.7  T
   7   -202.3436368 -0.371531E-07  0.583E-04    0.89      16.9  T
   8   -202.3436368 -0.243950E-07  0.268E-04    0.89      36.8  T
     SCC iter.                  ...        0 min,  0.121 sec
     gradient                   ...        0 min,  0.138 sec
 * total energy  :  -199.4706985 Eh     change       -0.1547013E-02 Eh
   gradient norm :     0.0140319 Eh/α   predicted    -0.1231733E-02 ( -20.38%)
   displ. norm   :     0.3891591 α      lambda       -0.9187396E-03
   maximum displ.:     0.1290003 α      in ANC's #38, #11, #7, ...

........................................................................
.............................. CYCLE   11 ..............................
........................................................................
   1   -202.3417649 -0.202342E+03  0.118E-01    0.88       0.0  T
   2   -202.3417815 -0.166316E-04  0.665E-02    0.91       1.0  T
   3   -202.3414925  0.289052E-03  0.471E-02    0.88       1.0  T
   4   -202.3418205 -0.328078E-03  0.620E-03    0.91       1.6  T
   5   -202.3418221 -0.153541E-05  0.353E-03    0.91       2.8  T
   6   -202.3418227 -0.649083E-06  0.121E-03    0.91       8.1  T
   7   -202.3418228 -0.617710E-07  0.661E-04    0.91      14.9  T
   8   -202.3418228 -0.303105E-07  0.289E-04    0.91      34.1  T
     SCC iter.                  ...        0 min,  0.121 sec
     gradient                   ...        0 min,  0.138 sec
 * total energy  :  -199.4712078 Eh     change       -0.5092288E-03 Eh
   gradient norm :     0.0180729 Eh/α   predicted    -0.5289407E-03 (   3.87%)
   displ. norm   :     0.5178064 α      lambda       -0.1166249E-02
   maximum displ.:     0.1734253 α      in ANC's #7, #11, #9, ...

........................................................................
.............................. CYCLE   12 ..............................
........................................................................
   1   -202.3398411 -0.202340E+03  0.195E-01    0.90       0.0  T
   2   -202.3398835 -0.423314E-04  0.109E-01    0.93       1.0  T
   3   -202.3394274  0.456122E-03  0.580E-02    0.90       1.0  T
   4   -202.3399372 -0.509861E-03  0.731E-03    0.92       1.3  T
   5   -202.3399390 -0.173897E-05  0.448E-03    0.92       2.2  T
   6   -202.3399401 -0.113749E-05  0.136E-03    0.92       7.3  T
   7   -202.3399401 -0.132231E-07  0.790E-04    0.92      12.5  T
   8   -202.3399402 -0.523155E-07  0.275E-04    0.92      35.9  T
     SCC iter.                  ...        0 min,  0.127 sec
     gradient                   ...        0 min,  0.138 sec
 * total energy  :  -199.4713881 Eh     change       -0.1803092E-03 Eh
   gradient norm :     0.0312977 Eh/α   predicted    -0.7394745E-03 ( 310.11%)
   displ. norm   :     0.2685672 α      lambda       -0.1399598E-02
   maximum displ.:     0.0913079 α      in ANC's #9, #8, #17, ...

........................................................................
.............................. CYCLE   13 ..............................
........................................................................
   1   -202.3526514 -0.202353E+03  0.143E-01    0.93       0.0  T
   2   -202.3526797 -0.283207E-04  0.792E-02    0.93       1.0  T
   3   -202.3526436  0.361062E-04  0.217E-02    0.93       1.0  T
   4   -202.3526916 -0.480258E-04  0.426E-03    0.93       2.3  T
   5   -202.3526925 -0.822441E-06  0.255E-03    0.93       3.9  T
   6   -202.3526929 -0.412305E-06  0.951E-04    0.93      10.4  T
   7   -202.3526929 -0.605705E-07  0.336E-04    0.93      29.3  T
     SCC iter.                  ...        0 min,  0.107 sec
     gradient                   ...        0 min,  0.138 sec
 * total energy  :  -199.4721196 Eh     change       -0.7315112E-03 Eh
   gradient norm :     0.0124323 Eh/α   predicted    -0.7502753E-03 (   2.57%)
   displ. norm   :     0.3529480 α      lambda       -0.6449963E-03
   maximum displ.:     0.1413844 α      in ANC's #7, #11, #9, ...

........................................................................
.............................. CYCLE   14 ..............................
........................................................................
   1   -202.3488486 -0.202349E+03  0.805E-02    0.93       0.0  T
   2   -202.3488561 -0.748836E-05  0.459E-02    0.94       1.0  T
   3   -202.3487468  0.109260E-03  0.289E-02    0.93       1.0  T
   4   -202.3488688 -0.122010E-03  0.446E-03    0.94       2.2  T
   5   -202.3488699 -0.110078E-05  0.245E-03    0.94       4.0  T
   6   -202.3488701 -0.241424E-06  0.983E-04    0.94      10.0  T
   7   -202.3488702 -0.473511E-07  0.439E-04    0.94      22.4  T
     SCC iter.                  ...        0 min,  0.107 sec
     gradient                   ...        0 min,  0.138 sec
 * total energy  :  -199.4725977 Eh     change       -0.4781295E-03 Eh
   gradient norm :     0.0080037 Eh/α   predicted    -0.3626751E-03 ( -24.15%)
   displ. norm   :     0.5852860 α      lambda       -0.8386158E-03
   maximum displ.:     0.2559504 α      in ANC's #7, #11, #9, ...

........................................................................
.............................. CYCLE   15 ..............................
........................................................................
   1   -202.3510866 -0.202351E+03  0.980E-02    0.94       0.0  T
   2   -202.3510965 -0.984610E-05  0.555E-02    0.94       1.0  T
   3   -202.3510594  0.370886E-04  0.192E-02    0.94       1.0  T
   4   -202.3511021 -0.427133E-04  0.420E-03    0.94       2.3  T
   5   -202.3511027 -0.602079E-06  0.274E-03    0.94       3.6  T
   6   -202.3511033 -0.565839E-06  0.906E-04    0.94      10.9  T
   7   -202.3511033 -0.694006E-07  0.381E-04    0.94      25.8  T
     SCC iter.                  ...        0 min,  0.107 sec
     gradient                   ...        0 min,  0.138 sec
 * total energy  :  -199.4732713 Eh     change       -0.6735833E-03 Eh
   gradient norm :     0.0107082 Eh/α   predicted    -0.5629566E-03 ( -16.42%)
   displ. norm   :     0.7118368 α      lambda       -0.9539172E-03
   maximum displ.:     0.3100658 α      in ANC's #7, #11, #9, ...

........................................................................
.............................. CYCLE   16 ..............................
........................................................................
   1   -202.3451844 -0.202345E+03  0.114E-01    0.94       0.0  T
   2   -202.3451975 -0.130744E-04  0.644E-02    0.95       1.0  T
   3   -202.3451461  0.513733E-04  0.207E-02    0.93       1.0  T
   4   -202.3452045 -0.583993E-04  0.519E-03    0.94       1.9  T
   5   -202.3452058 -0.121806E-05  0.327E-03    0.94       3.0  T
   6   -202.3452064 -0.639481E-06  0.956E-04    0.94      10.3  T
   7   -202.3452064 -0.466299E-07  0.446E-04    0.94      22.1  T
     SCC iter.                  ...        0 min,  0.107 sec
     gradient                   ...        0 min,  0.137 sec
 * total energy  :  -199.4740685 Eh     change       -0.7971609E-03 Eh
   gradient norm :     0.0100998 Eh/α   predicted    -0.7186425E-03 (  -9.85%)
   displ. norm   :     0.7036189 α      lambda       -0.8881668E-03
   maximum displ.:     0.3165691 α      in ANC's #7, #9, #11, ...

........................................................................
.............................. CYCLE   17 ..............................
........................................................................
   1   -202.3458062 -0.202346E+03  0.976E-02    0.94       0.0  T
   2   -202.3458132 -0.707296E-05  0.557E-02    0.94       1.0  T
   3   -202.3457643  0.489084E-04  0.201E-02    0.95       1.0  T
   4   -202.3458185 -0.541542E-04  0.416E-03    0.94       2.4  T
   5   -202.3458191 -0.607196E-06  0.266E-03    0.95       3.7  T
   6   -202.3458196 -0.511195E-06  0.797E-04    0.95      12.4  T
   7   -202.3458196 -0.354932E-07  0.404E-04    0.95      24.4  T
     SCC iter.                  ...        0 min,  0.107 sec
     gradient                   ...        0 min,  0.137 sec
 * total energy  :  -199.4748089 Eh     change       -0.7403860E-03 Eh
   gradient norm :     0.0108604 Eh/α   predicted    -0.6639420E-03 ( -10.32%)
   displ. norm   :     0.7484895 α      lambda       -0.8086957E-03
   maximum displ.:     0.3490745 α      in ANC's #7, #9, #11, ...

........................................................................
.............................. CYCLE   18 ..............................
........................................................................
   1   -202.3431412 -0.202343E+03  0.101E-01    0.95       0.0  T
   2   -202.3431490 -0.780935E-05  0.578E-02    0.95       1.0  T
   3   -202.3431016  0.473952E-04  0.192E-02    0.95       1.0  T
   4   -202.3431542 -0.525593E-04  0.420E-03    0.95       2.3  T
   5   -202.3431548 -0.672692E-06  0.265E-03    0.95       3.7  T
   6   -202.3431552 -0.386485E-06  0.887E-04    0.95      11.1  T
   7   -202.3431553 -0.439372E-07  0.421E-04    0.95      23.4  T
     SCC iter.                  ...        0 min,  0.107 sec
     gradient                   ...        0 min,  0.137 sec
 * total energy  :  -199.4755157 Eh     change       -0.7068319E-03 Eh
   gradient norm :     0.0084808 Eh/α   predicted    -0.6308816E-03 ( -10.75%)
   displ. norm   :     0.7441016 α      lambda       -0.8385130E-03
   maximum displ.:     0.3669465 α      in ANC's #7, #9, #8, ...

........................................................................
.............................. CYCLE   19 ..............................
........................................................................
   1   -202.3460595 -0.202346E+03  0.983E-02    0.96       0.0  T
   2   -202.3460689 -0.945222E-05  0.567E-02    0.96       1.0  T
   3   -202.3460175  0.514741E-04  0.206E-02    0.96       1.0  T
   4   -202.3460746 -0.571132E-04  0.458E-03    0.96       2.2  T
   5   -202.3460758 -0.125721E-05  0.247E-03    0.96       4.0  T
   6   -202.3460761 -0.252959E-06  0.974E-04    0.96      10.1  T
   7   -202.3460761 -0.574911E-07  0.428E-04    0.96      23.0  T
     SCC iter.                  ...        0 min,  0.107 sec
     gradient                   ...        0 min,  0.137 sec
 * total energy  :  -199.4762252 Eh     change       -0.7095076E-03 Eh
   gradient norm :     0.0086134 Eh/α   predicted    -0.6513943E-03 (  -8.19%)
   displ. norm   :     0.7814495 α      lambda       -0.8138135E-03
   maximum displ.:     0.4096642 α      in ANC's #7, #9, #8, ...

........................................................................
.............................. CYCLE   20 ..............................
........................................................................
   1   -202.3473511 -0.202347E+03  0.105E-01    0.96       0.0  T
   2   -202.3473619 -0.108486E-04  0.604E-02    0.97       1.0  T
   3   -202.3472622  0.997802E-04  0.279E-02    0.96       1.0  T
   4   -202.3473710 -0.108806E-03  0.506E-03    0.97       1.9  T
   5   -202.3473726 -0.167420E-05  0.280E-03    0.97       3.5  T
   6   -202.3473730 -0.410621E-06  0.114E-03    0.97       8.6  T
   7   -202.3473731 -0.639709E-07  0.479E-04    0.97      20.6  T
   8   -202.3473731 -0.107534E-07  0.235E-04    0.97      42.0  T
     SCC iter.                  ...        0 min,  0.121 sec
     gradient                   ...        0 min,  0.137 sec
 * total energy  :  -199.4769180 Eh     change       -0.6927831E-03 Eh
   gradient norm :     0.0077740 Eh/α   predicted    -0.6553918E-03 (  -5.40%)
   displ. norm   :     0.7729475 α      lambda       -0.7627649E-03
   maximum displ.:     0.4094611 α      in ANC's #7, #8, #9, ...
 * RMSD in coord.:     0.7755322 α      energy gain  -0.7706585E-01 Eh

generating ANC from model Hessian ...
Using Lindh-Hessian (1995)
 Shifting diagonal of input Hessian by   1.001458896348369E-002
 Lowest  eigenvalues of input Hessian
    0.010000    0.000000    0.000000    0.000000    0.000000    0.000000
    0.000000    0.010019    0.010034    0.010049    0.010077    0.010161
    0.010202    0.010242    0.010433    0.010616    0.010654    0.010756
 Highest eigenvalues
    2.275642    2.284580    2.603161    2.603835    2.643295    2.651466
 

........................................................................
.............................. CYCLE   21 ..............................
........................................................................
   1   -202.3450735 -0.202345E+03  0.113E-01    0.97       0.0  T
   2   -202.3450862 -0.127456E-04  0.646E-02    0.97       1.0  T
   3   -202.3450089  0.772960E-04  0.244E-02    0.97       1.0  T
   4   -202.3450943 -0.853684E-04  0.536E-03    0.97       1.8  T
   5   -202.3450961 -0.182957E-05  0.290E-03    0.97       3.4  T
   6   -202.3450965 -0.379831E-06  0.112E-03    0.97       8.8  T
   7   -202.3450966 -0.621596E-07  0.472E-04    0.97      20.9  T
   8   -202.3450966 -0.118191E-07  0.243E-04    0.97      40.5  T
     SCC iter.                  ...        0 min,  0.121 sec
     gradient                   ...        0 min,  0.137 sec
 * total energy  :  -199.4775800 Eh     change       -0.6620707E-03 Eh
   gradient norm :     0.0120906 Eh/α   predicted     0.0000000E+00 (-100.00%)
   displ. norm   :     0.1130167 α      lambda       -0.2849705E-03
   maximum displ.:     0.0551966 α      in ANC's #6, #7, #4, ...

........................................................................
.............................. CYCLE   22 ..............................
........................................................................
   1   -202.3508417 -0.202351E+03  0.388E-02    0.97       0.0  T
   2   -202.3508445 -0.278906E-05  0.216E-02    0.97       1.0  T
   3   -202.3508393  0.523402E-05  0.791E-03    0.97       1.2  T
   4   -202.3508455 -0.620592E-05  0.195E-03    0.97       5.1  T
   5   -202.3508458 -0.321393E-06  0.947E-04    0.97      10.4  T
   6   -202.3508459 -0.567497E-07  0.487E-04    0.97      20.2  T
     SCC iter.                  ...        0 min,  0.092 sec
     gradient                   ...        0 min,  0.137 sec
 * total energy  :  -199.4777829 Eh     change       -0.2028324E-03 Eh
   gradient norm :     0.0051177 Eh/α   predicted    -0.1443089E-03 ( -28.85%)
   displ. norm   :     0.3387188 α      lambda       -0.5894143E-03
   maximum displ.:     0.1704805 α      in ANC's #6, #7, #12, ...

........................................................................
.............................. CYCLE   23 ..............................
........................................................................
   1   -202.3603918 -0.202360E+03  0.991E-02    0.97       0.0  T
   2   -202.3604063 -0.145333E-04  0.555E-02    0.98       1.0  T
   3   -202.3603794  0.269240E-04  0.175E-02    0.97       1.0  T
   4   -202.3604114 -0.319982E-04  0.448E-03    0.97       2.2  T
   5   -202.3604129 -0.153558E-05  0.235E-03    0.98       4.2  T
   6   -202.3604133 -0.362364E-06  0.114E-03    0.98       8.6  T
   7   -202.3604134 -0.103736E-06  0.451E-04    0.98      21.8  T
   8   -202.3604134 -0.102632E-07  0.209E-04    0.98      47.2  T
     SCC iter.                  ...        0 min,  0.121 sec
     gradient                   ...        0 min,  0.138 sec
 * total energy  :  -199.4777986 Eh     change       -0.1567705E-04 Eh
   gradient norm :     0.0208426 Eh/α   predicted    -0.3285221E-03 (1995.56%)
   displ. norm   :     0.1720001 α      lambda       -0.6887104E-03
   maximum displ.:     0.0787016 α      in ANC's #6, #7, #4, ...

........................................................................
.............................. CYCLE   24 ..............................
........................................................................
   1   -202.3572862 -0.202357E+03  0.870E-02    0.97       0.0  T
   2   -202.3572950 -0.874764E-05  0.481E-02    0.98       1.0  T
   3   -202.3572906  0.434846E-05  0.876E-03    0.97       1.1  T
   4   -202.3572987 -0.802446E-05  0.223E-03    0.98       4.4  T
   5   -202.3572987 -0.757278E-07  0.142E-03    0.97       7.0  T
   6   -202.3572989 -0.172049E-06  0.405E-04    0.98      24.3  T
   7   -202.3572989 -0.148289E-07  0.173E-04    0.98      56.8  T
     SCC iter.                  ...        0 min,  0.107 sec
     gradient                   ...        0 min,  0.137 sec
 * total energy  :  -199.4782266 Eh     change       -0.4280253E-03 Eh
   gradient norm :     0.0107621 Eh/α   predicted    -0.3545431E-03 ( -17.17%)
   displ. norm   :     0.2574669 α      lambda       -0.3861426E-03
   maximum displ.:     0.1329352 α      in ANC's #6, #7, #4, ...

........................................................................
.............................. CYCLE   25 ..............................
........................................................................
   1   -202.3518653 -0.202352E+03  0.813E-02    0.97       0.0  T
   2   -202.3518734 -0.810348E-05  0.453E-02    0.98       1.0  T
   3   -202.3518537  0.196902E-04  0.139E-02    0.97       1.0  T
   4   -202.3518777 -0.239532E-04  0.266E-03    0.98       3.7  T
   5   -202.3518781 -0.392790E-06  0.152E-03    0.98       6.5  T
   6   -202.3518782 -0.129432E-06  0.582E-04    0.98      16.9  T
   7   -202.3518782 -0.264183E-07  0.219E-04    0.98      45.0  T
     SCC iter.                  ...        0 min,  0.107 sec
     gradient                   ...        0 min,  0.137 sec
 * total energy  :  -199.4784392 Eh     change       -0.2126000E-03 Eh
   gradient norm :     0.0093665 Eh/α   predicted    -0.2058703E-03 (  -3.17%)
   displ. norm   :     0.3800784 α      lambda       -0.4680950E-03
   maximum displ.:     0.2046143 α      in ANC's #6, #7, #4, ...

........................................................................
.............................. CYCLE   26 ..............................
........................................................................
   1   -202.3492950 -0.202349E+03  0.624E-02    0.98       0.0  T
   2   -202.3492987 -0.372371E-05  0.359E-02    0.98       1.0  T
   3   -202.3492701  0.286474E-04  0.154E-02    0.98       1.0  T
   4   -202.3493015 -0.314276E-04  0.307E-03    0.98       3.2  T
   5   -202.3493023 -0.774584E-06  0.144E-03    0.98       6.9  T
   6   -202.3493024 -0.979282E-07  0.740E-04    0.98      13.3  T
   7   -202.3493024 -0.362779E-07  0.306E-04    0.98      32.2  T
     SCC iter.                  ...        0 min,  0.106 sec
     gradient                   ...        0 min,  0.137 sec
 * total energy  :  -199.4788063 Eh     change       -0.3671553E-03 Eh
   gradient norm :     0.0085603 Eh/α   predicted    -0.2678611E-03 ( -27.04%)
   displ. norm   :     0.5993651 α      lambda       -0.7314061E-03
   maximum displ.:     0.3052029 α      in ANC's #6, #7, #4, ...

........................................................................
.............................. CYCLE   27 ..............................
........................................................................
   1   -202.3458007 -0.202346E+03  0.131E-01    0.98       0.0  T
   2   -202.3458196 -0.189304E-04  0.742E-02    0.98       1.0  T
   3   -202.3457485  0.710584E-04  0.247E-02    0.98       1.0  T
   4   -202.3458297 -0.811406E-04  0.564E-03    0.98       1.7  T
   5   -202.3458321 -0.239997E-05  0.275E-03    0.98       3.6  T
   6   -202.3458324 -0.289627E-06  0.139E-03    0.98       7.1  T
   7   -202.3458325 -0.157936E-06  0.513E-04    0.98      19.2  T
   8   -202.3458325 -0.162753E-07  0.246E-04    0.98      40.1  T
     SCC iter.                  ...        0 min,  0.121 sec
     gradient                   ...        0 min,  0.137 sec
 * total energy  :  -199.4791089 Eh     change       -0.3025624E-03 Eh
   gradient norm :     0.0123689 Eh/α   predicted    -0.4970844E-03 (  64.29%)
   displ. norm   :     0.4839469 α      lambda       -0.8493374E-03
   maximum displ.:     0.2666767 α      in ANC's #6, #7, #4, ...

........................................................................
.............................. CYCLE   28 ..............................
........................................................................
   1   -202.3479541 -0.202348E+03  0.108E-01    0.99       0.0  T
   2   -202.3479672 -0.131512E-04  0.605E-02    0.99       1.0  T
   3   -202.3479512  0.159993E-04  0.134E-02    0.99       1.0  T
   4   -202.3479719 -0.206872E-04  0.419E-03    0.99       2.4  T
   5   -202.3479732 -0.128801E-05  0.205E-03    0.99       4.8  T
   6   -202.3479733 -0.957860E-07  0.108E-03    0.99       9.1  T
   7   -202.3479734 -0.122795E-06  0.324E-04    0.99      30.4  T
   8   -202.3479734 -0.457771E-08  0.172E-04    0.99      57.2  T
     SCC iter.                  ...        0 min,  0.122 sec
     gradient                   ...        0 min,  0.148 sec
 * total energy  :  -199.4796949 Eh     change       -0.5860307E-03 Eh
   gradient norm :     0.0090167 Eh/α   predicted    -0.5241335E-03 ( -10.56%)
   displ. norm   :     0.5718125 α      lambda       -0.6051619E-03
   maximum displ.:     0.3112793 α      in ANC's #6, #7, #4, ...

........................................................................
.............................. CYCLE   29 ..............................
........................................................................
   1   -202.3488765 -0.202349E+03  0.900E-02    0.99       0.0  T
   2   -202.3488856 -0.910556E-05  0.511E-02    0.99       1.0  T
   3   -202.3488602  0.253880E-04  0.159E-02    0.99       1.0  T
   4   -202.3488893 -0.290448E-04  0.438E-03    0.99       2.2  T
   5   -202.3488908 -0.151844E-05  0.195E-03    0.99       5.0  T
   6   -202.3488908 -0.621427E-07  0.113E-03    0.99       8.7  T
   7   -202.3488910 -0.124151E-06  0.353E-04    0.99      27.9  T
   8   -202.3488910 -0.525853E-08  0.184E-04    0.99      53.6  T
     SCC iter.                  ...        0 min,  0.154 sec
     gradient                   ...        0 min,  0.150 sec
 * total energy  :  -199.4802096 Eh     change       -0.5146283E-03 Eh
   gradient norm :     0.0073633 Eh/α   predicted    -0.4015165E-03 ( -21.98%)
   displ. norm   :     0.7107721 α      lambda       -0.8450725E-03
   maximum displ.:     0.3955338 α      in ANC's #6, #7, #4, ...

........................................................................
.............................. CYCLE   30 ..............................
........................................................................
   1   -202.3527082 -0.202353E+03  0.126E-01    0.99       0.0  T
   2   -202.3527292 -0.209868E-04  0.710E-02    0.99       1.0  T
   3   -202.3526913  0.379707E-04  0.202E-02    0.99       1.0  T
   4   -202.3527375 -0.462156E-04  0.541E-03    0.99       1.8  T
   5   -202.3527396 -0.207671E-05  0.247E-03    0.99       4.0  T
   6   -202.3527396 -0.842459E-07  0.140E-03    0.99       7.0  T
   7   -202.3527398 -0.205901E-06  0.514E-04    0.99      19.2  T
   8   -202.3527399 -0.175510E-07  0.230E-04    0.99      42.9  T
     SCC iter.                  ...        0 min,  0.154 sec
     gradient                   ...        0 min,  0.151 sec
 * total energy  :  -199.4808467 Eh     change       -0.6370963E-03 Eh
   gradient norm :     0.0094108 Eh/α   predicted    -0.6360038E-03 (  -0.17%)
   displ. norm   :     0.7812457 α      lambda       -0.7917028E-03
   maximum displ.:     0.4363689 α      in ANC's #6, #7, #4, ...

........................................................................
.............................. CYCLE   31 ..............................
........................................................................
   1   -202.3538137 -0.202354E+03  0.104E-01    1.00       0.0  T
   2   -202.3538244 -0.107883E-04  0.599E-02    1.00       1.0  T
   3   -202.3537924  0.320538E-04  0.181E-02    1.00       1.0  T
   4   -202.3538291 -0.366743E-04  0.477E-03    1.00       2.1  T
   5   -202.3538308 -0.169830E-05  0.212E-03    1.00       4.7  T
   6   -202.3538308 -0.711071E-07  0.109E-03    1.00       9.1  T
   7   -202.3538309 -0.905048E-07  0.424E-04    1.00      23.2  T
   8   -202.3538309 -0.637561E-08  0.240E-04    1.00      41.0  T
     SCC iter.                  ...        0 min,  0.130 sec
     gradient                   ...        0 min,  0.144 sec
 * total energy  :  -199.4815576 Eh     change       -0.7109854E-03 Eh
   gradient norm :     0.0080209 Eh/α   predicted    -0.6374586E-03 ( -10.34%)
   displ. norm   :     0.8305834 α      lambda       -0.8164863E-03
   maximum displ.:     0.4690742 α      in ANC's #6, #7, #4, ...

........................................................................
.............................. CYCLE   32 ..............................
........................................................................
   1   -202.3538457 -0.202354E+03  0.108E-01    1.00       0.0  T
   2   -202.3538584 -0.126678E-04  0.620E-02    1.00       1.0  T
   3   -202.3538178  0.406315E-04  0.202E-02    1.00       1.0  T
   4   -202.3538636 -0.458632E-04  0.515E-03    1.00       1.9  T
   5   -202.3538660 -0.232193E-05  0.219E-03    1.00       4.5  T
   6   -202.3538661 -0.110907E-06  0.113E-03    1.00       8.7  T
   7   -202.3538662 -0.105606E-06  0.467E-04    1.00      21.1  T
   8   -202.3538662 -0.822271E-08  0.252E-04    1.00      39.1  T
     SCC iter.                  ...        0 min,  0.128 sec
     gradient                   ...        0 min,  0.144 sec
 * total energy  :  -199.4823024 Eh     change       -0.7448086E-03 Eh
   gradient norm :     0.0068849 Eh/α   predicted    -0.6898786E-03 (  -7.38%)
   displ. norm   :     0.8470115 α      lambda       -0.8132018E-03
   maximum displ.:     0.4788893 α      in ANC's #6, #7, #4, ...

........................................................................
.............................. CYCLE   33 ..............................
........................................................................
   1   -202.3535051 -0.202354E+03  0.115E-01    1.00       0.0  T
   2   -202.3535185 -0.134232E-04  0.656E-02    1.00       1.0  T
   3   -202.3534631  0.554896E-04  0.227E-02    1.01       1.0  T
   4   -202.3535244 -0.613408E-04  0.587E-03    1.00       1.7  T
   5   -202.3535277 -0.328030E-05  0.265E-03    1.00       3.7  T
   6   -202.3535279 -0.231469E-06  0.153E-03    1.00       6.4  T
   7   -202.3535281 -0.224063E-06  0.529E-04    1.00      18.6  T
   8   -202.3535281 -0.103523E-07  0.281E-04    1.00      35.1  T
     SCC iter.                  ...        0 min,  0.127 sec
     gradient                   ...        0 min,  0.144 sec
 * total energy  :  -199.4830535 Eh     change       -0.7510079E-03 Eh
   gradient norm :     0.0064656 Eh/α   predicted    -0.6983126E-03 (  -7.02%)
   displ. norm   :     0.8449944 α      lambda       -0.8315729E-03
   maximum displ.:     0.4827077 α      in ANC's #6, #7, #4, ...

........................................................................
.............................. CYCLE   34 ..............................
........................................................................
   1   -202.3549882 -0.202355E+03  0.110E-01    1.01       0.0  T
   2   -202.3550000 -0.118246E-04  0.633E-02    1.01       1.0  T
   3   -202.3549161  0.838557E-04  0.270E-02    1.01       1.0  T
   4   -202.3550066 -0.904529E-04  0.653E-03    1.01       1.5  T
   5   -202.3550112 -0.460753E-05  0.275E-03    1.01       3.6  T
   6   -202.3550115 -0.278396E-06  0.158E-03    1.01       6.2  T
   7   -202.3550117 -0.213875E-06  0.538E-04    1.01      18.3  T
   8   -202.3550117 -0.104576E-07  0.290E-04    1.01      34.0  T
     SCC iter.                  ...        0 min,  0.127 sec
     gradient                   ...        0 min,  0.144 sec
 * total energy  :  -199.4838204 Eh     change       -0.7669872E-03 Eh
   gradient norm :     0.0084996 Eh/α   predicted    -0.7126653E-03 (  -7.08%)
   displ. norm   :     0.8653858 α      lambda       -0.8571314E-03
   maximum displ.:     0.4907579 α      in ANC's #6, #7, #4, ...

........................................................................
.............................. CYCLE   35 ..............................
........................................................................
   1   -202.3484299 -0.202348E+03  0.119E-01    1.01       0.0  T
   2   -202.3484424 -0.125021E-04  0.681E-02    1.01       1.0  T
   3   -202.3483833  0.591216E-04  0.238E-02    1.01       1.0  T
   4   -202.3484484 -0.650550E-04  0.604E-03    1.01       1.6  T
   5   -202.3484515 -0.314784E-05  0.301E-03    1.01       3.3  T
   6   -202.3484520 -0.469824E-06  0.152E-03    1.01       6.5  T
   7   -202.3484522 -0.190454E-06  0.553E-04    1.01      17.8  T
   8   -202.3484522 -0.814157E-08  0.288E-04    1.01      34.2  T
     SCC iter.                  ...        0 min,  0.127 sec
     gradient                   ...        0 min,  0.144 sec
 * total energy  :  -199.4845795 Eh     change       -0.7591040E-03 Eh
   gradient norm :     0.0084886 Eh/α   predicted    -0.7495226E-03 (  -1.26%)
   displ. norm   :     0.8090165 α      lambda       -0.1139367E-02
   maximum displ.:     0.3729527 α      in ANC's #6, #4, #9, ...

........................................................................
.............................. CYCLE   36 ..............................
........................................................................
   1   -202.3764586 -0.202376E+03  0.136E-01    1.02       0.0  T
   2   -202.3764938 -0.351669E-04  0.806E-02    1.02       1.0  T
   3   -202.3761652  0.328633E-03  0.543E-02    1.03       1.0  T
   4   -202.3765370 -0.371858E-03  0.131E-02    1.02       1.0  T
   5   -202.3765574 -0.203342E-04  0.428E-03    1.02       2.3  T
   6   -202.3765582 -0.818137E-06  0.235E-03    1.02       4.2  T
   7   -202.3765585 -0.334368E-06  0.957E-04    1.02      10.3  T
   8   -202.3765586 -0.666949E-07  0.424E-04    1.02      23.3  T
     SCC iter.                  ...        0 min,  0.127 sec
     gradient                   ...        0 min,  0.144 sec
 * total energy  :  -199.4847716 Eh     change       -0.1920774E-03 Eh
   gradient norm :     0.0233572 Eh/α   predicted    -0.9425490E-03 ( 390.71%)
   displ. norm   :     0.5664652 α      lambda       -0.1430225E-02
   maximum displ.:     0.3275833 α      in ANC's #6, #7, #4, ...

........................................................................
.............................. CYCLE   37 ..............................
........................................................................
   1   -202.3573012 -0.202357E+03  0.883E-02    1.01       0.0  T
   2   -202.3573200 -0.187365E-04  0.529E-02    1.01       1.0  T
   3   -202.3572089  0.111122E-03  0.317E-02    1.01       1.0  T
   4   -202.3573314 -0.122532E-03  0.723E-03    1.01       1.4  T
   5   -202.3573375 -0.606256E-05  0.241E-03    1.01       4.1  T
   6   -202.3573378 -0.346216E-06  0.140E-03    1.01       7.0  T
   7   -202.3573379 -0.119091E-06  0.637E-04    1.01      15.5  T
   8   -202.3573379 -0.256890E-07  0.253E-04    1.01      38.9  T
     SCC iter.                  ...        0 min,  0.127 sec
     gradient                   ...        0 min,  0.138 sec
 * total energy  :  -199.4856917 Eh     change       -0.9200728E-03 Eh
   gradient norm :     0.0106471 Eh/α   predicted    -0.9445804E-03 (   2.66%)
   displ. norm   :     0.7182664 α      lambda       -0.7560268E-03
   maximum displ.:     0.4154131 α      in ANC's #6, #4, #7, ...

........................................................................
.............................. CYCLE   38 ..............................
........................................................................
   1   -202.3462813 -0.202346E+03  0.996E-02    1.01       0.0  T
   2   -202.3462958 -0.145697E-04  0.577E-02    1.01       1.0  T
   3   -202.3462543  0.415006E-04  0.194E-02    1.01       1.0  T
   4   -202.3463000 -0.457013E-04  0.557E-03    1.01       1.8  T
   5   -202.3463027 -0.267317E-05  0.239E-03    1.01       4.1  T
   6   -202.3463029 -0.202892E-06  0.119E-03    1.01       8.2  T
   7   -202.3463030 -0.920270E-07  0.514E-04    1.01      19.2  T
   8   -202.3463030 -0.215735E-07  0.233E-04    1.01      42.3  T
     SCC iter.                  ...        0 min,  0.121 sec
     gradient                   ...        0 min,  0.136 sec
 * total energy  :  -199.4862360 Eh     change       -0.5443194E-03 Eh
   gradient norm :     0.0107595 Eh/α   predicted    -0.5730384E-03 (   5.28%)
   displ. norm   :     0.6888125 α      lambda       -0.6911786E-03
   maximum displ.:     0.3863791 α      in ANC's #6, #4, #12, ...

........................................................................
.............................. CYCLE   39 ..............................
........................................................................
   1   -202.3453784 -0.202345E+03  0.101E-01    1.01       0.0  T
   2   -202.3453946 -0.161856E-04  0.584E-02    1.01       1.0  T
   3   -202.3453227  0.719095E-04  0.247E-02    1.01       1.0  T
   4   -202.3454025 -0.797912E-04  0.584E-03    1.01       1.7  T
   5   -202.3454052 -0.267163E-05  0.263E-03    1.01       3.7  T
   6   -202.3454054 -0.202793E-06  0.142E-03    1.01       7.0  T
   7   -202.3454055 -0.139429E-06  0.555E-04    1.01      17.8  T
   8   -202.3454055 -0.224063E-07  0.265E-04    1.01      37.2  T
     SCC iter.                  ...        0 min,  0.121 sec
     gradient                   ...        0 min,  0.136 sec
 * total energy  :  -199.4867745 Eh     change       -0.5385059E-03 Eh
   gradient norm :     0.0129387 Eh/α   predicted    -0.5095644E-03 (  -5.37%)
   displ. norm   :     0.5368843 α      lambda       -0.1086857E-02
   maximum displ.:     0.2250154 α      in ANC's #6, #4, #3, ...

........................................................................
.............................. CYCLE   40 ..............................
........................................................................
   1   -202.3644928 -0.202364E+03  0.124E-01    1.02       0.0  T
   2   -202.3645039 -0.110800E-04  0.718E-02    1.02       1.0  T
   3   -202.3641991  0.304848E-03  0.477E-02    1.03       1.0  T
   4   -202.3645386 -0.339531E-03  0.749E-03    1.02       1.3  T
   5   -202.3645421 -0.347565E-05  0.382E-03    1.02       2.6  T
   6   -202.3645427 -0.643027E-06  0.160E-03    1.02       6.2  T
   7   -202.3645429 -0.154575E-06  0.712E-04    1.02      13.8  T
   8   -202.3645429 -0.241308E-07  0.365E-04    1.02      27.0  T
     SCC iter.                  ...        0 min,  0.121 sec
     gradient                   ...        0 min,  0.136 sec
 * total energy  :  -199.4871557 Eh     change       -0.3811751E-03 Eh
   gradient norm :     0.0149793 Eh/α   predicted    -0.7000743E-03 (  83.66%)
   displ. norm   :     0.6236387 α      lambda       -0.9952398E-03
   maximum displ.:     0.3495764 α      in ANC's #6, #4, #12, ...

........................................................................
.............................. CYCLE   41 ..............................
........................................................................
   1   -202.3594056 -0.202359E+03  0.999E-02    1.01       0.0  T
   2   -202.3594276 -0.220398E-04  0.581E-02    1.01       1.0  T
   3   -202.3593723  0.552980E-04  0.239E-02    1.01       1.0  T
   4   -202.3594354 -0.630250E-04  0.681E-03    1.01       1.4  T
   5   -202.3594386 -0.322116E-05  0.328E-03    1.01       3.0  T
   6   -202.3594392 -0.592388E-06  0.141E-03    1.01       7.0  T
   7   -202.3594393 -0.152421E-06  0.569E-04    1.01      17.3  T
   8   -202.3594393 -0.163274E-07  0.325E-04    1.01      30.3  T
     SCC iter.                  ...        0 min,  0.121 sec
     gradient                   ...        0 min,  0.135 sec
 * total energy  :  -199.4878070 Eh     change       -0.6513109E-03 Eh
   gradient norm :     0.0130774 Eh/α   predicted    -0.6911603E-03 (   6.12%)
   displ. norm   :     0.6559962 α      lambda       -0.6575127E-03
   maximum displ.:     0.3636009 α      in ANC's #6, #4, #12, ...

........................................................................
.............................. CYCLE   42 ..............................
........................................................................
   1   -202.3580086 -0.202358E+03  0.873E-02    1.01       0.0  T
   2   -202.3580170 -0.838581E-05  0.512E-02    1.01       1.0  T
   3   -202.3579549  0.620750E-04  0.232E-02    1.01       1.0  T
   4   -202.3580234 -0.684344E-04  0.427E-03    1.01       2.3  T
   5   -202.3580245 -0.112909E-05  0.191E-03    1.01       5.2  T
   6   -202.3580246 -0.130742E-06  0.933E-04    1.01      10.6  T
   7   -202.3580247 -0.526258E-07  0.407E-04    1.01      24.2  T
     SCC iter.                  ...        0 min,  0.112 sec
     gradient                   ...        0 min,  0.136 sec
 * total energy  :  -199.4882279 Eh     change       -0.4209295E-03 Eh
   gradient norm :     0.0134363 Eh/α   predicted    -0.4702378E-03 (  11.71%)
   displ. norm   :     0.6517689 α      lambda       -0.6107869E-03
   maximum displ.:     0.3649649 α      in ANC's #6, #4, #3, ...
 * RMSD in coord.:     1.1958424 α      energy gain  -0.1130996E-01 Eh

generating ANC from model Hessian ...
Using Lindh-Hessian (1995)
 Shifting diagonal of input Hessian by   1.000702862437623E-002
 Lowest  eigenvalues of input Hessian
    0.010000    0.000000    0.000000    0.000000    0.000000    0.000000
    0.000000    0.010009    0.010030    0.010052    0.010079    0.010168
    0.010220    0.010343    0.010469    0.010605    0.010655    0.010803
 Highest eigenvalues
    2.277459    2.279003    2.595625    2.606274    2.640508    2.645707
 

........................................................................
.............................. CYCLE   43 ..............................
........................................................................
   1   -202.3505889 -0.202351E+03  0.119E-01    1.01       0.0  T
   2   -202.3506002 -0.112648E-04  0.677E-02    1.01       1.0  T
   3   -202.3505620  0.381542E-04  0.203E-02    1.01       1.0  T
   4   -202.3506064 -0.443828E-04  0.456E-03    1.01       2.2  T
   5   -202.3506069 -0.467574E-06  0.265E-03    1.01       3.7  T
   6   -202.3506075 -0.618946E-06  0.932E-04    1.01      10.6  T
   7   -202.3506076 -0.862452E-07  0.347E-04    1.01      28.4  T
     SCC iter.                  ...        0 min,  0.107 sec
     gradient                   ...        0 min,  0.135 sec
 * total energy  :  -199.4886794 Eh     change       -0.4514257E-03 Eh
   gradient norm :     0.0120975 Eh/α   predicted     0.0000000E+00 (-100.00%)
   displ. norm   :     0.1050974 α      lambda       -0.3594719E-03
   maximum displ.:     0.0404903 α      in ANC's #6, #3, #11, ...

........................................................................
.............................. CYCLE   44 ..............................
........................................................................
   1   -202.3613060 -0.202361E+03  0.291E-02    1.02       0.0  T
   2   -202.3613067 -0.663615E-06  0.172E-02    1.02       1.0  T
   3   -202.3612887  0.179485E-04  0.128E-02    1.02       1.0  T
   4   -202.3613089 -0.202292E-04  0.178E-03    1.02       5.5  T
   5   -202.3613092 -0.228794E-06  0.899E-04    1.02      11.0  T
   6   -202.3613092 -0.494169E-07  0.436E-04    1.02      22.6  T
     SCC iter.                  ...        0 min,  0.092 sec
     gradient                   ...        0 min,  0.135 sec
 * total energy  :  -199.4889200 Eh     change       -0.2406808E-03 Eh
   gradient norm :     0.0041388 Eh/α   predicted    -0.1817323E-03 ( -24.49%)
   displ. norm   :     0.2227029 α      lambda       -0.3739165E-03
   maximum displ.:     0.1029773 α      in ANC's #6, #3, #2, ...

........................................................................
.............................. CYCLE   45 ..............................
........................................................................
   1   -202.3699595 -0.202370E+03  0.103E-01    1.02       0.0  T
   2   -202.3699722 -0.127388E-04  0.576E-02    1.02       1.0  T
   3   -202.3699388  0.334179E-04  0.173E-02    1.02       1.0  T
   4   -202.3699793 -0.405639E-04  0.316E-03    1.02       3.1  T
   5   -202.3699796 -0.313679E-06  0.181E-03    1.02       5.5  T
   6   -202.3699798 -0.190424E-06  0.731E-04    1.02      13.5  T
   7   -202.3699799 -0.492207E-07  0.299E-04    1.02      33.0  T
     SCC iter.                  ...        0 min,  0.106 sec
     gradient                   ...        0 min,  0.135 sec
 * total energy  :  -199.4888983 Eh     change        0.2172392E-04 Eh
   gradient norm :     0.0105719 Eh/α   predicted    -0.1962310E-03 (*******%)
   displ. norm   :     0.1568086 α      lambda       -0.5205959E-03
   maximum displ.:     0.0580507 α      in ANC's #6, #11, #10, ...

........................................................................
.............................. CYCLE   46 ..............................
........................................................................
   1   -202.3691180 -0.202369E+03  0.776E-02    1.02       0.0  T
   2   -202.3691246 -0.661193E-05  0.431E-02    1.02       1.0  T
   3   -202.3691139  0.107598E-04  0.994E-03    1.02       1.0  T
   4   -202.3691280 -0.141450E-04  0.196E-03    1.02       5.0  T
   5   -202.3691280 -0.294972E-07  0.121E-03    1.02       8.2  T
   6   -202.3691282 -0.121176E-06  0.335E-04    1.02      29.4  T
   7   -202.3691282 -0.768432E-08  0.156E-04    1.02      63.3  T
     SCC iter.                  ...        0 min,  0.106 sec
     gradient                   ...        0 min,  0.135 sec
 * total energy  :  -199.4891765 Eh     change       -0.2781850E-03 Eh
   gradient norm :     0.0065867 Eh/α   predicted    -0.2666986E-03 (  -4.13%)
   displ. norm   :     0.1497287 α      lambda       -0.2450893E-03
   maximum displ.:     0.0710564 α      in ANC's #6, #3, #53, ...

........................................................................
.............................. CYCLE   47 ..............................
........................................................................
   1   -202.3637317 -0.202364E+03  0.684E-02    1.02       0.0  T
   2   -202.3637359 -0.419439E-05  0.382E-02    1.02       1.0  T
   3   -202.3637082  0.276464E-04  0.145E-02    1.02       1.0  T
   4   -202.3637396 -0.313620E-04  0.177E-03    1.02       5.6  T
   5   -202.3637397 -0.859322E-07  0.105E-03    1.02       9.4  T
   6   -202.3637397 -0.496828E-07  0.378E-04    1.02      26.0  T
   7   -202.3637397 -0.995510E-08  0.167E-04    1.02      59.1  T
     SCC iter.                  ...        0 min,  0.107 sec
     gradient                   ...        0 min,  0.135 sec
 * total energy  :  -199.4892730 Eh     change       -0.9652263E-04 Eh
   gradient norm :     0.0046801 Eh/α   predicted    -0.1252941E-03 (  29.81%)
   displ. norm   :     0.2206234 α      lambda       -0.2562047E-03
   maximum displ.:     0.1114168 α      in ANC's #6, #3, #2, ...

........................................................................
.............................. CYCLE   48 ..............................
........................................................................
   1   -202.3609811 -0.202361E+03  0.479E-02    1.02       0.0  T
   2   -202.3609834 -0.228841E-05  0.270E-02    1.02       1.0  T
   3   -202.3609758  0.758820E-05  0.782E-03    1.02       1.3  T
   4   -202.3609847 -0.886049E-05  0.172E-03    1.02       5.7  T
   5   -202.3609848 -0.129919E-06  0.102E-03    1.02       9.7  T
   6   -202.3609849 -0.551960E-07  0.355E-04    1.02      27.8  T
   7   -202.3609849 -0.855607E-08  0.148E-04    1.02      66.7  T
     SCC iter.                  ...        0 min,  0.107 sec
     gradient                   ...        0 min,  0.135 sec
 * total energy  :  -199.4894779 Eh     change       -0.2048234E-03 Eh
   gradient norm :     0.0030300 Eh/α   predicted    -0.1343483E-03 ( -34.41%)
   displ. norm   :     0.4240529 α      lambda       -0.3342548E-03
   maximum displ.:     0.2208275 α      in ANC's #6, #3, #11, ...

........................................................................
.............................. CYCLE   49 ..............................
........................................................................
   1   -202.3585565 -0.202359E+03  0.780E-02    1.02       0.0  T
   2   -202.3585614 -0.491554E-05  0.441E-02    1.02       1.0  T
   3   -202.3585503  0.111405E-04  0.996E-03    1.02       1.0  T
   4   -202.3585639 -0.136276E-04  0.258E-03    1.02       3.8  T
   5   -202.3585640 -0.109792E-06  0.156E-03    1.02       6.3  T
   6   -202.3585642 -0.187870E-06  0.535E-04    1.02      18.4  T
   7   -202.3585642 -0.235209E-07  0.233E-04    1.02      42.2  T
     SCC iter.                  ...        0 min,  0.107 sec
     gradient                   ...        0 min,  0.135 sec
 * total energy  :  -199.4896929 Eh     change       -0.2150181E-03 Eh
   gradient norm :     0.0051381 Eh/α   predicted    -0.1971827E-03 (  -8.29%)
   displ. norm   :     0.5564666 α      lambda       -0.4670420E-03
   maximum displ.:     0.2801918 α      in ANC's #6, #3, #2, ...

........................................................................
.............................. CYCLE   50 ..............................
........................................................................
   1   -202.3546356 -0.202355E+03  0.126E-01    1.02       0.0  T
   2   -202.3546530 -0.174982E-04  0.704E-02    1.02       1.0  T
   3   -202.3546463  0.678951E-05  0.107E-02    1.02       1.0  T
   4   -202.3546601 -0.138192E-04  0.372E-03    1.02       2.6  T
   5   -202.3546604 -0.315309E-06  0.187E-03    1.02       5.3  T
   6   -202.3546607 -0.322434E-06  0.609E-04    1.02      16.2  T
   7   -202.3546607 -0.285951E-07  0.305E-04    1.02      32.3  T
     SCC iter.                  ...        0 min,  0.107 sec
     gradient                   ...        0 min,  0.135 sec
 * total energy  :  -199.4898893 Eh     change       -0.1963888E-03 Eh
   gradient norm :     0.0110334 Eh/α   predicted    -0.3058340E-03 (  55.73%)
   displ. norm   :     0.3250762 α      lambda       -0.3411631E-03
   maximum displ.:     0.1756342 α      in ANC's #6, #3, #11, ...

........................................................................
.............................. CYCLE   51 ..............................
........................................................................
   1   -202.3573923 -0.202357E+03  0.428E-02    1.02       0.0  T
   2   -202.3573935 -0.124619E-05  0.246E-02    1.02       1.0  T
   3   -202.3573911  0.247355E-05  0.499E-03    1.02       2.0  T
   4   -202.3573940 -0.298735E-05  0.146E-03    1.02       6.8  T
   5   -202.3573941 -0.708781E-07  0.660E-04    1.02      14.9  T
   6   -202.3573941 -0.274561E-07  0.264E-04    1.02      37.3  T
     SCC iter.                  ...        0 min,  0.093 sec
     gradient                   ...        0 min,  0.135 sec
 * total energy  :  -199.4901699 Eh     change       -0.2806120E-03 Eh
   gradient norm :     0.0055494 Eh/α   predicted    -0.1886117E-03 ( -32.79%)
   displ. norm   :     0.5307418 α      lambda       -0.5128888E-03
   maximum displ.:     0.2857338 α      in ANC's #6, #3, #4, ...

........................................................................
.............................. CYCLE   52 ..............................
........................................................................
   1   -202.3614393 -0.202361E+03  0.794E-02    1.02       0.0  T
   2   -202.3614439 -0.451216E-05  0.455E-02    1.02       1.0  T
   3   -202.3614320  0.118272E-04  0.113E-02    1.02       1.0  T
   4   -202.3614461 -0.140495E-04  0.284E-03    1.02       3.5  T
   5   -202.3614462 -0.904619E-07  0.190E-03    1.02       5.2  T
   6   -202.3614465 -0.333614E-06  0.677E-04    1.02      14.6  T
   7   -202.3614465 -0.432587E-07  0.269E-04    1.02      36.7  T
     SCC iter.                  ...        0 min,  0.107 sec
     gradient                   ...        0 min,  0.135 sec
 * total energy  :  -199.4905478 Eh     change       -0.3779421E-03 Eh
   gradient norm :     0.0064699 Eh/α   predicted    -0.3286828E-03 ( -13.03%)
   displ. norm   :     0.6873340 α      lambda       -0.4816122E-03
   maximum displ.:     0.3654639 α      in ANC's #6, #3, #4, ...

........................................................................
.............................. CYCLE   53 ..............................
........................................................................
   1   -202.3628632 -0.202363E+03  0.100E-01    1.02       0.0  T
   2   -202.3628700 -0.685631E-05  0.576E-02    1.02       1.0  T
   3   -202.3628509  0.191162E-04  0.137E-02    1.02       1.0  T
   4   -202.3628736 -0.226384E-04  0.359E-03    1.02       2.7  T
   5   -202.3628738 -0.236856E-06  0.232E-03    1.02       4.2  T
   6   -202.3628742 -0.430503E-06  0.741E-04    1.02      13.3  T
   7   -202.3628743 -0.464507E-07  0.327E-04    1.02      30.2  T
     SCC iter.                  ...        0 min,  0.107 sec
     gradient                   ...        0 min,  0.135 sec
 * total energy  :  -199.4908905 Eh     change       -0.3427341E-03 Eh
   gradient norm :     0.0070873 Eh/α   predicted    -0.3545702E-03 (   3.45%)
   displ. norm   :     0.7056509 α      lambda       -0.4667692E-03
   maximum displ.:     0.3731402 α      in ANC's #6, #3, #4, ...

........................................................................
.............................. CYCLE   54 ..............................
........................................................................
   1   -202.3600246 -0.202360E+03  0.927E-02    1.02       0.0  T
   2   -202.3600295 -0.484484E-05  0.534E-02    1.02       1.0  T
   3   -202.3600184  0.110492E-04  0.108E-02    1.02       1.0  T
   4   -202.3600318 -0.134133E-04  0.312E-03    1.02       3.2  T
   5   -202.3600320 -0.218506E-06  0.169E-03    1.02       5.8  T
   6   -202.3600322 -0.187366E-06  0.578E-04    1.02      17.1  T
   7   -202.3600322 -0.203050E-07  0.303E-04    1.02      32.5  T
     SCC iter.                  ...        0 min,  0.107 sec
     gradient                   ...        0 min,  0.135 sec
 * total energy  :  -199.4912872 Eh     change       -0.3966713E-03 Eh
   gradient norm :     0.0068720 Eh/α   predicted    -0.3495979E-03 ( -11.87%)
   displ. norm   :     0.6514807 α      lambda       -0.4601699E-03
   maximum displ.:     0.3440104 α      in ANC's #6, #3, #4, ...

........................................................................
.............................. CYCLE   55 ..............................
........................................................................
   1   -202.3598068 -0.202360E+03  0.993E-02    1.01       0.0  T
   2   -202.3598139 -0.716458E-05  0.567E-02    1.01       1.0  T
   3   -202.3598014  0.124763E-04  0.115E-02    1.02       1.0  T
   4   -202.3598169 -0.154483E-04  0.347E-03    1.01       2.8  T
   5   -202.3598171 -0.221361E-06  0.216E-03    1.02       4.6  T
   6   -202.3598176 -0.482131E-06  0.681E-04    1.01      14.5  T
   7   -202.3598176 -0.364310E-07  0.327E-04    1.01      30.1  T
     SCC iter.                  ...        0 min,  0.107 sec
     gradient                   ...        0 min,  0.135 sec
 * total energy  :  -199.4916493 Eh     change       -0.3621260E-03 Eh
   gradient norm :     0.0048889 Eh/α   predicted    -0.3277393E-03 (  -9.50%)
   displ. norm   :     0.7555306 α      lambda       -0.3516920E-03
   maximum displ.:     0.4028992 α      in ANC's #6, #3, #4, ...

........................................................................
.............................. CYCLE   56 ..............................
........................................................................
   1   -202.3559112 -0.202356E+03  0.102E-01    1.01       0.0  T
   2   -202.3559172 -0.595718E-05  0.589E-02    1.01       1.0  T
   3   -202.3559103  0.689655E-05  0.951E-03    1.01       1.0  T
   4   -202.3559193 -0.902950E-05  0.364E-03    1.01       2.7  T
   5   -202.3559196 -0.304460E-06  0.210E-03    1.01       4.7  T
   6   -202.3559200 -0.416899E-06  0.575E-04    1.01      17.1  T
   7   -202.3559200 -0.218420E-07  0.312E-04    1.01      31.6  T
     SCC iter.                  ...        0 min,  0.106 sec
     gradient                   ...        0 min,  0.135 sec
 * total energy  :  -199.4919465 Eh     change       -0.2971135E-03 Eh
   gradient norm :     0.0071184 Eh/α   predicted    -0.2762248E-03 (  -7.03%)
   displ. norm   :     0.7159393 α      lambda       -0.3605936E-03
   maximum displ.:     0.3766738 α      in ANC's #6, #3, #4, ...

........................................................................
.............................. CYCLE   57 ..............................
........................................................................
   1   -202.3602342 -0.202360E+03  0.102E-01    1.01       0.0  T
   2   -202.3602408 -0.657409E-05  0.587E-02    1.02       1.0  T
   3   -202.3602314  0.943061E-05  0.106E-02    1.01       1.0  T
   4   -202.3602434 -0.120795E-04  0.355E-03    1.02       2.8  T
   5   -202.3602436 -0.202109E-06  0.220E-03    1.01       4.5  T
   6   -202.3602441 -0.444234E-06  0.568E-04    1.01      17.4  T
   7   -202.3602441 -0.217782E-07  0.304E-04    1.01      32.4  T
     SCC iter.                  ...        0 min,  0.106 sec
     gradient                   ...        0 min,  0.134 sec
 * total energy  :  -199.4922426 Eh     change       -0.2961701E-03 Eh
   gradient norm :     0.0048312 Eh/α   predicted    -0.2727125E-03 (  -7.92%)
   displ. norm   :     0.7376712 α      lambda       -0.3234356E-03
   maximum displ.:     0.3966040 α      in ANC's #3, #6, #4, ...

........................................................................
.............................. CYCLE   58 ..............................
........................................................................
   1   -202.3598579 -0.202360E+03  0.115E-01    1.02       0.0  T
   2   -202.3598669 -0.900101E-05  0.653E-02    1.02       1.0  T
   3   -202.3598561  0.107401E-04  0.113E-02    1.01       1.0  T
   4   -202.3598704 -0.142174E-04  0.401E-03    1.02       2.5  T
   5   -202.3598707 -0.348812E-06  0.234E-03    1.02       4.2  T
   6   -202.3598712 -0.528344E-06  0.583E-04    1.02      16.9  T
   7   -202.3598713 -0.230493E-07  0.276E-04    1.02      35.7  T
     SCC iter.                  ...        0 min,  0.107 sec
     gradient                   ...        0 min,  0.135 sec
 * total energy  :  -199.4925197 Eh     change       -0.2770392E-03 Eh
   gradient norm :     0.0062295 Eh/α   predicted    -0.2497208E-03 (  -9.86%)
   displ. norm   :     0.6921822 α      lambda       -0.3563021E-03
   maximum displ.:     0.3764816 α      in ANC's #3, #6, #4, ...

........................................................................
.............................. CYCLE   59 ..............................
........................................................................
   1   -202.3676999 -0.202368E+03  0.995E-02    1.02       0.0  T
   2   -202.3677061 -0.623298E-05  0.571E-02    1.02       1.0  T
   3   -202.3676714  0.347068E-04  0.189E-02    1.02       1.0  T
   4   -202.3677110 -0.395664E-04  0.331E-03    1.02       3.0  T
[...]
    52   6 C        2.914    -0.049    29.223     8.864
    53   6 C        2.782     0.163    24.462     8.101
    54   6 C        2.783     0.161    24.506     8.108
    55   6 C        2.912    -0.037    28.921     8.818
    56   9 F        0.787    -0.186    11.088     3.933
    57   9 F        0.787    -0.184    11.067     3.930
    58   8 O        0.956    -0.349    20.642     6.094
    59   6 C        2.947     0.008    27.836     8.653
    60   6 C        1.944     0.123    28.056     8.554
    61   6 C        1.945     0.122    28.079     8.557
    62   6 C        3.806    -0.051    21.491     6.600
    63   6 C        3.806    -0.051    21.484     6.599
    64   6 C        3.751    -0.106    22.588     6.778
    65   6 C        3.751    -0.106    22.589     6.778
    66   7 N        0.911    -0.234    26.126     7.393
    67   7 N        0.911    -0.225    25.910     7.362
    68   6 C        2.966     0.136    25.033     8.207
    69   6 C        3.017    -0.004    28.110     8.697
    70  16 S        2.408     0.009   140.679    19.963
    71   9 F        0.786    -0.189    11.119     3.939
    72   6 C        2.967     0.134    25.067     8.212
    73   9 F        0.785    -0.196    11.194     3.952
    74   1 H        0.926     0.091     1.871     2.139
    75   1 H        0.926     0.093     1.848     2.126
    76   1 H        0.925     0.070     2.089     2.260
    77   1 H        0.926     0.102     1.769     2.080
    78   1 H        0.926     0.058     2.219     2.330
    79   1 H        0.924     0.035     2.521     2.483
    80   1 H        0.924     0.046     2.374     2.409
    81   1 H        0.924     0.035     2.514     2.479
    82   1 H        0.924     0.052     2.289     2.366
    83   1 H        0.925     0.045     2.388     2.417
    84   1 H        0.925     0.043     2.411     2.428
    85   1 H        0.925     0.039     2.456     2.451
    86   1 H        0.925     0.042     2.422     2.434
    87   1 H        0.925     0.052     2.300     2.372
    88   1 H        0.925     0.045     2.384     2.415
    89   1 H        0.926     0.070     2.088     2.260
    90   1 H        0.926     0.059     2.210     2.325
    91   1 H        0.925     0.071     2.078     2.254
    92   1 H        0.926     0.091     1.867     2.137
    93   1 H        0.926     0.094     1.842     2.122
    94   1 H        0.924     0.035     2.513     2.479
    95   1 H        0.924     0.049     2.334     2.389
    96   1 H        0.924     0.035     2.513     2.479
    97   1 H        0.924     0.049     2.337     2.391
    98   1 H        0.925     0.041     2.430     2.438
    99   1 H        0.925     0.042     2.416     2.431
   100   1 H        0.925     0.045     2.385     2.415
   101   1 H        0.925     0.041     2.433     2.439
   102   1 H        0.925     0.043     2.409     2.427
   103   1 H        0.925     0.045     2.386     2.416

 Mol. C6AA /au·bohr⁶  :     193596.728906
 Mol. C8AA /au·bohr⁸  :    5430163.141090
 Mol. α(0) /au        :        696.040593


Wiberg/Mayer (AO) data.
largest (>0.10) Wiberg bond orders for each atom

 ---------------------------------------------------------------------------
     #   Z sym  total        # sym  WBO       # sym  WBO       # sym  WBO
 ---------------------------------------------------------------------------
     1   6 C    3.972 --     6 C    1.400     2 C    1.390    74 H    0.954
     2   6 C    3.888 --     1 C    1.390     3 C    1.331    28 F    0.991
     3   6 C    3.881 --     4 C    1.386     2 C    1.331    29 F    0.988
     4   6 C    3.977 --     5 C    1.417     3 C    1.386    75 H    0.959
     5   6 C    3.976 --     4 C    1.417     6 C    1.302     7 C    1.015
     6   6 C    3.981 --     1 C    1.400     5 C    1.302     9 C    1.080
     7   6 C    3.922 --    27 O    1.743     8 C    1.053     5 C    1.015
     8   6 C    3.947 --    10 C    1.486     9 C    1.143     7 C    1.053
     9   6 C    3.973 --    30 C    1.490     8 C    1.143     6 C    1.080
    10   6 C    3.948 --     8 C    1.486    11 C    1.307    76 H    0.942
    11   6 C    3.911 --    12 C    1.358    10 C    1.307    15 S    1.080
    12   6 C    3.956 --    13 C    1.432    11 C    1.358    77 H    0.935
    13   6 C    3.954 --    12 C    1.432    14 C    1.305    16 C    0.986
    14   6 C    3.930 --    13 C    1.305    18 C    1.222    15 S    1.204
    15  16 S    2.611 --    14 C    1.204    11 C    1.080
    16   6 C    3.987 --    17 C    0.987    13 C    0.986    24 C    0.956
                            23 C    0.952
    17   6 C    3.945 --    19 C    1.383    18 C    1.344    16 C    0.987
    18   6 C    3.927 --    17 C    1.344    14 C    1.222    21 S    1.160
    19   6 C    3.966 --    20 C    1.412    17 C    1.383    78 H    0.955
    20   6 C    3.916 --    19 C    1.412    22 C    1.200    21 S    1.133
    21  16 S    2.611 --    18 C    1.160    20 C    1.133
    22   6 C    3.922 --    68 C    1.394    20 C    1.200    70 S    1.117
    23   6 C    3.992 --    26 C    1.019    79 H    0.977    80 H    0.972
                            16 C    0.952
    24   6 C    3.992 --    25 C    1.019    81 H    0.977    82 H    0.971
                            16 C    0.956
    25   6 C    3.993 --    24 C    1.019    83 H    0.984    84 H    0.984
                            85 H    0.984
    26   6 C    3.992 --    23 C    1.019    88 H    0.984    86 H    0.984
                            87 H    0.983
    27   8 O    2.045 --     7 C    1.743
    28   9 F    1.131 --     2 C    0.991
    29   9 F    1.126 --     3 C    0.988
    30   6 C    3.943 --     9 C    1.490    31 C    1.095    32 C    1.094
    31   6 C    3.946 --    34 N    2.757    30 C    1.095
    32   6 C    3.946 --    33 N    2.768    30 C    1.094
    33   7 N    2.971 --    32 C    2.768
    34   7 N    2.966 --    31 C    2.757
    35   6 C    3.914 --    39 C    1.415    69 C    1.198    36 S    1.129
    36  16 S    2.597 --    37 C    1.153    35 C    1.129
    37   6 C    3.925 --    38 C    1.350    40 C    1.222    36 S    1.153
    38   6 C    3.944 --    39 C    1.376    37 C    1.350    42 C    0.986
    39   6 C    3.965 --    35 C    1.415    38 C    1.376    89 H    0.956
    40   6 C    3.940 --    41 C    1.286    37 C    1.222    43 S    1.219
    41   6 C    3.952 --    45 C    1.463    40 C    1.286    42 C    0.985
    42   6 C    3.986 --    38 C    0.986    41 C    0.985    62 C    0.956
                            63 C    0.955
    43  16 S    2.784 --    40 C    1.219    44 C    1.105    58 O    0.130
    44   6 C    3.928 --    46 C    1.330    45 C    1.319    43 S    1.105
    45   6 C    3.965 --    41 C    1.463    44 C    1.319    90 H    0.958
    46   6 C    3.947 --    47 C    1.467    44 C    1.330    91 H    0.938
    47   6 C    3.949 --    46 C    1.467    48 C    1.148    51 C    1.074
    48   6 C    3.971 --    59 C    1.486    47 C    1.148    49 C    1.078
    49   6 C    3.981 --    52 C    1.403    50 C    1.300    48 C    1.078
    50   6 C    3.975 --    55 C    1.419    49 C    1.300    51 C    1.017
    51   6 C    3.921 --    58 O    1.712    47 C    1.074    50 C    1.017
    52   6 C    3.971 --    49 C    1.403    53 C    1.388    92 H    0.954
    53   6 C    3.888 --    52 C    1.388    54 C    1.332    57 F    0.992
    54   6 C    3.882 --    55 C    1.384    53 C    1.332    56 F    0.989
    55   6 C    3.976 --    50 C    1.419    54 C    1.384    93 H    0.959
    56   9 F    1.127 --    54 C    0.989
    57   9 F    1.132 --    53 C    0.992
    58   8 O    2.119 --    51 C    1.712    43 S    0.130
    59   6 C    3.941 --    48 C    1.486    60 C    1.098    61 C    1.094
    60   6 C    3.946 --    66 N    2.755    59 C    1.098
    61   6 C    3.946 --    67 N    2.768    59 C    1.094
    62   6 C    3.993 --    65 C    1.019    94 H    0.977    95 H    0.971
                            42 C    0.956
    63   6 C    3.993 --    64 C    1.019    96 H    0.977    97 H    0.971
                            42 C    0.955
    64   6 C    3.993 --    63 C    1.019   100 H    0.984    99 H    0.984
                            98 H    0.984
    65   6 C    3.993 --    62 C    1.019   103 H    0.984   102 H    0.984
                           101 H    0.984
    66   7 N    2.965 --    60 C    2.755
    67   7 N    2.970 --    61 C    2.768
    68   6 C    3.861 --    22 C    1.394    72 C    1.281    71 F    0.977
    69   6 C    3.923 --    72 C    1.391    35 C    1.198    70 S    1.124
    70  16 S    2.554 --    69 C    1.124    22 C    1.117
    71   9 F    1.130 --    68 C    0.977
    72   6 C    3.859 --    69 C    1.391    68 C    1.281    73 F    0.974
    73   9 F    1.116 --    72 C    0.974
    74   1 H    0.991 --     1 C    0.954
    75   1 H    0.991 --     4 C    0.959
    76   1 H    0.994 --    10 C    0.942
    77   1 H    0.989 --    12 C    0.935
    78   1 H    0.996 --    19 C    0.955
    79   1 H    0.999 --    23 C    0.977
    80   1 H    0.997 --    23 C    0.972
    81   1 H    0.999 --    24 C    0.977
    82   1 H    0.996 --    24 C    0.971
    83   1 H    0.998 --    25 C    0.984
    84   1 H    0.997 --    25 C    0.984
    85   1 H    0.998 --    25 C    0.984
    86   1 H    0.997 --    26 C    0.984
    87   1 H    0.997 --    26 C    0.983
    88   1 H    0.998 --    26 C    0.984
    89   1 H    0.995 --    39 C    0.956
    90   1 H    0.996 --    45 C    0.958
    91   1 H    0.994 --    46 C    0.938
    92   1 H    0.991 --    52 C    0.954
    93   1 H    0.991 --    55 C    0.959
    94   1 H    0.999 --    62 C    0.977
    95   1 H    0.996 --    62 C    0.971
    96   1 H    0.999 --    63 C    0.977
    97   1 H    0.996 --    63 C    0.971
    98   1 H    0.998 --    64 C    0.984
    99   1 H    0.997 --    64 C    0.984
   100   1 H    0.998 --    64 C    0.984
   101   1 H    0.998 --    65 C    0.984
   102   1 H    0.997 --    65 C    0.984
   103   1 H    0.998 --    65 C    0.984
 ---------------------------------------------------------------------------

Topologies differ in bond orders
Writing corrected topology to xtbtopo.mol

molecular dipole:
                 x           y           z       tot (Debye)
 q only:       -0.910       1.291       1.390
   full:       -0.506       1.426       1.361       5.173
molecular quadrupole (traceless):
                xx          xy          yy          xz          yz          zz
 q only:       85.081      11.386     116.452     -31.783      44.009    -201.533
  q+dip:       91.355       9.837     124.715     -39.789      39.675    -216.070
   full:       85.579      12.035     138.236     -38.852      41.436    -223.816

           -------------------------------------------------
          |                Geometry Summary                 |
           -------------------------------------------------

      molecular mass/u    :     1065.1794116
   center of mass at/Å    :        0.0567438      -0.2525690      -0.3744080
  moments of inertia/u·Å² :        0.1065627E+05   0.9188838E+05   0.1009222E+06
rotational constants/cm⁻¹ :        0.1581945E-02   0.1834577E-03   0.1670359E-03

 * 94 selected distances

     #   Z          #   Z                                           value/Å
     1   6 C        2   6 C                                       1.3870177
     2   6 C        3   6 C                                       1.3951026
     3   6 C        4   6 C                                       1.3852401
     4   6 C        5   6 C                                       1.3807967
     1   6 C        6   6 C                                       1.3862614
     5   6 C        6   6 C                                       1.4031780
     8   6 C       10   6 C                                       1.3757252
    10   6 C       11   6 C                                       1.4005205
    11   6 C       12   6 C                                       1.3965193
    12   6 C       13   6 C                                       1.3782512
    13   6 C       14   6 C                                       1.4062838
    14   6 C       15  16 S                                       1.7042575
    14   6 C       18   6 C                                       1.4086210
    17   6 C       18   6 C                                       1.3992674
    17   6 C       19   6 C                                       1.3866522
    19   6 C       20   6 C                                       1.3882691
    18   6 C       21  16 S                                       1.7156332
    20   6 C       21  16 S                                       1.7477986
    20   6 C       22   6 C                                       1.4174569
    16   6 C       24   6 C                                       1.5410825
    24   6 C       25   6 C                                       1.5226077
    23   6 C       26   6 C                                       1.5226996
     7   6 C       27   8 O                                       1.2145023
     2   6 C       28   9 F                                       1.3377388
     3   6 C       29   9 F                                       1.3387714
     9   6 C       30   6 C                                       1.3708001
    32   6 C       33   7 N                                       1.1476922
    31   6 C       34   7 N                                       1.1485752
    35   6 C       36  16 S                                       1.7498507
    36  16 S       37   6 C                                       1.7155084
    37   6 C       38   6 C                                       1.3976511
    35   6 C       39   6 C                                       1.3883485
    38   6 C       39   6 C                                       1.3881821
    37   6 C       40   6 C                                       1.4086408
    40   6 C       41   6 C                                       1.4088393
    40   6 C       43  16 S                                       1.7076376
    43  16 S       44   6 C                                       1.7592119 (max)
    41   6 C       45   6 C                                       1.3732306
    44   6 C       45   6 C                                       1.4074968
    44   6 C       46   6 C                                       1.3970294
    46   6 C       47   6 C                                       1.3764127
    49   6 C       50   6 C                                       1.4048234
    49   6 C       52   6 C                                       1.3858683
    52   6 C       53   6 C                                       1.3875379
    53   6 C       54   6 C                                       1.3948387
    50   6 C       55   6 C                                       1.3803132
    54   6 C       55   6 C                                       1.3857096
    54   6 C       56   9 F                                       1.3384488
    53   6 C       57   9 F                                       1.3375927
    51   6 C       58   8 O                                       1.2178329
    48   6 C       59   6 C                                       1.3711297
    42   6 C       62   6 C                                       1.5417047
    63   6 C       64   6 C                                       1.5225629
    62   6 C       65   6 C                                       1.5224972
    60   6 C       66   7 N                                       1.1487189
    61   6 C       67   7 N                                       1.1477289
    22   6 C       68   6 C                                       1.3819734
    35   6 C       69   6 C                                       1.4191716
    22   6 C       70  16 S                                       1.7409707
    69   6 C       70  16 S                                       1.7399772
    68   6 C       71   9 F                                       1.3376014
    68   6 C       72   6 C                                       1.4006860
    69   6 C       72   6 C                                       1.3832142
    72   6 C       73   9 F                                       1.3388026
     1   6 C       74   1 H                                       1.0773830
     4   6 C       75   1 H                                       1.0783158
    10   6 C       76   1 H                                       1.0837125
    12   6 C       77   1 H                                       1.0735565 (min)
    19   6 C       78   1 H                                       1.0749724
    23   6 C       79   1 H                                       1.0931667
    23   6 C       80   1 H                                       1.0910876
    24   6 C       81   1 H                                       1.0930785
    24   6 C       82   1 H                                       1.0904779
    25   6 C       83   1 H                                       1.0862334
    25   6 C       84   1 H                                       1.0875735
    25   6 C       85   1 H                                       1.0862035
    26   6 C       86   1 H                                       1.0877068
    26   6 C       87   1 H                                       1.0859229
    26   6 C       88   1 H                                       1.0861990
    39   6 C       89   1 H                                       1.0737031
    45   6 C       90   1 H                                       1.0754404
    46   6 C       91   1 H                                       1.0831998
    52   6 C       92   1 H                                       1.0774424
    55   6 C       93   1 H                                       1.0782897
    62   6 C       94   1 H                                       1.0930781
    62   6 C       95   1 H                                       1.0907907
    63   6 C       96   1 H                                       1.0931046
    63   6 C       97   1 H                                       1.0906713
    64   6 C       98   1 H                                       1.0862097
    64   6 C       99   1 H                                       1.0876058
    64   6 C      100   1 H                                       1.0862664
    65   6 C      101   1 H                                       1.0860136
    65   6 C      102   1 H                                       1.0875879
    65   6 C      103   1 H                                       1.0862430

 * 6 distinct bonds (by element types)

   Z      Z             #   av. dist./Å        max./Å        min./Å
   1 H    6 C          30     1.0850412     1.0931667     1.0735565
   6 C    6 C          43     1.4111678     1.5417047     1.3708001
   6 C    7 N           4     1.1481788     1.1487189     1.1476922
   6 C    8 O           2     1.2161676     1.2178329     1.2145023
   6 C    9 F           6     1.3381593     1.3388026     1.3375927
   6 C   16 S           9     1.7312051     1.7592119     1.7042575


optimized geometry written to: xtbopt.mol


           -------------------------------------------------
          | TOTAL ENERGY             -199.496089164099 Eh   |
          | GRADIENT NORM               0.000538318490 Eh/α |
          | HOMO-LUMO GAP               1.002041015625 eV   |
           -------------------------------------------------

------------------------------------------------------------------------
 * finished run on 2021/12/20 at 14:00:58.168     
------------------------------------------------------------------------
 total:
 * wall-time:     0 d,  0 h,  0 min, 36.020 sec
 *  cpu-time:     0 d,  0 h,  0 min, 36.020 sec
 * ratio c/w:     1.000 speedup
 SCF:
 * wall-time:     0 d,  0 h,  0 min,  0.384 sec
 *  cpu-time:     0 d,  0 h,  0 min,  0.384 sec
 * ratio c/w:     1.000 speedup
 ANC optimizer:
 * wall-time:     0 d,  0 h,  0 min, 35.588 sec
 *  cpu-time:     0 d,  0 h,  0 min, 35.587 sec
 * ratio c/w:     1.000 speedup

