      -----------------------------------------------------------      
     |                   =====================                   |     
     |                           x T B                           |     
     |                   =====================                   |     
     |                         S. Grimme                         |     
     |          Mulliken Center for Theoretical Chemistry        |     
     |                    University of Bonn                     |     
      -----------------------------------------------------------      

   * xtb version 6.4.1 (unknown) compiled by 'oda6@login1.crc.pitt.edu' on 2021-06-25

   xtb is free software: you can redistribute it and/or modify it under
   the terms of the GNU Lesser General Public License as published by
   the Free Software Foundation, either version 3 of the License, or
   (at your option) any later version.
   
   xtb is distributed in the hope that it will be useful,
   but WITHOUT ANY WARRANTY; without even the implied warranty of
   MERCHANTABILITY or FITNESS FOR A PARTICULAR PURPOSE.  See the
   GNU Lesser General Public License for more details.
   
   Cite this work as:
   * C. Bannwarth, E. Caldeweyher, S. Ehlert, A. Hansen, P. Pracht,
     J. Seibert, S. Spicher, S. Grimme, WIREs Comput. Mol. Sci., 2020, 11,
     e01493. DOI: 10.1002/wcms.1493
   
   for GFN2-xTB:
   * C. Bannwarth, S. Ehlert and S. Grimme., J. Chem. Theory Comput., 2019,
     15, 1652-1671. DOI: 10.1021/acs.jctc.8b01176
   for GFN1-xTB:
   * S. Grimme, C. Bannwarth, P. Shushkov, J. Chem. Theory Comput., 2017,
     13, 1989-2009. DOI: 10.1021/acs.jctc.7b00118
   for GFN0-xTB:
   * P. Pracht, E. Caldeweyher, S. Ehlert, S. Grimme, ChemRxiv, 2019, preprint.
     DOI: 10.26434/chemrxiv.8326202.v1
   for GFN-FF:
   * S. Spicher and S. Grimme, Angew. Chem. Int. Ed., 2020, 59, 15665-15673.
     DOI: 10.1002/anie.202004239
   
   for DFT-D4:
   * E. Caldeweyher, C. Bannwarth and S. Grimme, J. Chem. Phys., 2017,
     147, 034112. DOI: 10.1063/1.4993215
   * E. Caldeweyher, S. Ehlert, A. Hansen, H. Neugebauer, S. Spicher,
     C. Bannwarth and S. Grimme, J. Chem. Phys., 2019, 150, 154122.
     DOI: 10.1063/1.5090222
   * E. Caldeweyher, J.-M. Mewes, S. Ehlert and S. Grimme, Phys. Chem. Chem. Phys.
     2020, 22, 8499-8512. DOI: 10.1039/D0CP00502A
   
   for sTDA-xTB:
   * S. Grimme and C. Bannwarth, J. Chem. Phys., 2016, 145, 054103.
     DOI: 10.1063/1.4959605
   
   in the mass-spec context:
   * V. Asgeirsson, C. Bauer and S. Grimme, Chem. Sci., 2017, 8, 4879.
     DOI: 10.1039/c7sc00601b
   * J. Koopman and S. Grimme, ACS Omega 2019, 4, 12, 15120-15133.
     DOI: 10.1021/acsomega.9b02011
   
   for metadynamics refer to:
   * S. Grimme, J. Chem. Theory Comput., 2019, 155, 2847-2862
     DOI: 10.1021/acs.jctc.9b00143
   
   for SPH calculations refer to:
   * S. Spicher and S. Grimme, J. Chem. Theory Comput., 2021, 17, 1701-1714
     DOI: 10.1021/acs.jctc.0c01306
   
   with help from (in alphabetical order)
   P. Atkinson, C. Bannwarth, F. Bohle, G. Brandenburg, E. Caldeweyher
   M. Checinski, S. Dohm, S. Ehlert, S. Ehrlich, I. Gerasimov, J. Koopman
   C. Lavigne, S. Lehtola, F. März, M. Müller, F. Musil, H. Neugebauer
   J. Pisarek, C. Plett, P. Pracht, J. Seibert, P. Shushkov, S. Spicher
   M. Stahn, M. Steiner, T. Strunk, J. Stückrath, T. Rose, and J. Unsleber
   
 * started run on 2021/12/20 at 13:53:27.603     

           -------------------------------------------------
          |                Calculation Setup                |
           -------------------------------------------------

          program call               : /ihome/ghutchison/oda6/xtb/xtb-641/bin//xtb ITCC-Cl.mol -opt
          hostname                   : smp-n138
          coordinate file            : ITCC-Cl.mol
          omp threads                :                     1
          number of atoms            :                   132
          number of electrons        :                   422
          charge                     :                     0
          spin                       :                   0.0
          first test random number   :      0.44292002294594

   ID    Z sym.   atoms
    1    6 C      1, 3-7, 9, 11-16, 18-38, 40-62, 64, 65, 67-73, 75, 77-79,
                  82, 83, 85, 86
    2    8 O      2, 80
    3    7 N      8, 10, 74, 76
    4   16 S      17, 39, 63, 66, 81, 84
    5   17 Cl     87, 88
    6    1 H      89-132
########################################################################
[WARNING] Please study the warnings concerning your input carefully
-1- prog_main_parseArguments: the use of '-opt' is discouraged, please use '--opt' next time
########################################################################

           -------------------------------------------------
          |                 G F N 2 - x T B                 |
           -------------------------------------------------

        Reference                      10.1021/acs.jctc.8b01176
      * Hamiltonian:
        H0-scaling (s, p, d)           1.850000    2.230000    2.230000
        zeta-weighting                 0.500000
      * Dispersion:
        s8                             2.700000
        a1                             0.520000
        a2                             5.000000
        s9                             5.000000
      * Repulsion:
        kExp                           1.500000    1.000000
        rExp                           1.000000
      * Coulomb:
        alpha                          2.000000
        third order                    shell-resolved
        anisotropic                    true
        a3                             3.000000
        a5                             4.000000
        cn-shift                       1.200000
        cn-exp                         4.000000
        max-rad                        5.000000


          ...................................................
          :                      SETUP                      :
          :.................................................:
          :  # basis functions                 444          :
          :  # atomic orbitals                 436          :
          :  # shells                          228          :
          :  # electrons                       422          :
          :  max. iterations                   250          :
          :  Hamiltonian                  GFN2-xTB          :
          :  restarted?                      false          :
          :  GBSA solvation                  false          :
          :  PC potential                    false          :
          :  electronic temp.          300.0000000     K    :
          :  accuracy                    1.0000000          :
          :  -> integral cutoff          0.2500000E+02      :
          :  -> integral neglect         0.1000000E-07      :
          :  -> SCF convergence          0.1000000E-05 Eh   :
          :  -> wf. convergence          0.1000000E-03 e    :
          :  Broyden damping             0.4000000          :
          ...................................................

 iter      E             dE          RMSdq      gap      omega  full diag
   1   -232.3339972 -0.232334E+03  0.487E+00    1.50       0.0  T
   2   -232.4116450 -0.776478E-01  0.304E+00    1.09       1.0  T
   3   -232.1122747  0.299370E+00  0.220E+00    0.77       1.0  T
   4   -232.5763294 -0.464055E+00  0.578E-01    0.85       1.0  T
   5   -232.6025089 -0.261795E-01  0.214E-01    0.64       1.0  T
   6   -232.6048763 -0.236743E-02  0.123E-01    0.77       1.0  T
   7   -232.6059261 -0.104975E-02  0.654E-02    0.74       1.0  T
   8   -232.6060764 -0.150375E-03  0.482E-02    0.75       1.0  T
   9   -232.6061440 -0.675322E-04  0.387E-02    0.75       1.0  T
  10   -232.6062349 -0.909630E-04  0.259E-02    0.75       1.0  T
  11   -232.6062658 -0.308608E-04  0.151E-02    0.75       1.0  T
  12   -232.6062843 -0.184600E-04  0.683E-03    0.75       1.3  T
  13   -232.6062873 -0.299243E-05  0.349E-03    0.75       2.5  T
  14   -232.6062879 -0.661393E-06  0.165E-03    0.75       5.3  T
  15   -232.6062881 -0.134928E-06  0.910E-04    0.75       9.6  T
  16   -232.6062881 -0.334254E-07  0.556E-04    0.75      15.7  T

   *** convergence criteria satisfied after 16 iterations ***

         #    Occupation            Energy/Eh            Energy/eV
      -------------------------------------------------------------
         1        2.0000           -1.0904605             -29.6729
       ...           ...                  ...                  ...
       205        2.0000           -0.3958330             -10.7712
       206        2.0000           -0.3934815             -10.7072
       207        2.0000           -0.3924883             -10.6802
       208        2.0000           -0.3893473             -10.5947
       209        2.0000           -0.3881916             -10.5632
       210        2.0000           -0.3836309             -10.4391
       211        2.0000           -0.3709902             -10.0952 (HOMO)
       212        0.0000           -0.3434089              -9.3446 (LUMO)
       213                         -0.3335754              -9.0770
       214                         -0.3326241              -9.0512
       215                         -0.3246682              -8.8347
       216                         -0.2883574              -7.8466
       ...                                ...                  ...
       436                          1.0743139              29.2336
      -------------------------------------------------------------
                  HL-Gap            0.0275813 Eh            0.7505 eV
             Fermi-level           -0.3571996 Eh           -9.7199 eV

 SCC (total)                   0 d,  0 h,  0 min,  0.966 sec
 SCC setup                      ...        0 min,  0.002 sec (  0.226%)
 Dispersion                     ...        0 min,  0.007 sec (  0.740%)
 classical contributions        ...        0 min,  0.001 sec (  0.070%)
 integral evaluation            ...        0 min,  0.077 sec (  7.922%)
 iterations                     ...        0 min,  0.584 sec ( 60.470%)
 molecular gradient             ...        0 min,  0.292 sec ( 30.199%)
 printout                       ...        0 min,  0.004 sec (  0.368%)

         :::::::::::::::::::::::::::::::::::::::::::::::::::::
         ::                     SUMMARY                     ::
         :::::::::::::::::::::::::::::::::::::::::::::::::::::
         :: total energy            -229.025692703586 Eh    ::
         :: gradient norm              0.274442766910 Eh/a0 ::
         :: HOMO-LUMO gap              0.750524518416 eV    ::
         ::.................................................::
         :: SCC energy              -232.606288086385 Eh    ::
         :: -> isotropic ES            0.101431526272 Eh    ::
         :: -> anisotropic ES          0.018425410308 Eh    ::
         :: -> anisotropic XC          0.152001611503 Eh    ::
         :: -> dispersion             -0.214619758725 Eh    ::
         :: repulsion energy           3.577049449844 Eh    ::
         :: add. restraining           0.000000000000 Eh    ::
         :: total charge              -0.000000000042 e     ::
         :::::::::::::::::::::::::::::::::::::::::::::::::::::

      ----------------------------------------------------------- 
     |                   =====================                   |
     |                        A N C O P T                        |
     |                   =====================                   |
     |               Approximate Normal Coordinate               |
     |                Rational Function Optimizer                |
      ----------------------------------------------------------- 

          ...................................................
          :                      SETUP                      :
          :.................................................:
          :   optimization level            normal          :
          :   max. optcycles                   396          :
          :   ANC micro-cycles                  20          :
          :   degrees of freedom               390          :
          :.................................................:
          :   RF solver                   davidson          :
          :   write xtbopt.log                true          :
          :   linear?                        false          :
          :   energy convergence         0.5000000E-05 Eh   :
          :   grad. convergence          0.1000000E-02 Eh/α :
          :   maximium RF displ.         1.0000000          :
          :   Hlow (freq-cutoff)         0.1000000E-01      :
          :   Hmax (freq-cutoff)         5.0000000          :
          :   S6 in model hess.         20.0000000          :
          ...................................................

generating ANC from model Hessian ...
Using Lindh-Hessian (1995)
 Shifting diagonal of input Hessian by   9.990428261162898E-003
 Lowest  eigenvalues of input Hessian
    0.000000    0.000000    0.000000    0.000000    0.000000    0.000000
    0.010000    0.010006    0.010023    0.010044    0.010057    0.010066
    0.010080    0.010101    0.010140    0.010173    0.010215    0.010302
 Highest eigenvalues
    2.137523    2.167521    2.496279    2.499177    2.552293    2.555978
 

........................................................................
.............................. CYCLE    1 ..............................
........................................................................
   1   -232.6062881 -0.232606E+03  0.323E-04    0.75       0.0  T
   2   -232.6062881 -0.294222E-09  0.279E-04    0.75      31.2  T
   3   -232.6062881 -0.504741E-08  0.200E-04    0.75      43.4  T
     SCC iter.                  ...        0 min,  0.126 sec
     gradient                   ...        0 min,  0.290 sec
 * total energy  :  -229.0256927 Eh     change       -0.1682815E-07 Eh
   gradient norm :     0.2744424 Eh/α   predicted     0.0000000E+00 (-100.00%)
   displ. norm   :     0.4708668 α      lambda       -0.8679569E-01
   maximum displ.:     0.0938421 α      in ANC's #197, #156, #215, ...

........................................................................
.............................. CYCLE    2 ..............................
........................................................................
   1   -232.7587921 -0.232759E+03  0.284E-01    0.75       0.0  T
   2   -232.7598722 -0.108012E-02  0.173E-01    0.80       1.0  T
   3   -232.7596766  0.195598E-03  0.958E-02    0.75       1.0  T
   4   -232.7602092 -0.532607E-03  0.352E-02    0.78       1.0  T
   5   -232.7602992 -0.900444E-04  0.202E-02    0.78       1.0  T
   6   -232.7603327 -0.334743E-04  0.114E-02    0.78       1.0  T
   7   -232.7603378 -0.506319E-05  0.842E-03    0.78       1.0  T
   8   -232.7603406 -0.285242E-05  0.630E-03    0.78       1.4  T
   9   -232.7603421 -0.142745E-05  0.427E-03    0.78       2.0  T
  10   -232.7603437 -0.159229E-05  0.210E-03    0.78       4.1  T
  11   -232.7603440 -0.318973E-06  0.111E-03    0.78       7.9  T
  12   -232.7603440 -0.525567E-07  0.520E-04    0.78      16.7  T
  13   -232.7603440 -0.132549E-07  0.248E-04    0.78      35.1  T
     SCC iter.                  ...        0 min,  0.508 sec
     gradient                   ...        0 min,  0.289 sec
 * total energy  :  -229.0875872 Eh     change       -0.6189450E-01 Eh
   gradient norm :     0.1217125 Eh/α   predicted    -0.5307284E-01 ( -14.25%)
   displ. norm   :     0.4848458 α      lambda       -0.3387428E-01
   maximum displ.:     0.1000069 α      in ANC's #89, #126, #92, ...

........................................................................
.............................. CYCLE    3 ..............................
........................................................................
   1   -232.8380029 -0.232838E+03  0.257E-01    0.74       0.0  T
   2   -232.8387865 -0.783657E-03  0.151E-01    0.84       1.0  T
   3   -232.8385034  0.283169E-03  0.970E-02    0.76       1.0  T
   4   -232.8391802 -0.676786E-03  0.362E-02    0.81       1.0  T
   5   -232.8393203 -0.140155E-03  0.204E-02    0.80       1.0  T
   6   -232.8393547 -0.343732E-04  0.109E-02    0.80       1.0  T
   7   -232.8393587 -0.404140E-05  0.823E-03    0.80       1.1  T
   8   -232.8393613 -0.260219E-05  0.612E-03    0.80       1.4  T
   9   -232.8393625 -0.119251E-05  0.455E-03    0.80       1.9  T
  10   -232.8393645 -0.200768E-05  0.184E-03    0.80       4.7  T
  11   -232.8393647 -0.147801E-06  0.104E-03    0.80       8.3  T
  12   -232.8393647 -0.574911E-07  0.548E-04    0.80      15.9  T
  13   -232.8393647 -0.177524E-07  0.246E-04    0.80      35.3  T
     SCC iter.                  ...        0 min,  0.474 sec
     gradient                   ...        0 min,  0.289 sec
 * total energy  :  -229.1081434 Eh     change       -0.2055614E-01 Eh
   gradient norm :     0.0395059 Eh/α   predicted    -0.2091867E-01 (   1.76%)
   displ. norm   :     0.5310463 α      lambda       -0.1049070E-01
   maximum displ.:     0.1782734 α      in ANC's #36, #48, #47, ...

........................................................................
.............................. CYCLE    4 ..............................
........................................................................
   1   -232.8530308 -0.232853E+03  0.260E-01    0.78       0.0  T
   2   -232.8531476 -0.116798E-03  0.148E-01    0.85       1.0  T
   3   -232.8518876  0.126006E-02  0.927E-02    0.78       1.0  T
   4   -232.8533039 -0.141638E-02  0.200E-02    0.84       1.0  T
   5   -232.8533536 -0.496393E-04  0.992E-03    0.83       1.0  T
   6   -232.8533585 -0.497853E-05  0.529E-03    0.83       1.6  T
   7   -232.8533595 -0.931745E-06  0.379E-03    0.83       2.3  T
   8   -232.8533600 -0.491373E-06  0.299E-03    0.83       2.9  T
   9   -232.8533604 -0.419814E-06  0.219E-03    0.83       4.0  T
  10   -232.8533607 -0.322334E-06  0.122E-03    0.83       7.2  T
  11   -232.8533608 -0.843120E-07  0.644E-04    0.83      13.5  T
  12   -232.8533608 -0.299005E-07  0.291E-04    0.83      29.9  T
     SCC iter.                  ...        0 min,  0.436 sec
     gradient                   ...        0 min,  0.291 sec
 * total energy  :  -229.1117567 Eh     change       -0.3613328E-02 Eh
   gradient norm :     0.0407848 Eh/α   predicted    -0.6724672E-02 (  86.11%)
   displ. norm   :     0.5257840 α      lambda       -0.9958341E-02
   maximum displ.:     0.1890658 α      in ANC's #23, #14, #37, ...

........................................................................
.............................. CYCLE    5 ..............................
........................................................................
   1   -232.8726889 -0.232873E+03  0.338E-01    0.82       0.0  T
   2   -232.8728595 -0.170579E-03  0.188E-01    0.87       1.0  T
   3   -232.8717524  0.110707E-02  0.832E-02    0.81       1.0  T
   4   -232.8730026 -0.125022E-02  0.143E-02    0.87       1.0  T
   5   -232.8730247 -0.220247E-04  0.750E-03    0.86       1.2  T
   6   -232.8730281 -0.343098E-05  0.332E-03    0.86       2.6  T
   7   -232.8730286 -0.552166E-06  0.188E-03    0.86       4.6  T
   8   -232.8730288 -0.173216E-06  0.138E-03    0.86       6.3  T
   9   -232.8730289 -0.697509E-07  0.105E-03    0.86       8.3  T
  10   -232.8730289 -0.491067E-07  0.717E-04    0.86      12.1  T
  11   -232.8730290 -0.268798E-07  0.451E-04    0.86      19.3  T
     SCC iter.                  ...        0 min,  0.404 sec
     gradient                   ...        0 min,  0.289 sec
 * total energy  :  -229.1165892 Eh     change       -0.4832462E-02 Eh
   gradient norm :     0.0275171 Eh/α   predicted    -0.6355670E-02 (  31.52%)
   displ. norm   :     0.3965596 α      lambda       -0.3395618E-02
   maximum displ.:     0.1648166 α      in ANC's #36, #14, #48, ...

........................................................................
.............................. CYCLE    6 ..............................
........................................................................
   1   -232.8745237 -0.232875E+03  0.132E-01    0.87       0.0  T
   2   -232.8745553 -0.316126E-04  0.764E-02    0.89       1.0  T
   3   -232.8742446  0.310722E-03  0.460E-02    0.86       1.0  T
   4   -232.8745967 -0.352139E-03  0.763E-03    0.89       1.1  T
   5   -232.8746015 -0.483788E-05  0.406E-03    0.88       2.1  T
   6   -232.8746028 -0.120204E-05  0.191E-03    0.88       4.6  T
   7   -232.8746030 -0.212698E-06  0.116E-03    0.88       7.5  T
   8   -232.8746030 -0.516264E-07  0.873E-04    0.88      10.0  T
   9   -232.8746030 -0.269575E-07  0.658E-04    0.88      13.2  T
     SCC iter.                  ...        0 min,  0.330 sec
     gradient                   ...        0 min,  0.289 sec
 * total energy  :  -229.1189196 Eh     change       -0.2330459E-02 Eh
   gradient norm :     0.0202490 Eh/α   predicted    -0.1964806E-02 ( -15.69%)
   displ. norm   :     0.6462870 α      lambda       -0.4487201E-02
   maximum displ.:     0.3011677 α      in ANC's #36, #38, #14, ...

........................................................................
.............................. CYCLE    7 ..............................
........................................................................
   1   -232.8801387 -0.232880E+03  0.205E-01    0.89       0.0  T
   2   -232.8802162 -0.775198E-04  0.119E-01    0.93       1.0  T
   3   -232.8793964  0.819856E-03  0.775E-02    0.88       1.0  T
   4   -232.8803383 -0.941977E-03  0.126E-02    0.93       1.0  T
   5   -232.8803522 -0.138482E-04  0.655E-03    0.92       1.3  T
   6   -232.8803553 -0.311624E-05  0.325E-03    0.92       2.7  T
   7   -232.8803558 -0.531169E-06  0.209E-03    0.92       4.2  T
   8   -232.8803560 -0.138016E-06  0.163E-03    0.92       5.3  T
   9   -232.8803561 -0.995015E-07  0.121E-03    0.92       7.2  T
  10   -232.8803561 -0.848864E-07  0.746E-04    0.92      11.7  T
  11   -232.8803562 -0.361358E-07  0.398E-04    0.92      21.9  T
     SCC iter.                  ...        0 min,  0.403 sec
     gradient                   ...        0 min,  0.289 sec
 * total energy  :  -229.1209040 Eh     change       -0.1984345E-02 Eh
   gradient norm :     0.0287063 Eh/α   predicted    -0.3180726E-02 (  60.29%)
   displ. norm   :     0.4626481 α      lambda       -0.3011280E-02
   maximum displ.:     0.1772880 α      in ANC's #36, #14, #25, ...

........................................................................
.............................. CYCLE    8 ..............................
........................................................................
   1   -232.8881536 -0.232888E+03  0.147E-01    0.92       0.0  T
   2   -232.8881926 -0.390070E-04  0.835E-02    0.95       1.0  T
   3   -232.8878083  0.384281E-03  0.494E-02    0.92       1.0  T
   4   -232.8882430 -0.434705E-03  0.876E-03    0.95       1.0  T
   5   -232.8882516 -0.859999E-05  0.408E-03    0.95       2.1  T
   6   -232.8882525 -0.880761E-06  0.179E-03    0.95       4.9  T
   7   -232.8882528 -0.261007E-06  0.865E-04    0.95      10.1  T
   8   -232.8882528 -0.330764E-07  0.638E-04    0.95      13.6  T
     SCC iter.                  ...        0 min,  0.296 sec
     gradient                   ...        0 min,  0.290 sec
 * total energy  :  -229.1227111 Eh     change       -0.1807150E-02 Eh
   gradient norm :     0.0246127 Eh/α   predicted    -0.1827926E-02 (   1.15%)
   displ. norm   :     0.5061521 α      lambda       -0.2791248E-02
   maximum displ.:     0.1754374 α      in ANC's #36, #14, #28, ...

........................................................................
.............................. CYCLE    9 ..............................
........................................................................
   1   -232.8878189 -0.232888E+03  0.173E-01    0.92       0.0  T
   2   -232.8878693 -0.503653E-04  0.986E-02    0.96       1.0  T
   3   -232.8871051  0.764240E-03  0.708E-02    0.91       1.0  T
   4   -232.8879748 -0.869724E-03  0.961E-03    0.96       1.0  T
   5   -232.8879820 -0.722053E-05  0.503E-03    0.96       1.7  T
   6   -232.8879833 -0.125483E-05  0.247E-03    0.96       3.5  T
   7   -232.8879836 -0.311081E-06  0.157E-03    0.95       5.5  T
   8   -232.8879836 -0.867526E-07  0.120E-03    0.96       7.3  T
   9   -232.8879837 -0.629603E-07  0.927E-04    0.96       9.4  T
  10   -232.8879838 -0.474355E-07  0.587E-04    0.96      14.8  T
     SCC iter.                  ...        0 min,  0.379 sec
     gradient                   ...        0 min,  0.290 sec
 * total energy  :  -229.1240235 Eh     change       -0.1312407E-02 Eh
   gradient norm :     0.0376891 Eh/α   predicted    -0.1753175E-02 (  33.58%)
   displ. norm   :     0.4652709 α      lambda       -0.2435821E-02
   maximum displ.:     0.1560856 α      in ANC's #36, #14, #21, ...

........................................................................
.............................. CYCLE   10 ..............................
........................................................................
   1   -232.8964090 -0.232896E+03  0.125E-01    0.96       0.0  T
   2   -232.8964410 -0.319825E-04  0.706E-02    0.98       1.0  T
   3   -232.8962592  0.181822E-03  0.374E-02    0.96       1.0  T
   4   -232.8964693 -0.210158E-03  0.612E-03    0.98       1.4  T
   5   -232.8964722 -0.285240E-05  0.379E-03    0.97       2.3  T
   6   -232.8964735 -0.129208E-05  0.130E-03    0.97       6.7  T
   7   -232.8964735 -0.683334E-07  0.798E-04    0.97      10.9  T
   8   -232.8964736 -0.299448E-07  0.549E-04    0.97      15.9  T
     SCC iter.                  ...        0 min,  0.295 sec
     gradient                   ...        0 min,  0.289 sec
 * total energy  :  -229.1257597 Eh     change       -0.1736168E-02 Eh
   gradient norm :     0.0151293 Eh/α   predicted    -0.1481564E-02 ( -14.66%)
   displ. norm   :     0.6558523 α      lambda       -0.2209268E-02
   maximum displ.:     0.1973580 α      in ANC's #21, #36, #25, ...

........................................................................
.............................. CYCLE   11 ..............................
........................................................................
   1   -232.9021368 -0.232902E+03  0.122E-01    0.98       0.0  T
   2   -232.9021605 -0.236905E-04  0.716E-02    1.00       1.0  T
   3   -232.9018884  0.272048E-03  0.457E-02    0.98       1.0  T
   4   -232.9021991 -0.310677E-03  0.816E-03    1.00       1.1  T
   5   -232.9022065 -0.734894E-05  0.436E-03    1.00       2.0  T
   6   -232.9022083 -0.187172E-05  0.154E-03    1.00       5.6  T
   7   -232.9022084 -0.932390E-07  0.894E-04    1.00       9.7  T
   8   -232.9022085 -0.452872E-07  0.607E-04    1.00      14.3  T
     SCC iter.                  ...        0 min,  0.293 sec
     gradient                   ...        0 min,  0.289 sec
 * total energy  :  -229.1270455 Eh     change       -0.1285785E-02 Eh
   gradient norm :     0.0316053 Eh/α   predicted    -0.1579784E-02 (  22.87%)
   displ. norm   :     0.6530347 α      lambda       -0.2819648E-02
   maximum displ.:     0.2654044 α      in ANC's #14, #15, #21, ...

........................................................................
.............................. CYCLE   12 ..............................
........................................................................
   1   -232.8834344 -0.232883E+03  0.217E-01    1.00       0.0  T
   2   -232.8835073 -0.728381E-04  0.122E-01    1.02       1.0  T
   3   -232.8830413  0.465940E-03  0.570E-02    0.99       1.0  T
   4   -232.8835716 -0.530332E-03  0.899E-03    1.02       1.0  T
   5   -232.8835768 -0.512956E-05  0.531E-03    1.02       1.6  T
   6   -232.8835792 -0.238946E-05  0.213E-03    1.02       4.1  T
   7   -232.8835794 -0.275196E-06  0.115E-03    1.02       7.5  T
   8   -232.8835795 -0.662115E-07  0.804E-04    1.02      10.8  T
   9   -232.8835795 -0.236528E-07  0.640E-04    1.02      13.6  T
     SCC iter.                  ...        0 min,  0.329 sec
     gradient                   ...        0 min,  0.289 sec
 * total energy  :  -229.1281995 Eh     change       -0.1153989E-02 Eh
   gradient norm :     0.0461905 Eh/α   predicted    -0.2011053E-02 (  74.27%)
   displ. norm   :     0.4146247 α      lambda       -0.2606139E-02
   maximum displ.:     0.1381533 α      in ANC's #21, #4, #8, ...

........................................................................
.............................. CYCLE   13 ..............................
........................................................................
   1   -232.9021200 -0.232902E+03  0.119E-01    1.02       0.0  T
   2   -232.9021526 -0.325518E-04  0.689E-02    1.03       1.0  T
   3   -232.9019024  0.250152E-03  0.462E-02    1.01       1.0  T
   4   -232.9021941 -0.291650E-03  0.749E-03    1.03       1.2  T
   5   -232.9021989 -0.486916E-05  0.393E-03    1.02       2.2  T
   6   -232.9022002 -0.121707E-05  0.161E-03    1.02       5.4  T
   7   -232.9022002 -0.571326E-07  0.978E-04    1.02       8.9  T
   8   -232.9022003 -0.517866E-07  0.631E-04    1.02      13.8  T
     SCC iter.                  ...        0 min,  0.294 sec
     gradient                   ...        0 min,  0.289 sec
 * total energy  :  -229.1288052 Eh     change       -0.6057609E-03 Eh
   gradient norm :     0.0535029 Eh/α   predicted    -0.1527090E-02 ( 152.09%)
   displ. norm   :     0.4131781 α      lambda       -0.3609332E-02
   maximum displ.:     0.1594268 α      in ANC's #23, #21, #8, ...

........................................................................
.............................. CYCLE   14 ..............................
........................................................................
   1   -232.9110593 -0.232911E+03  0.177E-01    1.02       0.0  T
   2   -232.9111476 -0.882726E-04  0.991E-02    1.04       1.0  T
   3   -232.9108789  0.268615E-03  0.442E-02    1.01       1.0  T
   4   -232.9111913 -0.312402E-03  0.870E-03    1.04       1.0  T
   5   -232.9111975 -0.614858E-05  0.546E-03    1.03       1.6  T
   6   -232.9112007 -0.318142E-05  0.200E-03    1.03       4.3  T
   7   -232.9112008 -0.130021E-06  0.132E-03    1.03       6.6  T
   8   -232.9112009 -0.896056E-07  0.895E-04    1.03       9.7  T
   9   -232.9112009 -0.198708E-07  0.745E-04    1.03      11.7  T
     SCC iter.                  ...        0 min,  0.330 sec
     gradient                   ...        0 min,  0.289 sec
 * total energy  :  -229.1296957 Eh     change       -0.8905156E-03 Eh
   gradient norm :     0.0438996 Eh/α   predicted    -0.2112755E-02 ( 137.25%)
   displ. norm   :     0.4649397 α      lambda       -0.2399748E-02
   maximum displ.:     0.1464303 α      in ANC's #14, #8, #21, ...

........................................................................
.............................. CYCLE   15 ..............................
........................................................................
   1   -232.8897440 -0.232890E+03  0.117E-01    1.04       0.0  T
   2   -232.8897728 -0.288398E-04  0.678E-02    1.05       1.0  T
   3   -232.8895238  0.249034E-03  0.434E-02    1.03       1.0  T
   4   -232.8898061 -0.282332E-03  0.733E-03    1.05       1.2  T
   5   -232.8898100 -0.392242E-05  0.410E-03    1.05       2.1  T
   6   -232.8898115 -0.144243E-05  0.204E-03    1.05       4.3  T
   7   -232.8898117 -0.193075E-06  0.105E-03    1.05       8.3  T
   8   -232.8898117 -0.560946E-07  0.767E-04    1.05      11.4  T
   9   -232.8898118 -0.196777E-07  0.589E-04    1.05      14.8  T
     SCC iter.                  ...        0 min,  0.330 sec
     gradient                   ...        0 min,  0.288 sec
 * total energy  :  -229.1306899 Eh     change       -0.9941434E-03 Eh
   gradient norm :     0.0248115 Eh/α   predicted    -0.1459250E-02 (  46.78%)
   displ. norm   :     0.3760210 α      lambda       -0.2569102E-02
   maximum displ.:     0.1294456 α      in ANC's #14, #4, #21, ...

........................................................................
.............................. CYCLE   16 ..............................
........................................................................
   1   -232.8877490 -0.232888E+03  0.122E-01    1.06       0.0  T
   2   -232.8878013 -0.523059E-04  0.692E-02    1.05       1.0  T
   3   -232.8876127  0.188558E-03  0.381E-02    1.06       1.0  T
   4   -232.8878260 -0.213243E-03  0.904E-03    1.05       1.0  T
   5   -232.8878343 -0.835673E-05  0.396E-03    1.05       2.2  T
   6   -232.8878352 -0.808909E-06  0.213E-03    1.05       4.1  T
   7   -232.8878353 -0.157361E-06  0.105E-03    1.05       8.3  T
   8   -232.8878354 -0.646066E-07  0.668E-04    1.05      13.0  T
   9   -232.8878354 -0.141959E-07  0.523E-04    1.05      16.6  T
     SCC iter.                  ...        0 min,  0.377 sec
     gradient                   ...        0 min,  0.289 sec
 * total energy  :  -229.1310052 Eh     change       -0.3152995E-03 Eh
   gradient norm :     0.0462298 Eh/α   predicted    -0.1466179E-02 ( 365.01%)
   displ. norm   :     0.3768225 α      lambda       -0.2554720E-02
   maximum displ.:     0.1227689 α      in ANC's #4, #8, #21, ...

........................................................................
.............................. CYCLE   17 ..............................
........................................................................
   1   -232.8957651 -0.232896E+03  0.655E-02    1.05       0.0  T
   2   -232.8957759 -0.107707E-04  0.389E-02    1.05       1.0  T
   3   -232.8956834  0.924784E-04  0.288E-02    1.04       1.0  T
   4   -232.8957925 -0.109039E-03  0.542E-03    1.05       1.6  T
   5   -232.8957950 -0.252227E-05  0.257E-03    1.05       3.4  T
   6   -232.8957955 -0.474136E-06  0.128E-03    1.05       6.8  T
   7   -232.8957955 -0.533840E-07  0.759E-04    1.05      11.5  T
   8   -232.8957955 -0.284464E-07  0.531E-04    1.05      16.4  T
     SCC iter.                  ...        0 min,  0.293 sec
     gradient                   ...        0 min,  0.291 sec
 * total energy  :  -229.1322747 Eh     change       -0.1269540E-02 Eh
   gradient norm :     0.0216874 Eh/α   predicted    -0.1458741E-02 (  14.90%)
   displ. norm   :     0.4868796 α      lambda       -0.1645359E-02
   maximum displ.:     0.1694576 α      in ANC's #8, #21, #4, ...

........................................................................
.............................. CYCLE   18 ..............................
........................................................................
   1   -232.9025479 -0.232903E+03  0.838E-02    1.05       0.0  T
   2   -232.9025590 -0.110662E-04  0.494E-02    1.07       1.0  T
   3   -232.9024261  0.132894E-03  0.340E-02    1.05       1.0  T
   4   -232.9025817 -0.155606E-03  0.661E-03    1.07       1.3  T
   5   -232.9025866 -0.494962E-05  0.320E-03    1.06       2.7  T
   6   -232.9025875 -0.850819E-06  0.141E-03    1.06       6.2  T
   7   -232.9025876 -0.951045E-07  0.907E-04    1.06       9.6  T
   8   -232.9025876 -0.286365E-07  0.679E-04    1.06      12.8  T
     SCC iter.                  ...        0 min,  0.294 sec
     gradient                   ...        0 min,  0.289 sec
 * total energy  :  -229.1329298 Eh     change       -0.6551339E-03 Eh
   gradient norm :     0.0270300 Eh/α   predicted    -0.1017699E-02 (  55.34%)
   displ. norm   :     0.5420257 α      lambda       -0.1339370E-02
   maximum displ.:     0.1913513 α      in ANC's #8, #4, #21, ...

........................................................................
.............................. CYCLE   19 ..............................
........................................................................
   1   -232.8922578 -0.232892E+03  0.101E-01    1.07       0.0  T
   2   -232.8922716 -0.138225E-04  0.576E-02    1.07       1.0  T
   3   -232.8921722  0.993729E-04  0.282E-02    1.07       1.0  T
   4   -232.8922852 -0.112933E-03  0.465E-03    1.07       1.9  T
   5   -232.8922863 -0.116358E-05  0.270E-03    1.07       3.2  T
   6   -232.8922870 -0.612902E-06  0.103E-03    1.07       8.4  T
   7   -232.8922870 -0.616882E-07  0.615E-04    1.07      14.2  T
   8   -232.8922870 -0.209101E-07  0.432E-04    1.07      20.2  T
     SCC iter.                  ...        0 min,  0.294 sec
     gradient                   ...        0 min,  0.288 sec
 * total energy  :  -229.1339587 Eh     change       -0.1028844E-02 Eh
   gradient norm :     0.0125926 Eh/α   predicted    -0.8664370E-03 ( -15.79%)
   displ. norm   :     0.5953990 α      lambda       -0.1378437E-02
   maximum displ.:     0.2379981 α      in ANC's #4, #8, #16, ...

........................................................................
.............................. CYCLE   20 ..............................
........................................................................
   1   -232.9039806 -0.232904E+03  0.860E-02    1.08       0.0  T
   2   -232.9039986 -0.180271E-04  0.502E-02    1.07       1.0  T
   3   -232.9038573  0.141314E-03  0.294E-02    1.08       1.0  T
   4   -232.9040163 -0.158977E-03  0.588E-03    1.07       1.5  T
   5   -232.9040199 -0.365071E-05  0.282E-03    1.07       3.1  T
   6   -232.9040205 -0.523730E-06  0.124E-03    1.07       7.0  T
   7   -232.9040205 -0.780814E-07  0.611E-04    1.07      14.2  T
   8   -232.9040206 -0.205644E-07  0.347E-04    1.07      25.1  T
     SCC iter.                  ...        0 min,  0.294 sec
     gradient                   ...        0 min,  0.288 sec
 * total energy  :  -229.1348308 Eh     change       -0.8720839E-03 Eh
   gradient norm :     0.0177414 Eh/α   predicted    -0.9335516E-03 (   7.05%)
   displ. norm   :     0.7713821 α      lambda       -0.1202294E-02
   maximum displ.:     0.2962305 α      in ANC's #8, #4, #21, ...
 * RMSD in coord.:     0.6979073 α      energy gain  -0.1091381E+00 Eh

generating ANC from model Hessian ...
Using Lindh-Hessian (1995)
 Shifting diagonal of input Hessian by   1.008368858568246E-002
 Lowest  eigenvalues of input Hessian
    0.010000    0.000000    0.000000    0.000000    0.000000    0.000000
    0.000000    0.010099    0.010120    0.010134    0.010144    0.010162
    0.010181    0.010202    0.010230    0.010258    0.010281    0.010329
 Highest eigenvalues
    2.267025    2.284834    2.595993    2.600289    2.641073    2.651226
 

........................................................................
.............................. CYCLE   21 ..............................
........................................................................
   1   -232.8954597 -0.232895E+03  0.103E-01    1.07       0.0  T
   2   -232.8954794 -0.196733E-04  0.596E-02    1.07       1.0  T
   3   -232.8954026  0.768517E-04  0.249E-02    1.07       1.0  T
   4   -232.8954882 -0.855941E-04  0.617E-03    1.07       1.4  T
   5   -232.8954916 -0.343026E-05  0.286E-03    1.07       3.0  T
   6   -232.8954921 -0.473814E-06  0.131E-03    1.07       6.6  T
   7   -232.8954922 -0.140954E-06  0.565E-04    1.07      15.4  T
   8   -232.8954922 -0.214566E-07  0.308E-04    1.07      28.3  T
     SCC iter.                  ...        0 min,  0.295 sec
     gradient                   ...        0 min,  0.288 sec
 * total energy  :  -229.1358170 Eh     change       -0.9862511E-03 Eh
   gradient norm :     0.0160926 Eh/α   predicted     0.0000000E+00 (-100.00%)
   displ. norm   :     0.1505691 α      lambda       -0.5361715E-03
   maximum displ.:     0.0607602 α      in ANC's #5, #9, #23, ...

........................................................................
.............................. CYCLE   22 ..............................
........................................................................
   1   -232.9041511 -0.232904E+03  0.584E-02    1.08       0.0  T
   2   -232.9041606 -0.957355E-05  0.331E-02    1.07       1.0  T
   3   -232.9041344  0.262688E-04  0.143E-02    1.08       1.0  T
   4   -232.9041648 -0.304686E-04  0.327E-03    1.07       2.7  T
   5   -232.9041659 -0.107170E-05  0.141E-03    1.07       6.2  T
   6   -232.9041660 -0.111446E-06  0.706E-04    1.07      12.3  T
   7   -232.9041660 -0.315691E-07  0.303E-04    1.07      28.7  T
     SCC iter.                  ...        0 min,  0.258 sec
     gradient                   ...        0 min,  0.287 sec
 * total energy  :  -229.1360961 Eh     change       -0.2790955E-03 Eh
   gradient norm :     0.0061172 Eh/α   predicted    -0.2741987E-03 (  -1.75%)
   displ. norm   :     0.3512232 α      lambda       -0.8965358E-03
   maximum displ.:     0.1402406 α      in ANC's #5, #9, #23, ...

........................................................................
.............................. CYCLE   23 ..............................
........................................................................
   1   -232.9177454 -0.232918E+03  0.132E-01    1.08       0.0  T
   2   -232.9177893 -0.438912E-04  0.739E-02    1.07       1.0  T
   3   -232.9176391  0.150129E-03  0.345E-02    1.08       1.0  T
   4   -232.9178135 -0.174399E-03  0.651E-03    1.07       1.3  T
   5   -232.9178176 -0.410590E-05  0.314E-03    1.07       2.8  T
   6   -232.9178183 -0.684634E-06  0.151E-03    1.07       5.8  T
   7   -232.9178185 -0.139340E-06  0.707E-04    1.07      12.3  T
   8   -232.9178185 -0.210578E-07  0.500E-04    1.07      17.4  T
     SCC iter.                  ...        0 min,  0.294 sec
     gradient                   ...        0 min,  0.288 sec
 * total energy  :  -229.1362161 Eh     change       -0.1200069E-03 Eh
   gradient norm :     0.0250977 Eh/α   predicted    -0.5035653E-03 ( 319.61%)
   displ. norm   :     0.1800254 α      lambda       -0.7755118E-03
   maximum displ.:     0.0736689 α      in ANC's #5, #17, #9, ...

........................................................................
.............................. CYCLE   24 ..............................
........................................................................
   1   -232.9128283 -0.232913E+03  0.737E-02    1.07       0.0  T
   2   -232.9128399 -0.116293E-04  0.410E-02    1.07       1.0  T
   3   -232.9128257  0.141903E-04  0.123E-02    1.07       1.0  T
   4   -232.9128452 -0.195499E-04  0.224E-03    1.07       3.9  T
   5   -232.9128454 -0.161507E-06  0.134E-03    1.07       6.5  T
   6   -232.9128455 -0.130865E-06  0.535E-04    1.07      16.3  T
   7   -232.9128456 -0.232930E-07  0.223E-04    1.07      39.0  T
     SCC iter.                  ...        0 min,  0.259 sec
     gradient                   ...        0 min,  0.287 sec
 * total energy  :  -229.1366467 Eh     change       -0.4305810E-03 Eh
   gradient norm :     0.0126615 Eh/α   predicted    -0.4003231E-03 (  -7.03%)
   displ. norm   :     0.3518435 α      lambda       -0.1233405E-02
   maximum displ.:     0.1342810 α      in ANC's #5, #8, #9, ...

........................................................................
.............................. CYCLE   25 ..............................
........................................................................
   1   -232.8949717 -0.232895E+03  0.157E-01    1.06       0.0  T
   2   -232.8950290 -0.572489E-04  0.874E-02    1.06       1.0  T
   3   -232.8949189  0.110070E-03  0.336E-02    1.06       1.0  T
   4   -232.8950585 -0.139606E-03  0.552E-03    1.06       1.6  T
   5   -232.8950601 -0.165815E-05  0.305E-03    1.06       2.9  T
   6   -232.8950608 -0.605819E-06  0.141E-03    1.06       6.2  T
   7   -232.8950609 -0.176274E-06  0.498E-04    1.06      17.5  T
   8   -232.8950609 -0.152806E-07  0.275E-04    1.06      31.7  T
     SCC iter.                  ...        0 min,  0.293 sec
     gradient                   ...        0 min,  0.287 sec
 * total energy  :  -229.1365988 Eh     change        0.4790476E-04 Eh
   gradient norm :     0.0283547 Eh/α   predicted    -0.6930472E-03 (*******%)
   displ. norm   :     0.2307598 α      lambda       -0.1419270E-02
   maximum displ.:     0.0929555 α      in ANC's #5, #9, #23, ...

........................................................................
.............................. CYCLE   26 ..............................
........................................................................
   1   -232.9039317 -0.232904E+03  0.107E-01    1.07       0.0  T
   2   -232.9039555 -0.238232E-04  0.593E-02    1.07       1.0  T
   3   -232.9039225  0.329600E-04  0.179E-02    1.07       1.0  T
   4   -232.9039665 -0.440185E-04  0.295E-03    1.06       3.0  T
   5   -232.9039667 -0.175316E-06  0.204E-03    1.07       4.3  T
   6   -232.9039672 -0.445008E-06  0.680E-04    1.07      12.8  T
   7   -232.9039672 -0.284246E-07  0.270E-04    1.07      32.3  T
     SCC iter.                  ...        0 min,  0.257 sec
     gradient                   ...        0 min,  0.288 sec
 * total energy  :  -229.1373668 Eh     change       -0.7680097E-03 Eh
   gradient norm :     0.0084208 Eh/α   predicted    -0.7474233E-03 (  -2.68%)
   displ. norm   :     0.4213109 α      lambda       -0.1021196E-02
   maximum displ.:     0.1761634 α      in ANC's #5, #9, #8, ...

........................................................................
.............................. CYCLE   27 ..............................
........................................................................
   1   -232.9073032 -0.232907E+03  0.158E-01    1.07       0.0  T
   2   -232.9073546 -0.514236E-04  0.875E-02    1.07       1.0  T
   3   -232.9073232  0.314031E-04  0.183E-02    1.07       1.0  T
   4   -232.9073753 -0.520814E-04  0.473E-03    1.07       1.8  T
   5   -232.9073767 -0.138097E-05  0.245E-03    1.07       3.5  T
   6   -232.9073770 -0.343814E-06  0.910E-04    1.07       9.6  T
   7   -232.9073771 -0.550939E-07  0.386E-04    1.07      22.5  T
     SCC iter.                  ...        0 min,  0.257 sec
     gradient                   ...        0 min,  0.287 sec
 * total energy  :  -229.1373435 Eh     change        0.2332181E-04 Eh
   gradient norm :     0.0137645 Eh/α   predicted    -0.6012308E-03 (*******%)
   displ. norm   :     0.3273100 α      lambda       -0.1305655E-02
   maximum displ.:     0.1425203 α      in ANC's #5, #9, #23, ...

........................................................................
.............................. CYCLE   28 ..............................
........................................................................
   1   -232.9118464 -0.232912E+03  0.950E-02    1.07       0.0  T
   2   -232.9118626 -0.161958E-04  0.529E-02    1.07       1.0  T
   3   -232.9118426  0.200185E-04  0.131E-02    1.07       1.0  T
   4   -232.9118696 -0.270402E-04  0.279E-03    1.07       3.1  T
   5   -232.9118699 -0.290438E-06  0.186E-03    1.07       4.7  T
   6   -232.9118702 -0.366684E-06  0.596E-04    1.07      14.6  T
   7   -232.9118703 -0.196323E-07  0.284E-04    1.07      30.6  T
     SCC iter.                  ...        0 min,  0.259 sec
     gradient                   ...        0 min,  0.287 sec
 * total energy  :  -229.1381378 Eh     change       -0.7942590E-03 Eh
   gradient norm :     0.0132780 Eh/α   predicted    -0.7227666E-03 (  -9.00%)
   displ. norm   :     0.5112944 α      lambda       -0.9242516E-03
   maximum displ.:     0.2343161 α      in ANC's #5, #9, #23, ...

........................................................................
.............................. CYCLE   29 ..............................
........................................................................
   1   -232.9000964 -0.232900E+03  0.109E-01    1.07       0.0  T
   2   -232.9001190 -0.225854E-04  0.610E-02    1.07       1.0  T
   3   -232.9000646  0.544323E-04  0.224E-02    1.07       1.0  T
   4   -232.9001309 -0.663606E-04  0.394E-03    1.07       2.2  T
   5   -232.9001319 -0.907003E-06  0.235E-03    1.07       3.7  T
   6   -232.9001323 -0.462835E-06  0.102E-03    1.07       8.5  T
   7   -232.9001324 -0.775292E-07  0.461E-04    1.07      18.9  T
   8   -232.9001324 -0.104176E-07  0.311E-04    1.07      28.0  T
     SCC iter.                  ...        0 min,  0.295 sec
     gradient                   ...        0 min,  0.287 sec
 * total energy  :  -229.1385560 Eh     change       -0.4182929E-03 Eh
   gradient norm :     0.0178031 Eh/α   predicted    -0.5829355E-03 (  39.36%)
   displ. norm   :     0.5168322 α      lambda       -0.7723852E-03
   maximum displ.:     0.2415777 α      in ANC's #5, #9, #8, ...

........................................................................
.............................. CYCLE   30 ..............................
........................................................................
   1   -232.9037317 -0.232904E+03  0.630E-02    1.07       0.0  T
   2   -232.9037377 -0.605414E-05  0.358E-02    1.07       1.0  T
   3   -232.9037009  0.367646E-04  0.159E-02    1.08       1.0  T
   4   -232.9037425 -0.415391E-04  0.264E-03    1.07       3.3  T
   5   -232.9037427 -0.252194E-06  0.169E-03    1.07       5.2  T
   6   -232.9037430 -0.246621E-06  0.597E-04    1.07      14.6  T
   7   -232.9037430 -0.148966E-07  0.358E-04    1.07      24.3  T
     SCC iter.                  ...        0 min,  0.258 sec
     gradient                   ...        0 min,  0.287 sec
 * total energy  :  -229.1391942 Eh     change       -0.6381057E-03 Eh
   gradient norm :     0.0061528 Eh/α   predicted    -0.4893509E-03 ( -23.31%)
   displ. norm   :     0.7155655 α      lambda       -0.8149244E-03
   maximum displ.:     0.3515228 α      in ANC's #5, #9, #8, ...

........................................................................
.............................. CYCLE   31 ..............................
........................................................................
   1   -232.9082745 -0.232908E+03  0.780E-02    1.08       0.0  T
   2   -232.9082835 -0.901129E-05  0.443E-02    1.08       1.0  T
   3   -232.9082491  0.344668E-04  0.151E-02    1.08       1.0  T
   4   -232.9082890 -0.399392E-04  0.314E-03    1.08       2.8  T
   5   -232.9082894 -0.386834E-06  0.189E-03    1.08       4.6  T
   6   -232.9082896 -0.262512E-06  0.693E-04    1.08      12.6  T
   7   -232.9082897 -0.279794E-07  0.377E-04    1.08      23.1  T
     SCC iter.                  ...        0 min,  0.257 sec
     gradient                   ...        0 min,  0.287 sec
 * total energy  :  -229.1398941 Eh     change       -0.6999814E-03 Eh
   gradient norm :     0.0061899 Eh/α   predicted    -0.6161019E-03 ( -11.98%)
   displ. norm   :     0.7967284 α      lambda       -0.7363341E-03
   maximum displ.:     0.3990821 α      in ANC's #5, #9, #8, ...

........................................................................
.............................. CYCLE   32 ..............................
........................................................................
   1   -232.9083832 -0.232908E+03  0.772E-02    1.09       0.0  T
   2   -232.9083912 -0.798061E-05  0.440E-02    1.08       1.0  T
   3   -232.9083654  0.258416E-04  0.136E-02    1.09       1.0  T
   4   -232.9083958 -0.304531E-04  0.307E-03    1.08       2.8  T
   5   -232.9083961 -0.262858E-06  0.207E-03    1.09       4.2  T
   6   -232.9083965 -0.397502E-06  0.651E-04    1.08      13.4  T
   7   -232.9083965 -0.280234E-07  0.355E-04    1.08      24.5  T
     SCC iter.                  ...        0 min,  0.307 sec
     gradient                   ...        0 min,  0.291 sec
 * total energy  :  -229.1405692 Eh     change       -0.6750703E-03 Eh
   gradient norm :     0.0078022 Eh/α   predicted    -0.6018739E-03 ( -10.84%)
   displ. norm   :     0.7777740 α      lambda       -0.7298326E-03
   maximum displ.:     0.4054921 α      in ANC's #5, #9, #8, ...

........................................................................
.............................. CYCLE   33 ..............................
........................................................................
   1   -232.9105871 -0.232911E+03  0.706E-02    1.10       0.0  T
   2   -232.9105932 -0.610409E-05  0.405E-02    1.09       1.0  T
   3   -232.9105628  0.304730E-04  0.146E-02    1.10       1.0  T
   4   -232.9105976 -0.348480E-04  0.286E-03    1.09       3.0  T
   5   -232.9105979 -0.240187E-06  0.193E-03    1.09       4.5  T
   6   -232.9105982 -0.332645E-06  0.708E-04    1.09      12.3  T
   7   -232.9105982 -0.413810E-07  0.376E-04    1.09      23.2  T
     SCC iter.                  ...        0 min,  0.259 sec
     gradient                   ...        0 min,  0.287 sec
 * total energy  :  -229.1412303 Eh     change       -0.6610801E-03 Eh
   gradient norm :     0.0055577 Eh/α   predicted    -0.5856709E-03 ( -11.41%)
   displ. norm   :     0.7912755 α      lambda       -0.7055401E-03
   maximum displ.:     0.4151936 α      in ANC's #5, #9, #8, ...

........................................................................
.............................. CYCLE   34 ..............................
........................................................................
   1   -232.9088189 -0.232909E+03  0.776E-02    1.10       0.0  T
   2   -232.9088271 -0.820737E-05  0.443E-02    1.10       1.0  T
   3   -232.9087881  0.390789E-04  0.170E-02    1.10       1.0  T
   4   -232.9088334 -0.453103E-04  0.309E-03    1.10       2.8  T
   5   -232.9088335 -0.941982E-07  0.220E-03    1.10       4.0  T
   6   -232.9088339 -0.483907E-06  0.720E-04    1.10      12.1  T
   7   -232.9088340 -0.379832E-07  0.406E-04    1.10      21.4  T
     SCC iter.                  ...        0 min,  0.258 sec
     gradient                   ...        0 min,  0.287 sec
 * total energy  :  -229.1418628 Eh     change       -0.6324798E-03 Eh
   gradient norm :     0.0078717 Eh/α   predicted    -0.5736472E-03 (  -9.30%)
   displ. norm   :     0.7873080 α      lambda       -0.6957451E-03
   maximum displ.:     0.4253021 α      in ANC's #5, #9, #2, ...

........................................................................
.............................. CYCLE   35 ..............................
........................................................................
   1   -232.9092038 -0.232909E+03  0.719E-02    1.10       0.0  T
   2   -232.9092096 -0.579227E-05  0.413E-02    1.10       1.0  T
   3   -232.9091608  0.488005E-04  0.185E-02    1.11       1.0  T
   4   -232.9092156 -0.547542E-04  0.325E-03    1.10       2.7  T
   5   -232.9092159 -0.380618E-06  0.222E-03    1.10       3.9  T
   6   -232.9092164 -0.462623E-06  0.746E-04    1.10      11.7  T
   7   -232.9092164 -0.393330E-07  0.398E-04    1.10      21.8  T
     SCC iter.                  ...        0 min,  0.257 sec
     gradient                   ...        0 min,  0.287 sec
 * total energy  :  -229.1424905 Eh     change       -0.6277213E-03 Eh
   gradient norm :     0.0047381 Eh/α   predicted    -0.5635099E-03 ( -10.23%)
   displ. norm   :     0.8117915 α      lambda       -0.6647392E-03
   maximum displ.:     0.4476160 α      in ANC's #5, #9, #2, ...

........................................................................
.............................. CYCLE   36 ..............................
........................................................................
   1   -232.9104970 -0.232910E+03  0.751E-02    1.11       0.0  T
   2   -232.9105034 -0.641328E-05  0.433E-02    1.10       1.0  T
   3   -232.9104387  0.646744E-04  0.208E-02    1.11       1.0  T
   4   -232.9105104 -0.716457E-04  0.375E-03    1.10       2.3  T
   5   -232.9105112 -0.835365E-06  0.227E-03    1.10       3.8  T
   6   -232.9105116 -0.398855E-06  0.846E-04    1.10      10.3  T
   7   -232.9105116 -0.465773E-07  0.391E-04    1.10      22.3  T
     SCC iter.                  ...        0 min,  0.257 sec
     gradient                   ...        0 min,  0.286 sec
 * total energy  :  -229.1430998 Eh     change       -0.6092860E-03 Eh
   gradient norm :     0.0043644 Eh/α   predicted    -0.5514109E-03 (  -9.50%)
   displ. norm   :     0.8324313 α      lambda       -0.6288887E-03
   maximum displ.:     0.4598145 α      in ANC's #5, #9, #2, ...

........................................................................
.............................. CYCLE   37 ..............................
........................................................................
   1   -232.9079780 -0.232908E+03  0.791E-02    1.11       0.0  T
   2   -232.9079842 -0.614833E-05  0.453E-02    1.10       1.0  T
   3   -232.9079234  0.607716E-04  0.203E-02    1.11       1.0  T
   4   -232.9079915 -0.680891E-04  0.372E-03    1.10       2.3  T
   5   -232.9079921 -0.623271E-06  0.247E-03    1.10       3.5  T
   6   -232.9079927 -0.549156E-06  0.728E-04    1.10      11.9  T
   7   -232.9079927 -0.411948E-07  0.352E-04    1.10      24.7  T
     SCC iter.                  ...        0 min,  0.257 sec
     gradient                   ...        0 min,  0.286 sec
 * total energy  :  -229.1436710 Eh     change       -0.5712367E-03 Eh
   gradient norm :     0.0042825 Eh/α   predicted    -0.5323417E-03 (  -6.81%)
   displ. norm   :     0.8068983 α      lambda       -0.6043526E-03
   maximum displ.:     0.4610044 α      in ANC's #5, #9, #2, ...

........................................................................
.............................. CYCLE   38 ..............................
........................................................................
   1   -232.9130373 -0.232913E+03  0.816E-02    1.11       0.0  T
   2   -232.9130465 -0.921488E-05  0.470E-02    1.10       1.0  T
   3   -232.9129661  0.803801E-04  0.230E-02    1.11       1.0  T
   4   -232.9130543 -0.881566E-04  0.430E-03    1.10       2.0  T
   5   -232.9130556 -0.133960E-05  0.224E-03    1.10       3.9  T
   6   -232.9130559 -0.298956E-06  0.959E-04    1.10       9.1  T
   7   -232.9130560 -0.580228E-07  0.407E-04    1.10      21.4  T
     SCC iter.                  ...        0 min,  0.258 sec
     gradient                   ...        0 min,  0.286 sec
 * total energy  :  -229.1441945 Eh     change       -0.5235327E-03 Eh
   gradient norm :     0.0066622 Eh/α   predicted    -0.4989220E-03 (  -4.70%)
   displ. norm   :     0.8017688 α      lambda       -0.5372879E-03
   maximum displ.:     0.4587889 α      in ANC's #5, #9, #2, ...

........................................................................
.............................. CYCLE   39 ..............................
........................................................................
   1   -232.9105897 -0.232911E+03  0.717E-02    1.11       0.0  T
   2   -232.9105953 -0.558767E-05  0.413E-02    1.10       1.0  T
   3   -232.9105446  0.506391E-04  0.190E-02    1.11       1.0  T
   4   -232.9106014 -0.567826E-04  0.350E-03    1.10       2.5  T
   5   -232.9106021 -0.722524E-06  0.216E-03    1.10       4.0  T
   6   -232.9106025 -0.380575E-06  0.760E-04    1.10      11.5  T
   7   -232.9106026 -0.491518E-07  0.340E-04    1.10      25.6  T
     SCC iter.                  ...        0 min,  0.258 sec
     gradient                   ...        0 min,  0.286 sec
 * total energy  :  -229.1446755 Eh     change       -0.4809421E-03 Eh
   gradient norm :     0.0045552 Eh/α   predicted    -0.4413386E-03 (  -8.23%)
   displ. norm   :     0.7620372 α      lambda       -0.4858518E-03
   maximum displ.:     0.4468369 α      in ANC's #5, #9, #2, ...

........................................................................
.............................. CYCLE   40 ..............................
........................................................................
   1   -232.9112957 -0.232911E+03  0.662E-02    1.11       0.0  T
   2   -232.9112989 -0.316010E-05  0.381E-02    1.10       1.0  T
   3   -232.9112703  0.285485E-04  0.138E-02    1.11       1.0  T
   4   -232.9113020 -0.316597E-04  0.279E-03    1.11       3.1  T
   5   -232.9113021 -0.167637E-06  0.194E-03    1.11       4.5  T
   6   -232.9113025 -0.370604E-06  0.503E-04    1.11      17.3  T
   7   -232.9113025 -0.134238E-07  0.304E-04    1.11      28.6  T
     SCC iter.                  ...        0 min,  0.259 sec
     gradient                   ...        0 min,  0.286 sec
 * total energy  :  -229.1451281 Eh     change       -0.4525812E-03 Eh
   gradient norm :     0.0045890 Eh/α   predicted    -0.3839999E-03 ( -15.15%)
   displ. norm   :     0.7601818 α      lambda       -0.5104761E-03
   maximum displ.:     0.4583119 α      in ANC's #5, #9, #2, ...

........................................................................
.............................. CYCLE   41 ..............................
........................................................................
   1   -232.9164778 -0.232916E+03  0.646E-02    1.11       0.0  T
   2   -232.9164805 -0.267833E-05  0.373E-02    1.11       1.0  T
   3   -232.9164633  0.171732E-04  0.107E-02    1.11       1.0  T
   4   -232.9164823 -0.189750E-04  0.268E-03    1.11       3.2  T
   5   -232.9164825 -0.251475E-06  0.156E-03    1.11       5.6  T
   6   -232.9164828 -0.237065E-06  0.468E-04    1.11      18.6  T
   7   -232.9164828 -0.119805E-07  0.272E-04    1.11      32.0  T
     SCC iter.                  ...        0 min,  0.257 sec
     gradient                   ...        0 min,  0.286 sec
 * total energy  :  -229.1455991 Eh     change       -0.4709902E-03 Eh
   gradient norm :     0.0046451 Eh/α   predicted    -0.4027363E-03 ( -14.49%)
   displ. norm   :     0.7850588 α      lambda       -0.5428426E-03
   maximum displ.:     0.4782468 α      in ANC's #5, #9, #2, ...

........................................................................
.............................. CYCLE   42 ..............................
........................................................................
   1   -232.9160411 -0.232916E+03  0.716E-02    1.11       0.0  T
   2   -232.9160458 -0.471631E-05  0.413E-02    1.11       1.0  T
   3   -232.9160166  0.292534E-04  0.145E-02    1.11       1.0  T
   4   -232.9160491 -0.324903E-04  0.289E-03    1.11       3.0  T
   5   -232.9160495 -0.394723E-06  0.149E-03    1.11       5.9  T
   6   -232.9160496 -0.104099E-06  0.609E-04    1.11      14.3  T
   7   -232.9160496 -0.213578E-07  0.350E-04    1.11      24.9  T
     SCC iter.                  ...        0 min,  0.258 sec
     gradient                   ...        0 min,  0.285 sec
 * total energy  :  -229.1460916 Eh     change       -0.4925096E-03 Eh
   gradient norm :     0.0060081 Eh/α   predicted    -0.4387069E-03 ( -10.92%)
   displ. norm   :     0.7865977 α      lambda       -0.5435813E-03
   maximum displ.:     0.4871436 α      in ANC's #5, #9, #2, ...
 * RMSD in coord.:     1.0776890 α      energy gain  -0.1126079E-01 Eh

generating ANC from model Hessian ...
Using Lindh-Hessian (1995)
 Shifting diagonal of input Hessian by   9.997240658539540E-003
 Lowest  eigenvalues of input Hessian
    0.000000    0.000000    0.000000    0.000000    0.000000    0.000000
    0.010000    0.010011    0.010040    0.010044    0.010059    0.010087
    0.010102    0.010149    0.010177    0.010191    0.010246    0.010331
 Highest eigenvalues
    2.287626    2.293305    2.599929    2.608589    2.650381    2.657402
 

........................................................................
.............................. CYCLE   43 ..............................
........................................................................
   1   -232.9172783 -0.232917E+03  0.741E-02    1.11       0.0  T
   2   -232.9172831 -0.479475E-05  0.426E-02    1.12       1.0  T
   3   -232.9172731  0.993003E-05  0.942E-03    1.12       1.0  T
   4   -232.9172848 -0.116499E-04  0.294E-03    1.12       3.0  T
   5   -232.9172852 -0.404407E-06  0.160E-03    1.12       5.4  T
   6   -232.9172854 -0.210620E-06  0.610E-04    1.12      14.3  T
   7   -232.9172854 -0.266520E-07  0.332E-04    1.12      26.2  T
     SCC iter.                  ...        0 min,  0.258 sec
     gradient                   ...        0 min,  0.285 sec
 * total energy  :  -229.1465975 Eh     change       -0.5059665E-03 Eh
   gradient norm :     0.0041847 Eh/α   predicted     0.0000000E+00 (-100.00%)
   displ. norm   :     0.0888452 α      lambda       -0.1132954E-03
   maximum displ.:     0.0422394 α      in ANC's #5, #16, #4, ...

........................................................................
.............................. CYCLE   44 ..............................
........................................................................
   1   -232.9166185 -0.232917E+03  0.389E-02    1.11       0.0  T
   2   -232.9166215 -0.303070E-05  0.216E-02    1.11       1.0  T
   3   -232.9166168  0.472633E-05  0.607E-03    1.11       1.4  T
   4   -232.9166230 -0.624309E-05  0.110E-03    1.11       7.9  T
   5   -232.9166231 -0.370758E-07  0.610E-04    1.11      14.3  T
   6   -232.9166231 -0.217228E-07  0.236E-04    1.11      37.0  T
     SCC iter.                  ...        0 min,  0.222 sec
     gradient                   ...        0 min,  0.285 sec
 * total energy  :  -229.1466613 Eh     change       -0.6373840E-04 Eh
   gradient norm :     0.0033003 Eh/α   predicted    -0.5916795E-04 (  -7.17%)
   displ. norm   :     0.2290349 α      lambda       -0.2545795E-03
   maximum displ.:     0.1152750 α      in ANC's #5, #2, #4, ...

........................................................................
.............................. CYCLE   45 ..............................
........................................................................
   1   -232.9152148 -0.232915E+03  0.405E-02    1.11       0.0  T
   2   -232.9152166 -0.179867E-05  0.235E-02    1.11       1.0  T
   3   -232.9152005  0.161264E-04  0.103E-02    1.11       1.0  T
   4   -232.9152183 -0.177794E-04  0.199E-03    1.11       4.4  T
   5   -232.9152185 -0.231010E-06  0.109E-03    1.11       8.0  T
   6   -232.9152186 -0.636253E-07  0.459E-04    1.11      18.9  T
   7   -232.9152186 -0.135391E-07  0.246E-04    1.11      35.4  T
     SCC iter.                  ...        0 min,  0.258 sec
     gradient                   ...        0 min,  0.285 sec
 * total energy  :  -229.1468369 Eh     change       -0.1756322E-03 Eh
   gradient norm :     0.0061884 Eh/α   predicted    -0.1339678E-03 ( -23.72%)
   displ. norm   :     0.3313804 α      lambda       -0.2582034E-03
   maximum displ.:     0.1674557 α      in ANC's #5, #2, #4, ...

........................................................................
.............................. CYCLE   46 ..............................
........................................................................
   1   -232.9121601 -0.232912E+03  0.677E-02    1.11       0.0  T
   2   -232.9121653 -0.526907E-05  0.381E-02    1.11       1.0  T
   3   -232.9121576  0.771282E-05  0.804E-03    1.11       1.1  T
   4   -232.9121677 -0.100355E-04  0.239E-03    1.11       3.6  T
   5   -232.9121678 -0.143911E-06  0.152E-03    1.11       5.7  T
   6   -232.9121680 -0.212641E-06  0.475E-04    1.11      18.3  T
   7   -232.9121680 -0.144364E-07  0.266E-04    1.11      32.7  T
     SCC iter.                  ...        0 min,  0.258 sec
     gradient                   ...        0 min,  0.285 sec
 * total energy  :  -229.1470046 Eh     change       -0.1677361E-03 Eh
   gradient norm :     0.0078361 Eh/α   predicted    -0.1432827E-03 ( -14.58%)
   displ. norm   :     0.5091107 α      lambda       -0.4347067E-03
   maximum displ.:     0.2543913 α      in ANC's #5, #2, #4, ...

........................................................................
.............................. CYCLE   47 ..............................
........................................................................
   1   -232.9081480 -0.232908E+03  0.880E-02    1.10       0.0  T
   2   -232.9081568 -0.882706E-05  0.501E-02    1.11       1.0  T
   3   -232.9081119  0.449203E-04  0.173E-02    1.10       1.0  T
   4   -232.9081633 -0.513788E-04  0.329E-03    1.11       2.6  T
   5   -232.9081634 -0.738818E-07  0.215E-03    1.11       4.1  T
   6   -232.9081638 -0.408541E-06  0.652E-04    1.11      13.4  T
   7   -232.9081638 -0.258551E-07  0.354E-04    1.11      24.6  T
     SCC iter.                  ...        0 min,  0.257 sec
     gradient                   ...        0 min,  0.285 sec
 * total energy  :  -229.1472328 Eh     change       -0.2281512E-03 Eh
   gradient norm :     0.0099132 Eh/α   predicted    -0.2736912E-03 (  19.96%)
   displ. norm   :     0.3682724 α      lambda       -0.3560389E-03
   maximum displ.:     0.1920682 α      in ANC's #5, #2, #4, ...

........................................................................
.............................. CYCLE   48 ..............................
........................................................................
   1   -232.9092520 -0.232909E+03  0.799E-02    1.11       0.0  T
   2   -232.9092610 -0.906417E-05  0.449E-02    1.11       1.0  T
   3   -232.9092293  0.317476E-04  0.149E-02    1.11       1.0  T
   4   -232.9092670 -0.377107E-04  0.263E-03    1.11       3.3  T
   5   -232.9092671 -0.735483E-07  0.175E-03    1.11       5.0  T
   6   -232.9092673 -0.263313E-06  0.650E-04    1.11      13.4  T
   7   -232.9092673 -0.262460E-07  0.379E-04    1.11      23.0  T
     SCC iter.                  ...        0 min,  0.258 sec
     gradient                   ...        0 min,  0.285 sec
 * total energy  :  -229.1474436 Eh     change       -0.2108520E-03 Eh
   gradient norm :     0.0108474 Eh/α   predicted    -0.2021681E-03 (  -4.12%)
   displ. norm   :     0.3980322 α      lambda       -0.5054541E-03
   maximum displ.:     0.2123429 α      in ANC's #5, #2, #4, ...

........................................................................
.............................. CYCLE   49 ..............................
........................................................................
   1   -232.9174842 -0.232917E+03  0.712E-02    1.12       0.0  T
   2   -232.9174917 -0.747531E-05  0.403E-02    1.12       1.0  T
   3   -232.9174755  0.161652E-04  0.124E-02    1.12       1.0  T
   4   -232.9174955 -0.199459E-04  0.245E-03    1.12       3.6  T
   5   -232.9174956 -0.108835E-06  0.160E-03    1.12       5.4  T
   6   -232.9174958 -0.222559E-06  0.736E-04    1.12      11.8  T
   7   -232.9174958 -0.335280E-07  0.409E-04    1.12      21.3  T
     SCC iter.                  ...        0 min,  0.297 sec
     gradient                   ...        0 min,  0.288 sec
 * total energy  :  -229.1477204 Eh     change       -0.2767328E-03 Eh
   gradient norm :     0.0097768 Eh/α   predicted    -0.2927670E-03 (   5.79%)
   displ. norm   :     0.4242638 α      lambda       -0.2931099E-03
   maximum displ.:     0.2311179 α      in ANC's #5, #2, #4, ...

........................................................................
.............................. CYCLE   50 ..............................
........................................................................
   1   -232.9159399 -0.232916E+03  0.615E-02    1.12       0.0  T
   2   -232.9159440 -0.419318E-05  0.350E-02    1.12       1.0  T
   3   -232.9159241  0.199718E-04  0.115E-02    1.11       1.0  T
   4   -232.9159467 -0.226658E-04  0.248E-03    1.12       3.5  T
   5   -232.9159470 -0.220166E-06  0.147E-03    1.12       5.9  T
   6   -232.9159471 -0.166991E-06  0.597E-04    1.12      14.6  T
   7   -232.9159472 -0.303535E-07  0.285E-04    1.12      30.5  T
     SCC iter.                  ...        0 min,  0.257 sec
     gradient                   ...        0 min,  0.285 sec
 * total energy  :  -229.1479754 Eh     change       -0.2550439E-03 Eh
   gradient norm :     0.0066778 Eh/α   predicted    -0.1729354E-03 ( -32.19%)
   displ. norm   :     0.5571826 α      lambda       -0.4138550E-03
   maximum displ.:     0.3130134 α      in ANC's #5, #2, #4, ...

........................................................................
.............................. CYCLE   51 ..............................
........................................................................
   1   -232.9169670 -0.232917E+03  0.682E-02    1.11       0.0  T
   2   -232.9169717 -0.472432E-05  0.394E-02    1.12       1.0  T
   3   -232.9169426  0.291354E-04  0.139E-02    1.11       1.0  T
   4   -232.9169748 -0.322015E-04  0.289E-03    1.12       3.0  T
   5   -232.9169751 -0.348494E-06  0.171E-03    1.12       5.1  T
   6   -232.9169753 -0.224022E-06  0.689E-04    1.12      12.6  T
   7   -232.9169754 -0.392383E-07  0.339E-04    1.12      25.7  T
     SCC iter.                  ...        0 min,  0.257 sec
     gradient                   ...        0 min,  0.285 sec
 * total energy  :  -229.1482768 Eh     change       -0.3013970E-03 Eh
   gradient norm :     0.0098264 Eh/α   predicted    -0.2711684E-03 ( -10.03%)
   displ. norm   :     0.6165756 α      lambda       -0.4255418E-03
   maximum displ.:     0.3485682 α      in ANC's #5, #2, #4, ...

........................................................................
.............................. CYCLE   52 ..............................
........................................................................
   1   -232.9109635 -0.232911E+03  0.105E-01    1.11       0.0  T
   2   -232.9109775 -0.140152E-04  0.588E-02    1.11       1.0  T
   3   -232.9109614  0.161156E-04  0.123E-02    1.11       1.0  T
   4   -232.9109832 -0.217975E-04  0.357E-03    1.11       2.4  T
   5   -232.9109835 -0.330505E-06  0.216E-03    1.11       4.0  T
   6   -232.9109840 -0.515211E-06  0.686E-04    1.11      12.7  T
   7   -232.9109841 -0.305434E-07  0.366E-04    1.11      23.8  T
     SCC iter.                  ...        0 min,  0.257 sec
     gradient                   ...        0 min,  0.286 sec
 * total energy  :  -229.1485017 Eh     change       -0.2249232E-03 Eh
   gradient norm :     0.0138728 Eh/α   predicted    -0.2936633E-03 (  30.56%)
   displ. norm   :     0.4656457 α      lambda       -0.3427315E-03
   maximum displ.:     0.2625782 α      in ANC's #5, #2, #4, ...

........................................................................
.............................. CYCLE   53 ..............................
........................................................................
   1   -232.9113450 -0.232911E+03  0.574E-02    1.11       0.0  T
   2   -232.9113480 -0.290014E-05  0.330E-02    1.11       1.0  T
   3   -232.9113461  0.187257E-05  0.510E-03    1.11       1.7  T
   4   -232.9113490 -0.290861E-05  0.199E-03    1.11       4.4  T
   5   -232.9113491 -0.127365E-06  0.101E-03    1.11       8.6  T
   6   -232.9113492 -0.830418E-07  0.449E-04    1.11      19.4  T
   7   -232.9113492 -0.122204E-07  0.314E-04    1.11      27.8  T
     SCC iter.                  ...        0 min,  0.257 sec
     gradient                   ...        0 min,  0.285 sec
 * total energy  :  -229.1487826 Eh     change       -0.2808505E-03 Eh
   gradient norm :     0.0083182 Eh/α   predicted    -0.2085223E-03 ( -25.75%)
   displ. norm   :     0.5423362 α      lambda       -0.4317877E-03
   maximum displ.:     0.3237739 α      in ANC's #5, #2, #4, ...

........................................................................
.............................. CYCLE   54 ..............................
........................................................................
   1   -232.9208534 -0.232921E+03  0.641E-02    1.11       0.0  T
   2   -232.9208566 -0.314680E-05  0.370E-02    1.11       1.0  T
   3   -232.9208321  0.245076E-04  0.142E-02    1.12       1.0  T
   4   -232.9208590 -0.269395E-04  0.283E-03    1.11       3.1  T
   5   -232.9208594 -0.443066E-06  0.170E-03    1.11       5.1  T
   6   -232.9208597 -0.269588E-06  0.721E-04    1.11      12.1  T
   7   -232.9208597 -0.357415E-07  0.415E-04    1.11      21.0  T
     SCC iter.                  ...        0 min,  0.258 sec
     gradient                   ...        0 min,  0.285 sec
 * total energy  :  -229.1490926 Eh     change       -0.3099927E-03 Eh
   gradient norm :     0.0104791 Eh/α   predicted    -0.2793993E-03 (  -9.87%)
   displ. norm   :     0.6443082 α      lambda       -0.3962745E-03
   maximum displ.:     0.3814955 α      in ANC's #5, #2, #4, ...

........................................................................
.............................. CYCLE   55 ..............................
........................................................................
   1   -232.9188521 -0.232919E+03  0.854E-02    1.11       0.0  T
   2   -232.9188607 -0.858694E-05  0.486E-02    1.11       1.0  T
   3   -232.9188561  0.461360E-05  0.805E-03    1.11       1.1  T
   4   -232.9188637 -0.760319E-05  0.324E-03    1.11       2.7  T
   5   -232.9188641 -0.420960E-06  0.164E-03    1.11       5.3  T
   6   -232.9188644 -0.257814E-06  0.653E-04    1.11      13.3  T
   7   -232.9188644 -0.216516E-07  0.426E-04    1.11      20.5  T
     SCC iter.                  ...        0 min,  0.257 sec
     gradient                   ...        0 min,  0.286 sec
 * total energy  :  -229.1494083 Eh     change       -0.3157500E-03 Eh
   gradient norm :     0.0107567 Eh/α   predicted    -0.2803937E-03 ( -11.20%)
   displ. norm   :     0.6345973 α      lambda       -0.3686523E-03
   maximum displ.:     0.3839863 α      in ANC's #5, #2, #4, ...

........................................................................
.............................. CYCLE   56 ..............................
........................................................................
   1   -232.9166692 -0.232917E+03  0.759E-02    1.11       0.0  T
   2   -232.9166737 -0.446587E-05  0.435E-02    1.11       1.0  T
   3   -232.9166707  0.302062E-05  0.694E-03    1.11       1.3  T
   4   -232.9166754 -0.469706E-05  0.265E-03    1.11       3.3  T
   5   -232.9166755 -0.144581E-06  0.132E-03    1.11       6.6  T
   6   -232.9166757 -0.166378E-06  0.544E-04    1.11      16.0  T
   7   -232.9166757 -0.149921E-07  0.363E-04    1.11      24.0  T
     SCC iter.                  ...        0 min,  0.257 sec
     gradient                   ...        0 min,  0.285 sec
 * total energy  :  -229.1497358 Eh     change       -0.3274581E-03 Eh
   gradient norm :     0.0073777 Eh/α   predicted    -0.2585626E-03 ( -21.04%)
   displ. norm   :     0.6233435 α      lambda       -0.4133167E-03
   maximum displ.:     0.3844873 α      in ANC's #5, #2, #4, ...

........................................................................
.............................. CYCLE   57 ..............................
........................................................................
   1   -232.9200763 -0.232920E+03  0.751E-02    1.11       0.0  T
   2   -232.9200807 -0.446154E-05  0.430E-02    1.11       1.0  T
   3   -232.9200694  0.113150E-04  0.104E-02    1.11       1.0  T
   4   -232.9200828 -0.134439E-04  0.316E-03    1.11       2.8  T
   5   -232.9200831 -0.211281E-06  0.191E-03    1.11       4.6  T
   6   -232.9200834 -0.344809E-06  0.765E-04    1.11      11.4  T
   7   -232.9200834 -0.261111E-07  0.575E-04    1.11      15.1  T
     SCC iter.                  ...        0 min,  0.258 sec
     gradient                   ...        0 min,  0.284 sec
 * total energy  :  -229.1500660 Eh     change       -0.3301874E-03 Eh
   gradient norm :     0.0059483 Eh/α   predicted    -0.2869592E-03 ( -13.09%)
   displ. norm   :     0.7080593 α      lambda       -0.3693062E-03
   maximum displ.:     0.4353042 α      in ANC's #5, #2, #4, ...

........................................................................
.............................. CYCLE   58 ..............................
........................................................................
   1   -232.9162164 -0.232916E+03  0.767E-02    1.11       0.0  T
   2   -232.9162203 -0.389853E-05  0.441E-02    1.12       1.0  T
   3   -232.9162059  0.143917E-04  0.109E-02    1.11       1.0  T
[...]
    22   6 C    3.990 --    21 C    1.453    23 C    1.406    92 H    0.969
                            27 C    0.108
    23   6 C    3.987 --    26 C    1.413    22 C    1.406    24 C    1.013
                            20 C    0.105
    24   6 C    3.997 --    23 C    1.013    25 C    1.000    93 H    0.975
                            94 H    0.973
    25   6 C    3.995 --    24 C    1.000    96 H    0.988    97 H    0.988
                            95 H    0.986
    26   6 C    3.991 --    27 C    1.444    23 C    1.413    98 H    0.969
                            21 C    0.109
    27   6 C    3.991 --    26 C    1.444    20 C    1.414    99 H    0.968
                            22 C    0.108
    28   6 C    3.981 --    35 C    1.416    29 C    1.401    19 C    0.942
                            31 C    0.105
    29   6 C    3.989 --    30 C    1.455    28 C    1.401   100 H    0.964
                            34 C    0.109
    30   6 C    3.990 --    29 C    1.455    31 C    1.403   101 H    0.968
                            35 C    0.107
    31   6 C    3.985 --    34 C    1.415    30 C    1.403    32 C    1.013
                            28 C    0.105
    32   6 C    3.997 --    31 C    1.013    33 C    1.000   103 H    0.974
                           102 H    0.974
    33   6 C    3.996 --    32 C    1.000   106 H    0.988   104 H    0.988
                           105 H    0.986
    34   6 C    3.991 --    35 C    1.442    31 C    1.415   107 H    0.969
                            29 C    0.109
    35   6 C    3.991 --    34 C    1.442    28 C    1.416   108 H    0.967
                            30 C    0.107
    36   6 C    3.965 --    62 C    1.469    37 C    1.278    19 C    0.974
    37   6 C    3.957 --    40 C    1.346    36 C    1.278    38 C    1.151
    38   6 C    3.903 --    18 C    1.411    37 C    1.151    39 S    1.139
    39  16 S    2.549 --    38 C    1.139    15 C    1.098
    40   6 C    3.971 --    41 C    1.469    37 C    1.346   109 H    0.963
    41   6 C    3.965 --    40 C    1.469    61 C    1.278    42 C    0.973
    42   6 C    3.987 --    41 C    0.973    59 C    0.973    51 C    0.957
                            43 C    0.942
    43   6 C    3.981 --    44 C    1.416    50 C    1.401    42 C    0.942
                            46 C    0.105
    44   6 C    3.991 --    45 C    1.442    43 C    1.416   110 H    0.967
                            49 C    0.107
    45   6 C    3.991 --    44 C    1.442    46 C    1.414   111 H    0.969
                            50 C    0.109
    46   6 C    3.985 --    45 C    1.414    49 C    1.404    47 C    1.013
                            43 C    0.105
    47   6 C    3.997 --    46 C    1.013    48 C    1.000   112 H    0.974
                           113 H    0.974
    48   6 C    3.995 --    47 C    1.000   115 H    0.988   114 H    0.988
                           116 H    0.986
    49   6 C    3.990 --    50 C    1.455    46 C    1.404   117 H    0.968
                            44 C    0.107
    50   6 C    3.989 --    49 C    1.455    43 C    1.401   118 H    0.964
                            45 C    0.109
    51   6 C    3.983 --    52 C    1.414    58 C    1.403    42 C    0.957
                            54 C    0.105
    52   6 C    3.991 --    53 C    1.445    51 C    1.414   119 H    0.968
                            57 C    0.108
    53   6 C    3.991 --    52 C    1.445    54 C    1.413   120 H    0.969
                            58 C    0.109
    54   6 C    3.987 --    53 C    1.413    57 C    1.406    55 C    1.013
                            51 C    0.105
    55   6 C    3.997 --    54 C    1.013    56 C    1.000   122 H    0.974
                           121 H    0.974
    56   6 C    3.996 --    55 C    1.000   124 H    0.988   123 H    0.988
                           125 H    0.986
    57   6 C    3.990 --    58 C    1.452    54 C    1.406   126 H    0.969
                            52 C    0.108
    58   6 C    3.990 --    57 C    1.452    51 C    1.403   127 H    0.967
                            53 C    0.109
    59   6 C    3.960 --    60 C    1.411    65 C    1.306    42 C    0.973
    60   6 C    3.903 --    59 C    1.411    61 C    1.151    63 S    1.140
    61   6 C    3.957 --    62 C    1.346    41 C    1.278    60 C    1.151
    62   6 C    3.971 --    36 C    1.469    61 C    1.346   128 H    0.963
    63  16 S    2.550 --    60 C    1.140    64 C    1.098
    64   6 C    3.930 --    68 C    1.372    65 C    1.274    63 S    1.098
    65   6 C    3.937 --    59 C    1.306    64 C    1.274    66 S    1.153
    66  16 S    2.569 --    65 C    1.153    67 C    1.070
    67   6 C    3.930 --    68 C    1.408    69 C    1.273    66 S    1.070
    68   6 C    3.952 --    67 C    1.408    64 C    1.372   129 H    0.937
    69   6 C    3.944 --    70 C    1.531    67 C    1.273   130 H    0.941
    70   6 C    3.945 --    69 C    1.531    71 C    1.126    79 C    1.023
    71   6 C    3.972 --    72 C    1.486    70 C    1.126    77 C    1.094
    72   6 C    3.957 --    71 C    1.486    75 C    1.100    73 C    1.092
    73   6 C    3.946 --    74 N    2.773    72 C    1.092
    74   7 N    2.972 --    73 C    2.773
    75   6 C    3.946 --    76 N    2.756    72 C    1.100
    76   7 N    2.962 --    75 C    2.756
    77   6 C    3.972 --    78 C    1.393    86 C    1.273    71 C    1.094
    78   6 C    3.924 --    77 C    1.393    84 S    1.185    79 C    1.063
    79   6 C    3.928 --    80 O    1.732    78 C    1.063    70 C    1.023
    80   8 O    2.050 --    79 C    1.732
    81  16 S    2.674 --     3 C    1.185    82 C    1.168
    82   6 C    3.877 --    83 C    1.539    81 S    1.168    88 Cl   1.029
    83   6 C    3.974 --    82 C    1.539     4 C    1.273   131 H    0.953
    84  16 S    2.674 --    78 C    1.185    85 C    1.168
    85   6 C    3.877 --    86 C    1.539    84 S    1.168    87 Cl   1.029
    86   6 C    3.974 --    85 C    1.539    77 C    1.273   132 H    0.953
    87  17 Cl   1.184 --    85 C    1.029
    88  17 Cl   1.184 --    82 C    1.029
    89   1 H    0.993 --    12 C    0.940
    90   1 H    0.988 --    14 C    0.937
    91   1 H    0.999 --    21 C    0.967
    92   1 H    0.998 --    22 C    0.969
    93   1 H    0.998 --    24 C    0.975
    94   1 H    0.998 --    24 C    0.973
    95   1 H    0.998 --    25 C    0.986
    96   1 H    0.999 --    25 C    0.988
    97   1 H    0.999 --    25 C    0.988
    98   1 H    0.998 --    26 C    0.969
    99   1 H    0.999 --    27 C    0.968
   100   1 H    0.998 --    29 C    0.964
   101   1 H    0.998 --    30 C    0.968
   102   1 H    0.998 --    32 C    0.974
   103   1 H    0.998 --    32 C    0.974
   104   1 H    0.999 --    33 C    0.988
   105   1 H    0.998 --    33 C    0.986
   106   1 H    0.999 --    33 C    0.988
   107   1 H    0.998 --    34 C    0.969
   108   1 H    0.999 --    35 C    0.967
   109   1 H    0.996 --    40 C    0.963
   110   1 H    0.999 --    44 C    0.967
   111   1 H    0.998 --    45 C    0.969
   112   1 H    0.998 --    47 C    0.974
   113   1 H    0.998 --    47 C    0.974
   114   1 H    0.999 --    48 C    0.988
   115   1 H    0.999 --    48 C    0.988
   116   1 H    0.998 --    48 C    0.986
   117   1 H    0.998 --    49 C    0.968
   118   1 H    0.998 --    50 C    0.964
   119   1 H    0.999 --    52 C    0.968
   120   1 H    0.998 --    53 C    0.969
   121   1 H    0.998 --    55 C    0.974
   122   1 H    0.998 --    55 C    0.974
   123   1 H    0.999 --    56 C    0.988
   124   1 H    0.999 --    56 C    0.988
   125   1 H    0.998 --    56 C    0.986
   126   1 H    0.998 --    57 C    0.969
   127   1 H    0.999 --    58 C    0.967
   128   1 H    0.996 --    62 C    0.963
   129   1 H    0.988 --    68 C    0.937
   130   1 H    0.993 --    69 C    0.941
   131   1 H    0.992 --    83 C    0.953
   132   1 H    0.992 --    86 C    0.953
 ---------------------------------------------------------------------------

Topologies differ in bond orders
Writing corrected topology to xtbtopo.mol

molecular dipole:
                 x           y           z       tot (Debye)
 q only:       -0.567       0.651       0.363
   full:       -0.390       0.385       0.171       1.460
molecular quadrupole (traceless):
                xx          xy          yy          xz          yz          zz
 q only:      -84.130     -77.849      42.735     -68.196     -20.499      41.394
  q+dip:      -74.178     -91.201      16.843     -30.933      -9.365      57.335
   full:      -73.906     -96.349      17.290     -31.406      -4.075      56.615

           -------------------------------------------------
          |                Geometry Summary                 |
           -------------------------------------------------

      molecular mass/u    :     1284.4640719
   center of mass at/Å    :        0.4494282      -0.1805580      -0.0156569
  moments of inertia/u·Å² :        0.1673793E+05   0.8582151E+05   0.8917970E+05
rotational constants/cm⁻¹ :        0.1007152E-02   0.1964267E-03   0.1890299E-03

 * 122 selected distances

     #   Z          #   Z                                           value/Å
     1   6 C        2   8 O                                       1.2131828
     3   6 C        4   6 C                                       1.3859647
     4   6 C        5   6 C                                       1.4510043
     5   6 C        6   6 C                                       1.3703983
     7   6 C        8   7 N                                       1.1473247
     9   6 C       10   7 N                                       1.1487307
    11   6 C       12   6 C                                       1.3687849
    12   6 C       13   6 C                                       1.4067322
    13   6 C       14   6 C                                       1.3869249
    14   6 C       15   6 C                                       1.3862152
    15   6 C       16   6 C                                       1.4120358
    16   6 C       17  16 S                                       1.7157355
    16   6 C       18   6 C                                       1.3915335
    20   6 C       21   6 C                                       1.3893596
    21   6 C       22   6 C                                       1.3812426
    22   6 C       23   6 C                                       1.3891709
    24   6 C       25   6 C                                       1.5301805
    23   6 C       26   6 C                                       1.3879563
    20   6 C       27   6 C                                       1.3871648
    26   6 C       27   6 C                                       1.3828890
    28   6 C       29   6 C                                       1.3899549
    29   6 C       30   6 C                                       1.3808057
    30   6 C       31   6 C                                       1.3896885
    32   6 C       33   6 C                                       1.5301519
    31   6 C       34   6 C                                       1.3877468
    28   6 C       35   6 C                                       1.3866354
    34   6 C       35   6 C                                       1.3837196
    36   6 C       37   6 C                                       1.4157952
    18   6 C       38   6 C                                       1.3858846
    37   6 C       38   6 C                                       1.4295429
    15   6 C       39  16 S                                       1.7420099
    38   6 C       39  16 S                                       1.7297532
    37   6 C       40   6 C                                       1.3924624
    40   6 C       41   6 C                                       1.3750623
    43   6 C       44   6 C                                       1.3866974
    44   6 C       45   6 C                                       1.3836600
    45   6 C       46   6 C                                       1.3878319
    47   6 C       48   6 C                                       1.5300971
    46   6 C       49   6 C                                       1.3896442
    43   6 C       50   6 C                                       1.3899371
    49   6 C       50   6 C                                       1.3808740
    51   6 C       52   6 C                                       1.3871741
    52   6 C       53   6 C                                       1.3828643
    53   6 C       54   6 C                                       1.3880800
    55   6 C       56   6 C                                       1.5301298
    54   6 C       57   6 C                                       1.3890586
    51   6 C       58   6 C                                       1.3893258
    57   6 C       58   6 C                                       1.3813510
    59   6 C       60   6 C                                       1.3859796
    41   6 C       61   6 C                                       1.4156399
    60   6 C       61   6 C                                       1.4292893
    36   6 C       62   6 C                                       1.3749425
    61   6 C       62   6 C                                       1.3923793
    60   6 C       63  16 S                                       1.7293872
    63  16 S       64   6 C                                       1.7416807
    59   6 C       65   6 C                                       1.3917823
    64   6 C       65   6 C                                       1.4120766
    65   6 C       66  16 S                                       1.7160412
    64   6 C       68   6 C                                       1.3861350
    67   6 C       68   6 C                                       1.3867812
    67   6 C       69   6 C                                       1.4068146
    69   6 C       70   6 C                                       1.3688080
    71   6 C       72   6 C                                       1.3702921
    73   6 C       74   7 N                                       1.1473179
    75   6 C       76   7 N                                       1.1486926
    71   6 C       77   6 C                                       1.4509818
    77   6 C       78   6 C                                       1.3859178
    79   6 C       80   8 O                                       1.2131549
     3   6 C       81  16 S                                       1.7110620
    81  16 S       82   6 C                                       1.7433473
     4   6 C       83   6 C                                       1.4066352
    82   6 C       83   6 C                                       1.3685628
    78   6 C       84  16 S                                       1.7110788
    84  16 S       85   6 C                                       1.7434214 (max)
    77   6 C       86   6 C                                       1.4066396
    85   6 C       86   6 C                                       1.3685651
    85   6 C       87  17 Cl                                      1.7023855
    82   6 C       88  17 Cl                                      1.7024095
    12   6 C       89   1 H                                       1.0840986
    14   6 C       90   1 H                                       1.0740839
    21   6 C       91   1 H                                       1.0805961
    22   6 C       92   1 H                                       1.0806512
    24   6 C       93   1 H                                       1.0917247
    24   6 C       94   1 H                                       1.0919242
    25   6 C       95   1 H                                       1.0873982
    25   6 C       96   1 H                                       1.0876636
    25   6 C       97   1 H                                       1.0876485
    26   6 C       98   1 H                                       1.0806618
    27   6 C       99   1 H                                       1.0805646
    29   6 C      100   1 H                                       1.0805087
    30   6 C      101   1 H                                       1.0802974
    32   6 C      102   1 H                                       1.0916846
    32   6 C      103   1 H                                       1.0918178
    33   6 C      104   1 H                                       1.0876607
    33   6 C      105   1 H                                       1.0874052
    33   6 C      106   1 H                                       1.0878366
    34   6 C      107   1 H                                       1.0807865
    35   6 C      108   1 H                                       1.0802145
    40   6 C      109   1 H                                       1.0789642
    44   6 C      110   1 H                                       1.0802290
    45   6 C      111   1 H                                       1.0807994
    47   6 C      112   1 H                                       1.0918924
    47   6 C      113   1 H                                       1.0916554
    48   6 C      114   1 H                                       1.0876519
    48   6 C      115   1 H                                       1.0877941
    48   6 C      116   1 H                                       1.0874044
    49   6 C      117   1 H                                       1.0802899
    50   6 C      118   1 H                                       1.0805227
    52   6 C      119   1 H                                       1.0805633
    53   6 C      120   1 H                                       1.0806536
    55   6 C      121   1 H                                       1.0917931
    55   6 C      122   1 H                                       1.0916588
    56   6 C      123   1 H                                       1.0877357
    56   6 C      124   1 H                                       1.0877947
    56   6 C      125   1 H                                       1.0874027
    57   6 C      126   1 H                                       1.0806699
    58   6 C      127   1 H                                       1.0805962
    62   6 C      128   1 H                                       1.0789441
    68   6 C      129   1 H                                       1.0740601
    69   6 C      130   1 H                                       1.0841347
    83   6 C      131   1 H                                       1.0736775 (min)
    86   6 C      132   1 H                                       1.0736842

 * 6 distinct bonds (by element types)

   Z      Z             #   av. dist./Å        max./Å        min./Å
   1 H    6 C          44     1.0839954     1.0919242     1.0736775
   6 C    6 C          60     1.4009993     1.5301805     1.3685628
   6 C    7 N           4     1.1480165     1.1487307     1.1473179
   6 C    8 O           2     1.2131689     1.2131828     1.2131549
   6 C   16 S          10     1.7283517     1.7434214     1.7110620
   6 C   17 Cl          2     1.7023975     1.7024095     1.7023855


optimized geometry written to: xtbopt.mol


           -------------------------------------------------
          | TOTAL ENERGY             -229.158699271807 Eh   |
          | GRADIENT NORM               0.000399321061 Eh/α |
          | HOMO-LUMO GAP               1.141922112380 eV   |
           -------------------------------------------------

------------------------------------------------------------------------
 * finished run on 2021/12/20 at 13:55:04.077     
------------------------------------------------------------------------
 total:
 * wall-time:     0 d,  0 h,  1 min, 36.474 sec
 *  cpu-time:     0 d,  0 h,  1 min, 36.246 sec
 * ratio c/w:     0.998 speedup
 SCF:
 * wall-time:     0 d,  0 h,  0 min,  0.968 sec
 *  cpu-time:     0 d,  0 h,  0 min,  0.966 sec
 * ratio c/w:     0.998 speedup
 ANC optimizer:
 * wall-time:     0 d,  0 h,  1 min, 35.420 sec
 *  cpu-time:     0 d,  0 h,  1 min, 35.195 sec
 * ratio c/w:     0.998 speedup

