      -----------------------------------------------------------      
     |                   =====================                   |     
     |                           x T B                           |     
     |                   =====================                   |     
     |                         S. Grimme                         |     
     |          Mulliken Center for Theoretical Chemistry        |     
     |                    University of Bonn                     |     
      -----------------------------------------------------------      

   * xtb version 6.4.1 (unknown) compiled by 'oda6@login1.crc.pitt.edu' on 2021-06-25

   xtb is free software: you can redistribute it and/or modify it under
   the terms of the GNU Lesser General Public License as published by
   the Free Software Foundation, either version 3 of the License, or
   (at your option) any later version.
   
   xtb is distributed in the hope that it will be useful,
   but WITHOUT ANY WARRANTY; without even the implied warranty of
   MERCHANTABILITY or FITNESS FOR A PARTICULAR PURPOSE.  See the
   GNU Lesser General Public License for more details.
   
   Cite this work as:
   * C. Bannwarth, E. Caldeweyher, S. Ehlert, A. Hansen, P. Pracht,
     J. Seibert, S. Spicher, S. Grimme, WIREs Comput. Mol. Sci., 2020, 11,
     e01493. DOI: 10.1002/wcms.1493
   
   for GFN2-xTB:
   * C. Bannwarth, S. Ehlert and S. Grimme., J. Chem. Theory Comput., 2019,
     15, 1652-1671. DOI: 10.1021/acs.jctc.8b01176
   for GFN1-xTB:
   * S. Grimme, C. Bannwarth, P. Shushkov, J. Chem. Theory Comput., 2017,
     13, 1989-2009. DOI: 10.1021/acs.jctc.7b00118
   for GFN0-xTB:
   * P. Pracht, E. Caldeweyher, S. Ehlert, S. Grimme, ChemRxiv, 2019, preprint.
     DOI: 10.26434/chemrxiv.8326202.v1
   for GFN-FF:
   * S. Spicher and S. Grimme, Angew. Chem. Int. Ed., 2020, 59, 15665-15673.
     DOI: 10.1002/anie.202004239
   
   for DFT-D4:
   * E. Caldeweyher, C. Bannwarth and S. Grimme, J. Chem. Phys., 2017,
     147, 034112. DOI: 10.1063/1.4993215
   * E. Caldeweyher, S. Ehlert, A. Hansen, H. Neugebauer, S. Spicher,
     C. Bannwarth and S. Grimme, J. Chem. Phys., 2019, 150, 154122.
     DOI: 10.1063/1.5090222
   * E. Caldeweyher, J.-M. Mewes, S. Ehlert and S. Grimme, Phys. Chem. Chem. Phys.
     2020, 22, 8499-8512. DOI: 10.1039/D0CP00502A
   
   for sTDA-xTB:
   * S. Grimme and C. Bannwarth, J. Chem. Phys., 2016, 145, 054103.
     DOI: 10.1063/1.4959605
   
   in the mass-spec context:
   * V. Asgeirsson, C. Bauer and S. Grimme, Chem. Sci., 2017, 8, 4879.
     DOI: 10.1039/c7sc00601b
   * J. Koopman and S. Grimme, ACS Omega 2019, 4, 12, 15120-15133.
     DOI: 10.1021/acsomega.9b02011
   
   for metadynamics refer to:
   * S. Grimme, J. Chem. Theory Comput., 2019, 155, 2847-2862
     DOI: 10.1021/acs.jctc.9b00143
   
   for SPH calculations refer to:
   * S. Spicher and S. Grimme, J. Chem. Theory Comput., 2021, 17, 1701-1714
     DOI: 10.1021/acs.jctc.0c01306
   
   with help from (in alphabetical order)
   P. Atkinson, C. Bannwarth, F. Bohle, G. Brandenburg, E. Caldeweyher
   M. Checinski, S. Dohm, S. Ehlert, S. Ehrlich, I. Gerasimov, J. Koopman
   C. Lavigne, S. Lehtola, F. März, M. Müller, F. Musil, H. Neugebauer
   J. Pisarek, C. Plett, P. Pracht, J. Seibert, P. Shushkov, S. Spicher
   M. Stahn, M. Steiner, T. Strunk, J. Stückrath, T. Rose, and J. Unsleber
   
 * started run on 2021/12/20 at 13:52:55.189     

           -------------------------------------------------
          |                Calculation Setup                |
           -------------------------------------------------

          program call               : /ihome/ghutchison/oda6/xtb/xtb-641/bin//xtb OCH3-2F.mol -opt
          hostname                   : smp-n145
          coordinate file            : OCH3-2F.mol
          omp threads                :                     1
          number of atoms            :                   138
          number of electrons        :                   452
          charge                     :                     0
          spin                       :                   0.0
          first test random number   :      0.36674660126374

   ID    Z sym.   atoms
    1    6 C      1, 3-11, 13, 15, 17, 19, 21-29, 31, 33, 35, 37-41, 43-47,
                  50, 51, 53-64, 66-78, 80-84, 89-92
    2    8 O      2, 20, 85-88
    3    7 N      12, 14, 30, 32, 52, 65
    4    9 F      16, 18, 34, 36
    5   16 S      42, 48, 49, 79
    6    1 H      93-138
########################################################################
[WARNING] Please study the warnings concerning your input carefully
-1- prog_main_parseArguments: the use of '-opt' is discouraged, please use '--opt' next time
########################################################################

           -------------------------------------------------
          |                 G F N 2 - x T B                 |
           -------------------------------------------------

        Reference                      10.1021/acs.jctc.8b01176
      * Hamiltonian:
        H0-scaling (s, p, d)           1.850000    2.230000    2.230000
        zeta-weighting                 0.500000
      * Dispersion:
        s8                             2.700000
        a1                             0.520000
        a2                             5.000000
        s9                             5.000000
      * Repulsion:
        kExp                           1.500000    1.000000
        rExp                           1.000000
      * Coulomb:
        alpha                          2.000000
        third order                    shell-resolved
        anisotropic                    true
        a3                             3.000000
        a5                             4.000000
        cn-shift                       1.200000
        cn-exp                         4.000000
        max-rad                        5.000000


          ...................................................
          :                      SETUP                      :
          :.................................................:
          :  # basis functions                 438          :
          :  # atomic orbitals                 434          :
          :  # shells                          234          :
          :  # electrons                       452          :
          :  max. iterations                   250          :
          :  Hamiltonian                  GFN2-xTB          :
          :  restarted?                      false          :
          :  GBSA solvation                  false          :
          :  PC potential                    false          :
          :  electronic temp.          300.0000000     K    :
          :  accuracy                    1.0000000          :
          :  -> integral cutoff          0.2500000E+02      :
          :  -> integral neglect         0.1000000E-07      :
          :  -> SCF convergence          0.1000000E-05 Eh   :
          :  -> wf. convergence          0.1000000E-03 e    :
          :  Broyden damping             0.4000000          :
          ...................................................

 iter      E             dE          RMSdq      gap      omega  full diag
   1   -254.4332742 -0.254433E+03  0.488E+00    1.12       0.0  T
   2   -254.5752263 -0.141952E+00  0.296E+00    0.88       1.0  T
   3   -254.1660637  0.409163E+00  0.211E+00    0.05       1.0  T
   4   -254.6609292 -0.494865E+00  0.785E-01    0.71       1.0  T
   5   -254.7513405 -0.904114E-01  0.267E-01    0.37       1.0  T
   6   -254.7564297 -0.508918E-02  0.119E-01    0.43       1.0  T
   7   -254.7567050 -0.275336E-03  0.874E-02    0.22       1.0  T
   8   -254.7573512 -0.646113E-03  0.444E-02    0.26       1.0  T
   9   -254.7574369 -0.857199E-04  0.239E-02    0.20       1.0  T
  10   -254.7575111 -0.741772E-04  0.133E-02    0.25       1.0  T
  11   -254.7575513 -0.402018E-04  0.525E-03    0.22       1.6  T
  12   -254.7575546 -0.329763E-05  0.266E-03    0.23       3.2  T
  13   -254.7575552 -0.692753E-06  0.114E-03    0.23       7.4  T
  14   -254.7575554 -0.142473E-06  0.539E-04    0.23      15.8  T
  15   -254.7575554 -0.240779E-07  0.314E-04    0.23      27.1  T

   *** convergence criteria satisfied after 15 iterations ***

         #    Occupation            Energy/Eh            Energy/eV
      -------------------------------------------------------------
         1        2.0000           -0.8521622             -23.1885
       ...           ...                  ...                  ...
       220        2.0000           -0.4006521             -10.9023
       221        2.0000           -0.3974424             -10.8150
       222        2.0000           -0.3916608             -10.6576
       223        2.0000           -0.3910529             -10.6411
       224        2.0000           -0.3863175             -10.5122
       225        1.9975           -0.3585812              -9.7575
       226        1.9765           -0.3564325              -9.6990 (HOMO)
       227        0.0260           -0.3481108              -9.4726 (LUMO)
       228        0.0000           -0.3406077              -9.2684
       229        0.0000           -0.3389930              -9.2245
       230                         -0.3323020              -9.0424
       231                         -0.2943459              -8.0096
       ...                                ...                  ...
       434                          1.0735052              29.2116
      -------------------------------------------------------------
                  HL-Gap            0.0083217 Eh            0.2264 eV
             Fermi-level           -0.3522238 Eh           -9.5845 eV

 SCC (total)                   0 d,  0 h,  0 min,  0.721 sec
 SCC setup                      ...        0 min,  0.002 sec (  0.285%)
 Dispersion                     ...        0 min,  0.006 sec (  0.843%)
 classical contributions        ...        0 min,  0.001 sec (  0.096%)
 integral evaluation            ...        0 min,  0.061 sec (  8.502%)
 iterations                     ...        0 min,  0.390 sec ( 54.052%)
 molecular gradient             ...        0 min,  0.258 sec ( 35.730%)
 printout                       ...        0 min,  0.004 sec (  0.485%)

         :::::::::::::::::::::::::::::::::::::::::::::::::::::
         ::                     SUMMARY                     ::
         :::::::::::::::::::::::::::::::::::::::::::::::::::::
         :: total energy            -251.229324347162 Eh    ::
         :: gradient norm              0.269012101421 Eh/a0 ::
         :: HOMO-LUMO gap              0.226444399014 eV    ::
         ::.................................................::
         :: SCC energy              -254.757555414958 Eh    ::
         :: -> isotropic ES            0.199385415932 Eh    ::
         :: -> anisotropic ES          0.023590655310 Eh    ::
         :: -> anisotropic XC          0.127657862824 Eh    ::
         :: -> dispersion             -0.213788976207 Eh    ::
         :: repulsion energy           3.524043722656 Eh    ::
         :: add. restraining           0.000000000000 Eh    ::
         :: total charge               0.000000000000 e     ::
         :::::::::::::::::::::::::::::::::::::::::::::::::::::

      ----------------------------------------------------------- 
     |                   =====================                   |
     |                        A N C O P T                        |
     |                   =====================                   |
     |               Approximate Normal Coordinate               |
     |                Rational Function Optimizer                |
      ----------------------------------------------------------- 

          ...................................................
          :                      SETUP                      :
          :.................................................:
          :   optimization level            normal          :
          :   max. optcycles                   414          :
          :   ANC micro-cycles                  20          :
          :   degrees of freedom               408          :
          :.................................................:
          :   RF solver                   davidson          :
          :   write xtbopt.log                true          :
          :   linear?                        false          :
          :   energy convergence         0.5000000E-05 Eh   :
          :   grad. convergence          0.1000000E-02 Eh/α :
          :   maximium RF displ.         1.0000000          :
          :   Hlow (freq-cutoff)         0.1000000E-01      :
          :   Hmax (freq-cutoff)         5.0000000          :
          :   S6 in model hess.         20.0000000          :
          ...................................................

generating ANC from model Hessian ...
Using Lindh-Hessian (1995)
 Shifting diagonal of input Hessian by   1.007058832017423E-002
 Lowest  eigenvalues of input Hessian
    0.010000    0.010059    0.000000    0.000000    0.000000    0.000000
    0.000000    0.000000    0.010081    0.010101    0.010117    0.010123
    0.010139    0.010153    0.010176    0.010200    0.010238    0.010284
 Highest eigenvalues
    2.139679    2.151437    2.505310    2.507438    2.561944    2.562089
 

........................................................................
.............................. CYCLE    1 ..............................
........................................................................
   1   -254.7575554 -0.254758E+03  0.137E-04    0.23       0.0  T
   2   -254.7575554  0.111675E-08  0.120E-04    0.23      70.8  T
   3   -254.7575554 -0.229736E-08  0.682E-05    0.23     124.8  T
     SCC iter.                  ...        0 min,  0.101 sec
     gradient                   ...        0 min,  0.275 sec
 * total energy  :  -251.2293244 Eh     change       -0.1733687E-07 Eh
   gradient norm :     0.2690073 Eh/α   predicted     0.0000000E+00 (-100.00%)
   displ. norm   :     0.4525320 α      lambda       -0.7905103E-01
   maximum displ.:     0.1163811 α      in ANC's #214, #122, #268, ...

........................................................................
.............................. CYCLE    2 ..............................
........................................................................
   1   -254.9176069 -0.254918E+03  0.260E-01    0.23       0.0  T
   2   -254.9188547 -0.124783E-02  0.161E-01    0.32       1.0  T
   3   -254.9184436  0.411122E-03  0.996E-02    0.20       1.0  T
   4   -254.9188345 -0.390916E-03  0.589E-02    0.35       1.0  T
   5   -254.9196159 -0.781375E-03  0.200E-02    0.28       1.0  T
   6   -254.9196488 -0.329424E-04  0.776E-03    0.26       1.1  T
   7   -254.9196509 -0.203701E-05  0.439E-03    0.25       1.9  T
   8   -254.9196529 -0.205799E-05  0.226E-03    0.26       3.8  T
   9   -254.9196533 -0.327450E-06  0.117E-03    0.25       7.3  T
  10   -254.9196533 -0.780225E-07  0.633E-04    0.26      13.4  T
  11   -254.9196534 -0.342620E-07  0.324E-04    0.26      26.3  T
     SCC iter.                  ...        0 min,  0.296 sec
     gradient                   ...        0 min,  0.267 sec
 * total energy  :  -251.2867649 Eh     change       -0.5744057E-01 Eh
   gradient norm :     0.1302024 Eh/α   predicted    -0.4767585E-01 ( -17.00%)
   displ. norm   :     0.5029318 α      lambda       -0.3572517E-01
   maximum displ.:     0.1188378 α      in ANC's #77, #103, #122, ...

........................................................................
.............................. CYCLE    3 ..............................
........................................................................
   1   -255.0133366 -0.255013E+03  0.249E-01    0.18       0.0  T
   2   -255.0142609 -0.924349E-03  0.155E-01    0.43       1.0  T
   3   -255.0142984 -0.374289E-04  0.112E-01    0.21       1.0  T
   4   -255.0153399 -0.104154E-02  0.586E-02    0.32       1.0  T
   5   -255.0159808 -0.640868E-03  0.189E-02    0.27       1.0  T
   6   -255.0160076 -0.268500E-04  0.782E-03    0.26       1.1  T
   7   -255.0160123 -0.472271E-05  0.399E-03    0.26       2.1  T
   8   -255.0160137 -0.137829E-05  0.189E-03    0.26       4.5  T
   9   -255.0160139 -0.233247E-06  0.987E-04    0.26       8.6  T
  10   -255.0160140 -0.572936E-07  0.471E-04    0.26      18.1  T
     SCC iter.                  ...        0 min,  0.270 sec
     gradient                   ...        0 min,  0.259 sec
 * total energy  :  -251.3086506 Eh     change       -0.2188564E-01 Eh
   gradient norm :     0.0433828 Eh/α   predicted    -0.2238079E-01 (   2.26%)
   displ. norm   :     0.6096414 α      lambda       -0.1339989E-01
   maximum displ.:     0.1649458 α      in ANC's #31, #44, #59, ...

........................................................................
.............................. CYCLE    4 ..............................
........................................................................
   1   -255.0491624 -0.255049E+03  0.293E-01    0.21       0.0  T
   2   -255.0493679 -0.205490E-03  0.170E-01    0.34       1.0  T
   3   -255.0346410  0.147270E-01  0.186E-01    0.11       1.0  T
   4   -255.0488331 -0.141922E-01  0.633E-02    0.47       1.0  T
   5   -255.0496091 -0.775923E-03  0.360E-02    0.42       1.0  T
   6   -255.0496949 -0.858276E-04  0.267E-02    0.39       1.0  T
   7   -255.0498167 -0.121863E-03  0.186E-02    0.34       1.0  T
   8   -255.0498682 -0.514377E-04  0.128E-02    0.31       1.0  T
   9   -255.0499063 -0.381096E-04  0.545E-03    0.28       1.6  T
  10   -255.0499143 -0.797683E-05  0.168E-03    0.26       5.1  T
  11   -255.0499145 -0.226039E-06  0.739E-04    0.26      11.5  T
  12   -255.0499145 -0.291302E-07  0.367E-04    0.26      23.2  T
     SCC iter.                  ...        0 min,  0.309 sec
     gradient                   ...        0 min,  0.266 sec
 * total energy  :  -251.3130142 Eh     change       -0.4363617E-02 Eh
   gradient norm :     0.0457788 Eh/α   predicted    -0.9190102E-02 ( 110.61%)
   displ. norm   :     0.5589239 α      lambda       -0.1254191E-01
   maximum displ.:     0.1493190 α      in ANC's #37, #18, #49, ...

........................................................................
.............................. CYCLE    5 ..............................
........................................................................
   1   -255.0845150 -0.255085E+03  0.314E-01    0.23       0.0  T
   2   -255.0847022 -0.187189E-03  0.176E-01    0.29       1.0  T
   3   -255.0816195  0.308270E-02  0.931E-02    0.16       1.0  T
   4   -255.0845735 -0.295402E-02  0.307E-02    0.35       1.0  T
   5   -255.0848314 -0.257962E-03  0.136E-02    0.30       1.0  T
   6   -255.0848584 -0.269996E-04  0.689E-03    0.28       1.2  T
   7   -255.0848697 -0.112469E-04  0.323E-03    0.26       2.6  T
   8   -255.0848701 -0.394711E-06  0.192E-03    0.25       4.4  T
   9   -255.0848704 -0.372561E-06  0.912E-04    0.26       9.3  T
  10   -255.0848705 -0.868056E-07  0.386E-04    0.26      22.1  T
     SCC iter.                  ...        0 min,  0.256 sec
     gradient                   ...        0 min,  0.257 sec
 * total energy  :  -251.3195286 Eh     change       -0.6514451E-02 Eh
   gradient norm :     0.0329216 Eh/α   predicted    -0.8229976E-02 (  26.33%)
   displ. norm   :     0.4705589 α      lambda       -0.4906252E-02
   maximum displ.:     0.1566702 α      in ANC's #47, #31, #44, ...

........................................................................
.............................. CYCLE    6 ..............................
........................................................................
   1   -255.0775830 -0.255078E+03  0.230E-01    0.23       0.0  T
   2   -255.0776304 -0.474531E-04  0.130E-01    0.29       1.0  T
   3   -255.0731417  0.448869E-02  0.106E-01    0.15       1.0  T
   4   -255.0776094 -0.446770E-02  0.252E-02    0.33       1.0  T
   5   -255.0777494 -0.139996E-03  0.119E-02    0.30       1.0  T
   6   -255.0777760 -0.265560E-04  0.676E-03    0.27       1.3  T
   7   -255.0777891 -0.130601E-04  0.307E-03    0.26       2.8  T
   8   -255.0777898 -0.753581E-06  0.149E-03    0.25       5.7  T
   9   -255.0777899 -0.115837E-06  0.791E-04    0.25      10.8  T
  10   -255.0777900 -0.585342E-07  0.365E-04    0.25      23.3  T
     SCC iter.                  ...        0 min,  0.269 sec
     gradient                   ...        0 min,  0.264 sec
 * total energy  :  -251.3217425 Eh     change       -0.2213847E-02 Eh
   gradient norm :     0.0397795 Eh/α   predicted    -0.2996335E-02 (  35.35%)
   displ. norm   :     0.5285580 α      lambda       -0.5669009E-02
   maximum displ.:     0.2220110 α      in ANC's #31, #33, #52, ...

........................................................................
.............................. CYCLE    7 ..............................
........................................................................
   1   -255.0902138 -0.255090E+03  0.182E-01    0.25       0.0  T
   2   -255.0902816 -0.677861E-04  0.104E-01    0.28       1.0  T
   3   -255.0895966  0.685042E-03  0.545E-02    0.22       1.0  T
   4   -255.0902984 -0.701829E-03  0.146E-02    0.29       1.0  T
   5   -255.0903474 -0.490133E-04  0.529E-03    0.26       1.6  T
   6   -255.0903502 -0.277616E-05  0.241E-03    0.26       3.5  T
   7   -255.0903506 -0.377619E-06  0.100E-03    0.26       8.5  T
   8   -255.0903506 -0.253841E-07  0.551E-04    0.26      15.5  T
   9   -255.0903506 -0.334193E-07  0.264E-04    0.26      32.2  T
     SCC iter.                  ...        0 min,  0.231 sec
     gradient                   ...        0 min,  0.259 sec
 * total energy  :  -251.3245466 Eh     change       -0.2804091E-02 Eh
   gradient norm :     0.0292534 Eh/α   predicted    -0.3626394E-02 (  29.33%)
   displ. norm   :     0.4559925 α      lambda       -0.2667559E-02
   maximum displ.:     0.1952361 α      in ANC's #31, #33, #47, ...

........................................................................
.............................. CYCLE    8 ..............................
........................................................................
   1   -255.1045634 -0.255105E+03  0.122E-01    0.26       0.0  T
   2   -255.1045858 -0.224442E-04  0.714E-02    0.30       1.0  T
   3   -255.1037831  0.802751E-03  0.547E-02    0.21       1.0  T
   4   -255.1046210 -0.837917E-03  0.145E-02    0.30       1.0  T
   5   -255.1046721 -0.510655E-04  0.452E-03    0.28       1.9  T
   6   -255.1046737 -0.164922E-05  0.224E-03    0.27       3.8  T
   7   -255.1046740 -0.303634E-06  0.113E-03    0.27       7.5  T
   8   -255.1046741 -0.660014E-07  0.643E-04    0.27      13.2  T
   9   -255.1046741 -0.283707E-07  0.321E-04    0.27      26.5  T
     SCC iter.                  ...        0 min,  0.232 sec
     gradient                   ...        0 min,  0.257 sec
 * total energy  :  -251.3261645 Eh     change       -0.1617910E-02 Eh
   gradient norm :     0.0219195 Eh/α   predicted    -0.1611113E-02 (  -0.42%)
   displ. norm   :     0.5476649 α      lambda       -0.2543661E-02
   maximum displ.:     0.2650305 α      in ANC's #31, #33, #26, ...

........................................................................
.............................. CYCLE    9 ..............................
........................................................................
   1   -255.1136812 -0.255114E+03  0.184E-01    0.25       0.0  T
   2   -255.1137150 -0.337626E-04  0.104E-01    0.31       1.0  T
   3   -255.1118717  0.184321E-02  0.788E-02    0.19       1.0  T
   4   -255.1137972 -0.192550E-02  0.148E-02    0.31       1.0  T
   5   -255.1138479 -0.506211E-04  0.539E-03    0.29       1.6  T
   6   -255.1138501 -0.219027E-05  0.286E-03    0.28       3.0  T
   7   -255.1138507 -0.662080E-06  0.149E-03    0.28       5.7  T
   8   -255.1138508 -0.102994E-06  0.872E-04    0.28       9.8  T
   9   -255.1138509 -0.635223E-07  0.431E-04    0.28      19.7  T
     SCC iter.                  ...        0 min,  0.232 sec
     gradient                   ...        0 min,  0.257 sec
 * total energy  :  -251.3266524 Eh     change       -0.4879478E-03 Eh
   gradient norm :     0.0407312 Eh/α   predicted    -0.1653311E-02 ( 238.83%)
   displ. norm   :     0.3278763 α      lambda       -0.2729629E-02
   maximum displ.:     0.1451125 α      in ANC's #31, #18, #33, ...

........................................................................
.............................. CYCLE   10 ..............................
........................................................................
   1   -255.1193705 -0.255119E+03  0.128E-01    0.29       0.0  T
   2   -255.1194319 -0.613932E-04  0.726E-02    0.30       1.0  T
   3   -255.1191984  0.233444E-03  0.365E-02    0.27       1.0  T
   4   -255.1194453 -0.246895E-03  0.111E-02    0.30       1.0  T
   5   -255.1194692 -0.239070E-04  0.374E-03    0.29       2.3  T
   6   -255.1194705 -0.130311E-05  0.179E-03    0.29       4.8  T
   7   -255.1194708 -0.232963E-06  0.706E-04    0.29      12.1  T
   8   -255.1194708 -0.275888E-07  0.336E-04    0.29      25.3  T
     SCC iter.                  ...        0 min,  0.207 sec
     gradient                   ...        0 min,  0.257 sec
 * total energy  :  -251.3281405 Eh     change       -0.1488049E-02 Eh
   gradient norm :     0.0169353 Eh/α   predicted    -0.1511540E-02 (   1.58%)
   displ. norm   :     0.3933887 α      lambda       -0.1336292E-02
   maximum displ.:     0.1837372 α      in ANC's #31, #26, #54, ...

........................................................................
.............................. CYCLE   11 ..............................
........................................................................
   1   -255.1110670 -0.255111E+03  0.162E-01    0.30       0.0  T
   2   -255.1111168 -0.497982E-04  0.907E-02    0.31       1.0  T
   3   -255.1108476  0.269194E-03  0.403E-02    0.29       1.0  T
   4   -255.1111486 -0.300963E-03  0.671E-03    0.31       1.3  T
   5   -255.1111530 -0.438393E-05  0.400E-03    0.30       2.1  T
   6   -255.1111547 -0.170097E-05  0.143E-03    0.30       5.9  T
   7   -255.1111549 -0.159675E-06  0.614E-04    0.30      13.9  T
   8   -255.1111549 -0.244676E-07  0.302E-04    0.30      28.2  T
     SCC iter.                  ...        0 min,  0.207 sec
     gradient                   ...        0 min,  0.257 sec
 * total energy  :  -251.3280403 Eh     change        0.1002244E-03 Eh
   gradient norm :     0.0355908 Eh/α   predicted    -0.7715461E-03 (-869.82%)
   displ. norm   :     0.3017069 α      lambda       -0.2149560E-02
   maximum displ.:     0.1119976 α      in ANC's #31, #26, #1, ...

........................................................................
.............................. CYCLE   12 ..............................
........................................................................
   1   -255.1147926 -0.255115E+03  0.142E-01    0.30       0.0  T
   2   -255.1148413 -0.487257E-04  0.793E-02    0.31       1.0  T
   3   -255.1146694  0.171901E-03  0.318E-02    0.29       1.0  T
   4   -255.1148645 -0.195056E-03  0.624E-03    0.31       1.4  T
   5   -255.1148692 -0.468982E-05  0.315E-03    0.31       2.7  T
   6   -255.1148700 -0.849544E-06  0.161E-03    0.31       5.3  T
   7   -255.1148703 -0.248332E-06  0.659E-04    0.31      12.9  T
   8   -255.1148703 -0.326416E-07  0.317E-04    0.31      26.9  T
     SCC iter.                  ...        0 min,  0.206 sec
     gradient                   ...        0 min,  0.258 sec
 * total energy  :  -251.3291011 Eh     change       -0.1060868E-02 Eh
   gradient norm :     0.0180784 Eh/α   predicted    -0.1172607E-02 (  10.53%)
   displ. norm   :     0.2831611 α      lambda       -0.9405155E-03
   maximum displ.:     0.1129374 α      in ANC's #31, #26, #15, ...

........................................................................
.............................. CYCLE   13 ..............................
........................................................................
   1   -255.1235331 -0.255124E+03  0.773E-02    0.30       0.0  T
   2   -255.1235831 -0.499622E-04  0.453E-02    0.32       1.0  T
   3   -255.1234828  0.100278E-03  0.280E-02    0.30       1.0  T
   4   -255.1235911 -0.108226E-03  0.105E-02    0.32       1.0  T
   5   -255.1236114 -0.203148E-04  0.317E-03    0.31       2.7  T
   6   -255.1236124 -0.102289E-05  0.149E-03    0.31       5.7  T
   7   -255.1236126 -0.167814E-06  0.663E-04    0.31      12.8  T
   8   -255.1236126 -0.313240E-07  0.314E-04    0.31      27.1  T
     SCC iter.                  ...        0 min,  0.207 sec
     gradient                   ...        0 min,  0.257 sec
 * total energy  :  -251.3295308 Eh     change       -0.4297042E-03 Eh
   gradient norm :     0.0187563 Eh/α   predicted    -0.5079590E-03 (  18.21%)
   displ. norm   :     0.4012651 α      lambda       -0.6457823E-03
   maximum displ.:     0.1624631 α      in ANC's #31, #26, #17, ...

........................................................................
.............................. CYCLE   14 ..............................
........................................................................
   1   -255.1209601 -0.255121E+03  0.777E-02    0.31       0.0  T
   2   -255.1209625 -0.245225E-05  0.453E-02    0.33       1.0  T
   3   -255.1207375  0.225014E-03  0.343E-02    0.30       1.0  T
   4   -255.1209832 -0.245684E-03  0.470E-03    0.32       1.8  T
   5   -255.1209853 -0.217398E-05  0.241E-03    0.32       3.5  T
   6   -255.1209858 -0.448829E-06  0.936E-04    0.32       9.1  T
   7   -255.1209859 -0.548704E-07  0.431E-04    0.32      19.8  T
     SCC iter.                  ...        0 min,  0.182 sec
     gradient                   ...        0 min,  0.256 sec
 * total energy  :  -251.3300614 Eh     change       -0.5305461E-03 Eh
   gradient norm :     0.0088022 Eh/α   predicted    -0.3748822E-03 ( -29.34%)
   displ. norm   :     0.5817399 α      lambda       -0.8232251E-03
   maximum displ.:     0.2026570 α      in ANC's #17, #26, #15, ...

........................................................................
.............................. CYCLE   15 ..............................
........................................................................
   1   -255.1198133 -0.255120E+03  0.103E-01    0.32       0.0  T
   2   -255.1198198 -0.650826E-05  0.601E-02    0.33       1.0  T
   3   -255.1195155  0.304353E-03  0.413E-02    0.31       1.0  T
   4   -255.1198453 -0.329871E-03  0.652E-03    0.33       1.3  T
   5   -255.1198508 -0.552513E-05  0.315E-03    0.33       2.7  T
   6   -255.1198516 -0.773185E-06  0.137E-03    0.33       6.2  T
   7   -255.1198518 -0.145634E-06  0.555E-04    0.33      15.3  T
   8   -255.1198518 -0.233053E-07  0.282E-04    0.33      30.2  T
     SCC iter.                  ...        0 min,  0.206 sec
     gradient                   ...        0 min,  0.257 sec
 * total energy  :  -251.3306621 Eh     change       -0.6006882E-03 Eh
   gradient norm :     0.0088553 Eh/α   predicted    -0.5509118E-03 (  -8.29%)
   displ. norm   :     0.5915881 α      lambda       -0.6028923E-03
   maximum displ.:     0.2075420 α      in ANC's #17, #15, #26, ...

........................................................................
.............................. CYCLE   16 ..............................
........................................................................
   1   -255.1125835 -0.255113E+03  0.113E-01    0.32       0.0  T
   2   -255.1125901 -0.655827E-05  0.650E-02    0.34       1.0  T
   3   -255.1122335  0.356610E-03  0.424E-02    0.31       1.0  T
   4   -255.1126193 -0.385877E-03  0.604E-03    0.33       1.4  T
   5   -255.1126228 -0.349226E-05  0.328E-03    0.33       2.6  T
   6   -255.1126236 -0.793146E-06  0.103E-03    0.33       8.3  T
   7   -255.1126237 -0.519434E-07  0.459E-04    0.33      18.5  T
   8   -255.1126237 -0.153927E-07  0.232E-04    0.33      36.7  T
     SCC iter.                  ...        0 min,  0.207 sec
     gradient                   ...        0 min,  0.258 sec
 * total energy  :  -251.3310869 Eh     change       -0.4248434E-03 Eh
   gradient norm :     0.0153182 Eh/α   predicted    -0.4069467E-03 (  -4.21%)
   displ. norm   :     0.5530972 α      lambda       -0.6070454E-03
   maximum displ.:     0.1979831 α      in ANC's #15, #17, #26, ...

........................................................................
.............................. CYCLE   17 ..............................
........................................................................
   1   -255.1169366 -0.255117E+03  0.853E-02    0.33       0.0  T
   2   -255.1169413 -0.466358E-05  0.496E-02    0.34       1.0  T
   3   -255.1168009  0.140353E-03  0.270E-02    0.32       1.0  T
   4   -255.1169506 -0.149692E-03  0.530E-03    0.33       1.6  T
   5   -255.1169543 -0.369479E-05  0.256E-03    0.33       3.3  T
   6   -255.1169548 -0.508236E-06  0.915E-04    0.33       9.3  T
   7   -255.1169549 -0.615691E-07  0.437E-04    0.33      19.5  T
     SCC iter.                  ...        0 min,  0.182 sec
     gradient                   ...        0 min,  0.257 sec
 * total energy  :  -251.3315350 Eh     change       -0.4481130E-03 Eh
   gradient norm :     0.0088799 Eh/α   predicted    -0.3963780E-03 ( -11.55%)
   displ. norm   :     0.5453888 α      lambda       -0.5284207E-03
   maximum displ.:     0.2156532 α      in ANC's #15, #17, #11, ...

........................................................................
.............................. CYCLE   18 ..............................
........................................................................
   1   -255.1188320 -0.255119E+03  0.827E-02    0.33       0.0  T
   2   -255.1188360 -0.404293E-05  0.479E-02    0.34       1.0  T
   3   -255.1186929  0.143104E-03  0.251E-02    0.32       1.0  T
   4   -255.1188455 -0.152623E-03  0.458E-03    0.33       1.9  T
   5   -255.1188479 -0.237957E-05  0.237E-03    0.33       3.6  T
   6   -255.1188483 -0.347242E-06  0.949E-04    0.33       9.0  T
   7   -255.1188483 -0.799346E-07  0.404E-04    0.33      21.1  T
     SCC iter.                  ...        0 min,  0.182 sec
     gradient                   ...        0 min,  0.257 sec
 * total energy  :  -251.3319546 Eh     change       -0.4195410E-03 Eh
   gradient norm :     0.0071518 Eh/α   predicted    -0.3428033E-03 ( -18.29%)
   displ. norm   :     0.6002176 α      lambda       -0.5622757E-03
   maximum displ.:     0.2378269 α      in ANC's #15, #17, #11, ...

........................................................................
.............................. CYCLE   19 ..............................
........................................................................
   1   -255.1245155 -0.255125E+03  0.824E-02    0.33       0.0  T
   2   -255.1245215 -0.603117E-05  0.480E-02    0.33       1.0  T
   3   -255.1244249  0.966476E-04  0.230E-02    0.32       1.0  T
   4   -255.1245286 -0.103693E-03  0.442E-03    0.33       1.9  T
   5   -255.1245308 -0.220664E-05  0.238E-03    0.33       3.6  T
   6   -255.1245313 -0.452047E-06  0.103E-03    0.33       8.3  T
   7   -255.1245314 -0.109383E-06  0.437E-04    0.33      19.5  T
   8   -255.1245314 -0.175008E-07  0.209E-04    0.33      40.7  T
     SCC iter.                  ...        0 min,  0.207 sec
     gradient                   ...        0 min,  0.258 sec
 * total energy  :  -251.3323609 Eh     change       -0.4062889E-03 Eh
   gradient norm :     0.0111382 Eh/α   predicted    -0.3824222E-03 (  -5.87%)
   displ. norm   :     0.6398589 α      lambda       -0.5201356E-03
   maximum displ.:     0.2663713 α      in ANC's #15, #17, #11, ...

........................................................................
.............................. CYCLE   20 ..............................
........................................................................
   1   -255.1171105 -0.255117E+03  0.913E-02    0.32       0.0  T
   2   -255.1171185 -0.793964E-05  0.528E-02    0.33       1.0  T
   3   -255.1170240  0.944820E-04  0.212E-02    0.31       1.0  T
   4   -255.1171242 -0.100180E-03  0.480E-03    0.32       1.8  T
   5   -255.1171269 -0.272417E-05  0.258E-03    0.32       3.3  T
   6   -255.1171274 -0.500029E-06  0.104E-03    0.32       8.1  T
   7   -255.1171275 -0.880777E-07  0.486E-04    0.32      17.5  T
   8   -255.1171275 -0.245074E-07  0.195E-04    0.32      43.7  T
     SCC iter.                  ...        0 min,  0.206 sec
     gradient                   ...        0 min,  0.259 sec
 * total energy  :  -251.3327473 Eh     change       -0.3863935E-03 Eh
   gradient norm :     0.0089406 Eh/α   predicted    -0.3665477E-03 (  -5.14%)
   displ. norm   :     0.5639041 α      lambda       -0.4745811E-03
   maximum displ.:     0.2350567 α      in ANC's #15, #12, #10, ...
 * RMSD in coord.:     0.5921503 α      energy gain  -0.1034229E+00 Eh

generating ANC from model Hessian ...
Using Lindh-Hessian (1995)
 Shifting diagonal of input Hessian by   1.001759510212097E-002
 Lowest  eigenvalues of input Hessian
    0.010000    0.000000    0.000000    0.000000    0.000000    0.000000
    0.000000    0.010019    0.010044    0.010056    0.010062    0.010089
    0.010111    0.010157    0.010191    0.010260    0.010305    0.010341
 Highest eigenvalues
    2.278346    2.288532    2.597222    2.608257    2.647821    2.651832
 

........................................................................
.............................. CYCLE   21 ..............................
........................................................................
   1   -255.1196463 -0.255120E+03  0.736E-02    0.32       0.0  T
   2   -255.1196522 -0.594409E-05  0.424E-02    0.31       1.0  T
   3   -255.1196152  0.370133E-04  0.159E-02    0.32       1.0  T
   4   -255.1196557 -0.405334E-04  0.380E-03    0.31       2.2  T
   5   -255.1196568 -0.108106E-05  0.235E-03    0.31       3.6  T
   6   -255.1196573 -0.538793E-06  0.785E-04    0.31      10.8  T
   7   -255.1196574 -0.709102E-07  0.339E-04    0.31      25.1  T
     SCC iter.                  ...        0 min,  0.186 sec
     gradient                   ...        0 min,  0.264 sec
 * total energy  :  -251.3331185 Eh     change       -0.3712818E-03 Eh
   gradient norm :     0.0094892 Eh/α   predicted     0.0000000E+00 (-100.00%)
   displ. norm   :     0.0928361 α      lambda       -0.2013323E-03
   maximum displ.:     0.0354053 α      in ANC's #10, #22, #19, ...

........................................................................
.............................. CYCLE   22 ..............................
........................................................................
   1   -255.1206758 -0.255121E+03  0.300E-02    0.31       0.0  T
   2   -255.1206779 -0.205616E-05  0.169E-02    0.31       1.0  T
   3   -255.1206732  0.468701E-05  0.593E-03    0.31       1.4  T
   4   -255.1206787 -0.558455E-05  0.127E-03    0.31       6.7  T
   5   -255.1206789 -0.135018E-06  0.729E-04    0.31      11.7  T
   6   -255.1206789 -0.508224E-07  0.323E-04    0.31      26.4  T
     SCC iter.                  ...        0 min,  0.160 sec
     gradient                   ...        0 min,  0.264 sec
 * total energy  :  -251.3332693 Eh     change       -0.1507736E-03 Eh
   gradient norm :     0.0041459 Eh/α   predicted    -0.1015349E-03 ( -32.66%)
   displ. norm   :     0.2478917 α      lambda       -0.3256502E-03
   maximum displ.:     0.1010637 α      in ANC's #10, #8, #9, ...

........................................................................
.............................. CYCLE   23 ..............................
........................................................................
   1   -255.1210128 -0.255121E+03  0.397E-02    0.32       0.0  T
   2   -255.1210156 -0.286655E-05  0.231E-02    0.31       1.0  T
   3   -255.1209938  0.218074E-04  0.117E-02    0.32       1.0  T
   4   -255.1210169 -0.230455E-04  0.290E-03    0.31       2.9  T
   5   -255.1210181 -0.125891E-05  0.143E-03    0.31       5.9  T
   6   -255.1210184 -0.235246E-06  0.596E-04    0.31      14.3  T
   7   -255.1210184 -0.433351E-07  0.273E-04    0.31      31.1  T
     SCC iter.                  ...        0 min,  0.186 sec
     gradient                   ...        0 min,  0.265 sec
 * total energy  :  -251.3334520 Eh     change       -0.1827357E-03 Eh
   gradient norm :     0.0085303 Eh/α   predicted    -0.1728508E-03 (  -5.41%)
   displ. norm   :     0.2417003 α      lambda       -0.2227471E-03
   maximum displ.:     0.1021485 α      in ANC's #10, #9, #5, ...

........................................................................
.............................. CYCLE   24 ..............................
........................................................................
   1   -255.1194457 -0.255119E+03  0.583E-02    0.31       0.0  T
   2   -255.1194517 -0.596459E-05  0.324E-02    0.31       1.0  T
   3   -255.1194440  0.769659E-05  0.829E-03    0.31       1.0  T
   4   -255.1194541 -0.101582E-04  0.227E-03    0.31       3.8  T
   5   -255.1194544 -0.276222E-06  0.136E-03    0.31       6.2  T
   6   -255.1194546 -0.216976E-06  0.491E-04    0.31      17.3  T
   7   -255.1194547 -0.282977E-07  0.189E-04    0.31      44.9  T
     SCC iter.                  ...        0 min,  0.187 sec
     gradient                   ...        0 min,  0.264 sec
 * total energy  :  -251.3335869 Eh     change       -0.1348892E-03 Eh
   gradient norm :     0.0076921 Eh/α   predicted    -0.1178803E-03 ( -12.61%)
   displ. norm   :     0.2789557 α      lambda       -0.2247277E-03
   maximum displ.:     0.1208024 α      in ANC's #10, #5, #9, ...

........................................................................
.............................. CYCLE   25 ..............................
........................................................................
   1   -255.1197227 -0.255120E+03  0.506E-02    0.32       0.0  T
   2   -255.1197259 -0.313985E-05  0.284E-02    0.32       1.0  T
   3   -255.1197078  0.180479E-04  0.109E-02    0.31       1.0  T
   4   -255.1197281 -0.203157E-04  0.229E-03    0.32       3.7  T
   5   -255.1197284 -0.245953E-06  0.139E-03    0.31       6.1  T
   6   -255.1197286 -0.214301E-06  0.498E-04    0.31      17.1  T
   7   -255.1197286 -0.265025E-07  0.206E-04    0.31      41.4  T
     SCC iter.                  ...        0 min,  0.186 sec
     gradient                   ...        0 min,  0.261 sec
 * total energy  :  -251.3337517 Eh     change       -0.1647623E-03 Eh
   gradient norm :     0.0074506 Eh/α   predicted    -0.1211113E-03 ( -26.49%)
   displ. norm   :     0.4689548 α      lambda       -0.3877348E-03
   maximum displ.:     0.2092395 α      in ANC's #10, #5, #9, ...

........................................................................
.............................. CYCLE   26 ..............................
........................................................................
   1   -255.1224875 -0.255122E+03  0.652E-02    0.32       0.0  T
   2   -255.1224926 -0.509932E-05  0.371E-02    0.32       1.0  T
   3   -255.1224733  0.193151E-04  0.118E-02    0.32       1.0  T
   4   -255.1224950 -0.217093E-04  0.332E-03    0.32       2.6  T
   5   -255.1224954 -0.338006E-06  0.211E-03    0.32       4.0  T
   6   -255.1224959 -0.594082E-06  0.735E-04    0.32      11.6  T
   7   -255.1224960 -0.737786E-07  0.284E-04    0.32      29.9  T
     SCC iter.                  ...        0 min,  0.182 sec
     gradient                   ...        0 min,  0.257 sec
 * total energy  :  -251.3340183 Eh     change       -0.2666287E-03 Eh
   gradient norm :     0.0068140 Eh/α   predicted    -0.2365048E-03 ( -11.30%)
   displ. norm   :     0.5195348 α      lambda       -0.4096927E-03
   maximum displ.:     0.2285214 α      in ANC's #10, #5, #9, ...

........................................................................
.............................. CYCLE   27 ..............................
........................................................................
   1   -255.1232132 -0.255123E+03  0.790E-02    0.33       0.0  T
   2   -255.1232219 -0.862201E-05  0.445E-02    0.33       1.0  T
   3   -255.1231804  0.414259E-04  0.159E-02    0.32       1.0  T
   4   -255.1232258 -0.453435E-04  0.413E-03    0.33       2.1  T
   5   -255.1232271 -0.135824E-05  0.248E-03    0.33       3.4  T
   6   -255.1232279 -0.734892E-06  0.731E-04    0.33      11.6  T
   7   -255.1232279 -0.549954E-07  0.327E-04    0.33      26.0  T
     SCC iter.                  ...        0 min,  0.181 sec
     gradient                   ...        0 min,  0.257 sec
 * total energy  :  -251.3342214 Eh     change       -0.2030791E-03 Eh
   gradient norm :     0.0120288 Eh/α   predicted    -0.2601456E-03 (  28.10%)
   displ. norm   :     0.4389615 α      lambda       -0.4027392E-03
   maximum displ.:     0.1998023 α      in ANC's #10, #9, #5, ...

........................................................................
.............................. CYCLE   28 ..............................
........................................................................
   1   -255.1218204 -0.255122E+03  0.655E-02    0.33       0.0  T
   2   -255.1218251 -0.463432E-05  0.369E-02    0.33       1.0  T
   3   -255.1217865  0.386012E-04  0.150E-02    0.32       1.0  T
   4   -255.1218286 -0.421655E-04  0.325E-03    0.33       2.6  T
   5   -255.1218292 -0.555511E-06  0.212E-03    0.33       4.0  T
   6   -255.1218297 -0.505828E-06  0.616E-04    0.33      13.8  T
   7   -255.1218297 -0.419112E-07  0.261E-04    0.33      32.6  T
     SCC iter.                  ...        0 min,  0.182 sec
     gradient                   ...        0 min,  0.257 sec
 * total energy  :  -251.3345418 Eh     change       -0.3203682E-03 Eh
   gradient norm :     0.0081855 Eh/α   predicted    -0.2401740E-03 ( -25.03%)
   displ. norm   :     0.5413937 α      lambda       -0.5005358E-03
   maximum displ.:     0.2461431 α      in ANC's #10, #5, #9, ...

........................................................................
.............................. CYCLE   29 ..............................
........................................................................
   1   -255.1210032 -0.255121E+03  0.860E-02    0.33       0.0  T
   2   -255.1210146 -0.114813E-04  0.483E-02    0.33       1.0  T
   3   -255.1209752  0.394727E-04  0.157E-02    0.32       1.0  T
   4   -255.1210197 -0.445717E-04  0.399E-03    0.33       2.1  T
   5   -255.1210205 -0.782359E-06  0.275E-03    0.33       3.1  T
   6   -255.1210215 -0.100126E-05  0.761E-04    0.33      11.2  T
   7   -255.1210216 -0.482415E-07  0.346E-04    0.33      24.6  T
   8   -255.1210216 -0.967722E-08  0.147E-04    0.33      57.9  T
     SCC iter.                  ...        0 min,  0.207 sec
     gradient                   ...        0 min,  0.257 sec
 * total energy  :  -251.3347627 Eh     change       -0.2209137E-03 Eh
   gradient norm :     0.0128924 Eh/α   predicted    -0.3236236E-03 (  46.49%)
   displ. norm   :     0.4954931 α      lambda       -0.6805267E-03
   maximum displ.:     0.2182591 α      in ANC's #10, #9, #5, ...

........................................................................
.............................. CYCLE   30 ..............................
........................................................................
   1   -255.1227558 -0.255123E+03  0.905E-02    0.33       0.0  T
   2   -255.1227710 -0.152431E-04  0.507E-02    0.33       1.0  T
   3   -255.1227377  0.332691E-04  0.160E-02    0.33       1.0  T
   4   -255.1227782 -0.404277E-04  0.361E-03    0.33       2.4  T
   5   -255.1227784 -0.271405E-06  0.260E-03    0.33       3.3  T
   6   -255.1227793 -0.895715E-06  0.841E-04    0.33      10.1  T
   7   -255.1227794 -0.791063E-07  0.392E-04    0.33      21.7  T
     SCC iter.                  ...        0 min,  0.181 sec
     gradient                   ...        0 min,  0.259 sec
 * total energy  :  -251.3350909 Eh     change       -0.3282041E-03 Eh
   gradient norm :     0.0110343 Eh/α   predicted    -0.4238041E-03 (  29.13%)
   displ. norm   :     0.5505773 α      lambda       -0.4181291E-03
   maximum displ.:     0.2505116 α      in ANC's #10, #5, #9, ...

........................................................................
.............................. CYCLE   31 ..............................
........................................................................
   1   -255.1178988 -0.255118E+03  0.634E-02    0.34       0.0  T
   2   -255.1179028 -0.408517E-05  0.362E-02    0.34       1.0  T
   3   -255.1178639  0.389587E-04  0.153E-02    0.34       1.0  T
   4   -255.1179059 -0.420298E-04  0.362E-03    0.35       2.3  T
   5   -255.1179067 -0.752322E-06  0.224E-03    0.34       3.8  T
   6   -255.1179073 -0.581071E-06  0.662E-04    0.34      12.9  T
   7   -255.1179073 -0.465847E-07  0.306E-04    0.34      27.8  T
     SCC iter.                  ...        0 min,  0.181 sec
     gradient                   ...        0 min,  0.257 sec
 * total energy  :  -251.3354434 Eh     change       -0.3524677E-03 Eh
   gradient norm :     0.0090510 Eh/α   predicted    -0.2724405E-03 ( -22.70%)
   displ. norm   :     0.5650651 α      lambda       -0.5880383E-03
   maximum displ.:     0.2576991 α      in ANC's #10, #5, #9, ...

........................................................................
.............................. CYCLE   32 ..............................
........................................................................
   1   -255.1224137 -0.255122E+03  0.687E-02    0.35       0.0  T
   2   -255.1224201 -0.638511E-05  0.394E-02    0.35       1.0  T
   3   -255.1223838  0.362828E-04  0.149E-02    0.35       1.0  T
   4   -255.1224232 -0.394309E-04  0.371E-03    0.36       2.3  T
   5   -255.1224245 -0.124499E-05  0.213E-03    0.35       4.0  T
   6   -255.1224249 -0.407005E-06  0.736E-04    0.35      11.6  T
   7   -255.1224249 -0.475784E-07  0.312E-04    0.35      27.3  T
     SCC iter.                  ...        0 min,  0.181 sec
     gradient                   ...        0 min,  0.258 sec
 * total energy  :  -251.3358569 Eh     change       -0.4135280E-03 Eh
   gradient norm :     0.0064260 Eh/α   predicted    -0.3879057E-03 (  -6.20%)
   displ. norm   :     0.7453458 α      lambda       -0.4585267E-03
   maximum displ.:     0.3417457 α      in ANC's #10, #5, #9, ...

........................................................................
.............................. CYCLE   33 ..............................
........................................................................
   1   -255.1174080 -0.255117E+03  0.805E-02    0.36       0.0  T
   2   -255.1174146 -0.658717E-05  0.460E-02    0.37       1.0  T
   3   -255.1173470  0.675506E-04  0.197E-02    0.36       1.0  T
   4   -255.1174199 -0.728908E-04  0.443E-03    0.37       1.9  T
   5   -255.1174212 -0.130074E-05  0.269E-03    0.37       3.2  T
   6   -255.1174220 -0.732839E-06  0.851E-04    0.37      10.0  T
   7   -255.1174220 -0.689170E-07  0.379E-04    0.37      22.5  T
     SCC iter.                  ...        0 min,  0.181 sec
     gradient                   ...        0 min,  0.258 sec
 * total energy  :  -251.3362641 Eh     change       -0.4071852E-03 Eh
   gradient norm :     0.0076507 Eh/α   predicted    -0.3566321E-03 ( -12.42%)
   displ. norm   :     0.6989423 α      lambda       -0.5738731E-03
   maximum displ.:     0.3081999 α      in ANC's #10, #5, #8, ...

........................................................................
.............................. CYCLE   34 ..............................
........................................................................
   1   -255.1190589 -0.255119E+03  0.825E-02    0.37       0.0  T
   2   -255.1190663 -0.740962E-05  0.473E-02    0.37       1.0  T
   3   -255.1190199  0.464781E-04  0.172E-02    0.37       1.0  T
   4   -255.1190707 -0.508541E-04  0.404E-03    0.37       2.1  T
   5   -255.1190718 -0.112846E-05  0.247E-03    0.37       3.4  T
   6   -255.1190724 -0.552293E-06  0.879E-04    0.37       9.7  T
   7   -255.1190725 -0.753653E-07  0.380E-04    0.37      22.4  T
     SCC iter.                  ...        0 min,  0.182 sec
     gradient                   ...        0 min,  0.258 sec
 * total energy  :  -251.3367359 Eh     change       -0.4718740E-03 Eh
   gradient norm :     0.0080398 Eh/α   predicted    -0.4271116E-03 (  -9.49%)
   displ. norm   :     0.7804208 α      lambda       -0.5174108E-03
   maximum displ.:     0.3539440 α      in ANC's #10, #5, #8, ...

........................................................................
.............................. CYCLE   35 ..............................
........................................................................
   1   -255.1171377 -0.255117E+03  0.782E-02    0.37       0.0  T
   2   -255.1171420 -0.433180E-05  0.452E-02    0.39       1.0  T
   3   -255.1170404  0.101587E-03  0.231E-02    0.38       1.0  T
   4   -255.1171491 -0.108631E-03  0.431E-03    0.39       2.0  T
   5   -255.1171506 -0.149974E-05  0.252E-03    0.39       3.4  T
   6   -255.1171511 -0.558931E-06  0.872E-04    0.39       9.8  T
   7   -255.1171512 -0.654966E-07  0.383E-04    0.39      22.2  T
     SCC iter.                  ...        0 min,  0.181 sec
     gradient                   ...        0 min,  0.258 sec
 * total energy  :  -251.3371886 Eh     change       -0.4526533E-03 Eh
   gradient norm :     0.0071135 Eh/α   predicted    -0.4162774E-03 (  -8.04%)
   displ. norm   :     0.7049088 α      lambda       -0.6204592E-03
   maximum displ.:     0.2971697 α      in ANC's #10, #5, #8, ...

........................................................................
.............................. CYCLE   36 ..............................
........................................................................
   1   -255.1214072 -0.255121E+03  0.882E-02    0.39       0.0  T
   2   -255.1214142 -0.702192E-05  0.506E-02    0.40       1.0  T
   3   -255.1212667  0.147518E-03  0.267E-02    0.39       1.0  T
   4   -255.1214254 -0.158660E-03  0.459E-03    0.40       1.9  T
   5   -255.1214273 -0.191577E-05  0.255E-03    0.40       3.3  T
   6   -255.1214277 -0.395195E-06  0.108E-03    0.40       7.9  T
   7   -255.1214278 -0.107067E-06  0.427E-04    0.40      19.9  T
   8   -255.1214278 -0.187646E-07  0.176E-04    0.40      48.5  T
     SCC iter.                  ...        0 min,  0.207 sec
     gradient                   ...        0 min,  0.257 sec
 * total energy  :  -251.3376684 Eh     change       -0.4798170E-03 Eh
   gradient norm :     0.0059619 Eh/α   predicted    -0.4643876E-03 (  -3.22%)
   displ. norm   :     0.8340075 α      lambda       -0.5888020E-03
   maximum displ.:     0.3732755 α      in ANC's #10, #5, #8, ...

........................................................................
.............................. CYCLE   37 ..............................
........................................................................
   1   -255.1168779 -0.255117E+03  0.894E-02    0.40       0.0  T
   2   -255.1168839 -0.599691E-05  0.515E-02    0.42       1.0  T
   3   -255.1167070  0.176964E-03  0.291E-02    0.40       1.0  T
   4   -255.1168971 -0.190133E-03  0.451E-03    0.42       1.9  T
   5   -255.1168984 -0.126789E-05  0.267E-03    0.42       3.2  T
   6   -255.1168989 -0.552221E-06  0.104E-03    0.42       8.2  T
   7   -255.1168990 -0.779854E-07  0.447E-04    0.42      19.1  T
   8   -255.1168990 -0.193691E-07  0.184E-04    0.42      46.2  T
     SCC iter.                  ...        0 min,  0.207 sec
     gradient                   ...        0 min,  0.258 sec
 * total energy  :  -251.3381872 Eh     change       -0.5187527E-03 Eh
   gradient norm :     0.0071545 Eh/α   predicted    -0.4991839E-03 (  -3.77%)
   displ. norm   :     0.7089082 α      lambda       -0.6365694E-03
   maximum displ.:     0.2894361 α      in ANC's #10, #5, #8, ...

........................................................................
.............................. CYCLE   38 ..............................
........................................................................
   1   -255.1225218 -0.255123E+03  0.768E-02    0.42       0.0  T
   2   -255.1225269 -0.513325E-05  0.446E-02    0.43       1.0  T
   3   -255.1223720  0.154942E-03  0.276E-02    0.42       1.0  T
   4   -255.1225380 -0.166050E-03  0.492E-03    0.43       1.7  T
   5   -255.1225408 -0.279561E-05  0.253E-03    0.43       3.4  T
   6   -255.1225414 -0.534607E-06  0.103E-03    0.43       8.2  T
   7   -255.1225415 -0.760876E-07  0.471E-04    0.43      18.1  T
   8   -255.1225415 -0.233342E-07  0.179E-04    0.43      47.5  T
     SCC iter.                  ...        0 min,  0.207 sec
     gradient                   ...        0 min,  0.258 sec
 * total energy  :  -251.3386531 Eh     change       -0.4659074E-03 Eh
   gradient norm :     0.0115346 Eh/α   predicted    -0.4782428E-03 (   2.65%)
   displ. norm   :     0.7531945 α      lambda       -0.5262315E-03
   maximum displ.:     0.3212175 α      in ANC's #10, #5, #8, ...

........................................................................
.............................. CYCLE   39 ..............................
........................................................................
   1   -255.1160031 -0.255116E+03  0.834E-02    0.43       0.0  T
   2   -255.1160095 -0.637223E-05  0.479E-02    0.45       1.0  T
   3   -255.1158576  0.151853E-03  0.269E-02    0.43       1.0  T
   4   -255.1160211 -0.163544E-03  0.410E-03    0.45       2.1  T
   5   -255.1160223 -0.113499E-05  0.245E-03    0.45       3.5  T
   6   -255.1160228 -0.527623E-06  0.945E-04    0.45       9.0  T
   7   -255.1160229 -0.647921E-07  0.373E-04    0.45      22.8  T
     SCC iter.                  ...        0 min,  0.181 sec
     gradient                   ...        0 min,  0.257 sec
 * total energy  :  -251.3390741 Eh     change       -0.4209768E-03 Eh
   gradient norm :     0.0099318 Eh/α   predicted    -0.4123878E-03 (  -2.04%)
   displ. norm   :     0.6243171 α      lambda       -0.5327134E-03
   maximum displ.:     0.2766706 α      in ANC's #5, #10, #8, ...

........................................................................
.............................. CYCLE   40 ..............................
........................................................................
   1   -255.1200063 -0.255120E+03  0.640E-02    0.44       0.0  T
   2   -255.1200107 -0.437989E-05  0.370E-02    0.45       1.0  T
   3   -255.1199532  0.574750E-04  0.170E-02    0.44       1.0  T
   4   -255.1200141 -0.608624E-04  0.386E-03    0.45       2.2  T
   5   -255.1200161 -0.208063E-05  0.194E-03    0.45       4.4  T
   6   -255.1200165 -0.347861E-06  0.817E-04    0.45      10.4  T
   7   -255.1200166 -0.579197E-07  0.333E-04    0.45      25.6  T
     SCC iter.                  ...        0 min,  0.185 sec
     gradient                   ...        0 min,  0.262 sec
 * total energy  :  -251.3394968 Eh     change       -0.4227818E-03 Eh
   gradient norm :     0.0101964 Eh/α   predicted    -0.3701785E-03 ( -12.44%)
   displ. norm   :     0.7985970 α      lambda       -0.5467279E-03
   maximum displ.:     0.3562186 α      in ANC's #5, #10, #8, ...

........................................................................
.............................. CYCLE   41 ..............................
........................................................................
   1   -255.1212285 -0.255121E+03  0.704E-02    0.45       0.0  T
   2   -255.1212332 -0.468815E-05  0.410E-02    0.46       1.0  T
   3   -255.1211851  0.481578E-04  0.166E-02    0.45       1.0  T
   4   -255.1212363 -0.512447E-04  0.373E-03    0.46       2.3  T
   5   -255.1212378 -0.154073E-05  0.210E-03    0.46       4.1  T
   6   -255.1212384 -0.525733E-06  0.866E-04    0.46       9.8  T
   7   -255.1212384 -0.791401E-07  0.359E-04    0.46      23.7  T
     SCC iter.                  ...        0 min,  0.184 sec
     gradient                   ...        0 min,  0.263 sec
 * total energy  :  -251.3399575 Eh     change       -0.4607010E-03 Eh
   gradient norm :     0.0073690 Eh/α   predicted    -0.4477065E-03 (  -2.82%)
   displ. norm   :     0.6821962 α      lambda       -0.5768104E-03
   maximum displ.:     0.3375671 α      in ANC's #5, #10, #8, ...

........................................................................
.............................. CYCLE   42 ..............................
........................................................................
   1   -255.1310570 -0.255131E+03  0.594E-02    0.46       0.0  T
   2   -255.1310610 -0.403523E-05  0.349E-02    0.46       1.0  T
   3   -255.1310156  0.453875E-04  0.168E-02    0.47       1.0  T
   4   -255.1310651 -0.494193E-04  0.323E-03    0.46       2.6  T
   5   -255.1310660 -0.906500E-06  0.178E-03    0.47       4.8  T
   6   -255.1310663 -0.345143E-06  0.765E-04    0.46      11.1  T
   7   -255.1310664 -0.673768E-07  0.316E-04    0.46      27.0  T
     SCC iter.                  ...        0 min,  0.184 sec
     gradient                   ...        0 min,  0.264 sec
 * total energy  :  -251.3403821 Eh     change       -0.4245814E-03 Eh
   gradient norm :     0.0100444 Eh/α   predicted    -0.4226288E-03 (  -0.46%)
   displ. norm   :     0.8214059 α      lambda       -0.5611716E-03
   maximum displ.:     0.3868036 α      in ANC's #5, #10, #8, ...
 * RMSD in coord.:     1.0062397 α      energy gain  -0.7634863E-02 Eh

generating ANC from model Hessian ...
Using Lindh-Hessian (1995)
 Shifting diagonal of input Hessian by   1.002966069862337E-002
 Lowest  eigenvalues of input Hessian
    0.010000    0.010004    0.000000    0.000000    0.000000    0.000000
    0.000000    0.000000    0.010054    0.010068    0.010073    0.010103
    0.010120    0.010165    0.010184    0.010255    0.010321    0.010349
 Highest eigenvalues
    2.282261    2.284270    2.605371    2.614129    2.644561    2.647215
 

........................................................................
.............................. CYCLE   43 ..............................
........................................................................
   1   -255.1244274 -0.255124E+03  0.814E-02    0.47       0.0  T
   2   -255.1244344 -0.701624E-05  0.471E-02    0.47       1.0  T
   3   -255.1243687  0.657251E-04  0.188E-02    0.47       1.0  T
   4   -255.1244399 -0.711776E-04  0.400E-03    0.47       2.1  T
   5   -255.1244414 -0.149841E-05  0.236E-03    0.47       3.6  T
   6   -255.1244420 -0.620562E-06  0.996E-04    0.47       8.5  T
   7   -255.1244421 -0.935754E-07  0.427E-04    0.47      19.9  T
     SCC iter.                  ...        0 min,  0.185 sec
     gradient                   ...        0 min,  0.262 sec
 * total energy  :  -251.3408364 Eh     change       -0.4543006E-03 Eh
   gradient norm :     0.0108717 Eh/α   predicted     0.0000000E+00 (-100.00%)
   displ. norm   :     0.0881941 α      lambda       -0.2246970E-03
   maximum displ.:     0.0402436 α      in ANC's #5, #19, #28, ...

........................................................................
.............................. CYCLE   44 ..............................
........................................................................
   1   -255.1264552 -0.255126E+03  0.366E-02    0.47       0.0  T
   2   -255.1264579 -0.264134E-05  0.204E-02    0.47       1.0  T
   3   -255.1264537  0.420310E-05  0.548E-03    0.47       1.6  T
   4   -255.1264588 -0.515301E-05  0.137E-03    0.47       6.2  T
   5   -255.1264590 -0.179980E-06  0.812E-04    0.47      10.5  T
   6   -255.1264591 -0.690337E-07  0.330E-04    0.47      25.8  T
     SCC iter.                  ...        0 min,  0.159 sec
     gradient                   ...        0 min,  0.263 sec
 * total energy  :  -251.3409658 Eh     change       -0.1293493E-03 Eh
   gradient norm :     0.0043571 Eh/α   predicted    -0.1132260E-03 ( -12.46%)
   displ. norm   :     0.2087109 α      lambda       -0.3348241E-03
   maximum displ.:     0.0904707 α      in ANC's #5, #19, #28, ...

........................................................................
.............................. CYCLE   45 ..............................
........................................................................
   1   -255.1291074 -0.255129E+03  0.760E-02    0.48       0.0  T
   2   -255.1291177 -0.103220E-04  0.423E-02    0.48       1.0  T
   3   -255.1291073  0.103778E-04  0.926E-03    0.48       1.0  T
   4   -255.1291214 -0.140931E-04  0.259E-03    0.47       3.3  T
   5   -255.1291220 -0.548567E-06  0.161E-03    0.48       5.3  T
   6   -255.1291223 -0.277536E-06  0.576E-04    0.48      14.8  T
   7   -255.1291223 -0.269380E-07  0.267E-04    0.48      31.9  T
     SCC iter.                  ...        0 min,  0.184 sec
     gradient                   ...        0 min,  0.264 sec
 * total energy  :  -251.3409621 Eh     change        0.3711112E-05 Eh
   gradient norm :     0.0150982 Eh/α   predicted    -0.1747072E-03 (*******%)
   displ. norm   :     0.1318799 α      lambda       -0.4134238E-03
   maximum displ.:     0.0581943 α      in ANC's #5, #14, #19, ...

........................................................................
.............................. CYCLE   46 ..............................
........................................................................
   1   -255.1288725 -0.255129E+03  0.693E-02    0.48       0.0  T
   2   -255.1288805 -0.808677E-05  0.384E-02    0.47       1.0  T
   3   -255.1288782  0.238626E-05  0.549E-03    0.48       1.6  T
   4   -255.1288838 -0.564569E-05  0.168E-03    0.47       5.1  T
   5   -255.1288839 -0.747096E-07  0.107E-03    0.47       8.0  T
   6   -255.1288840 -0.135605E-06  0.321E-04    0.47      26.5  T
   7   -255.1288840 -0.135685E-07  0.132E-04    0.47      64.4  T
     SCC iter.                  ...        0 min,  0.186 sec
     gradient                   ...        0 min,  0.259 sec
 * total energy  :  -251.3411493 Eh     change       -0.1872620E-03 Eh
   gradient norm :     0.0089447 Eh/α   predicted    -0.2103117E-03 (  12.31%)
   displ. norm   :     0.1431312 α      lambda       -0.3451997E-03
   maximum displ.:     0.0606825 α      in ANC's #5, #19, #28, ...

........................................................................
.............................. CYCLE   47 ..............................
........................................................................
   1   -255.1251835 -0.255125E+03  0.674E-02    0.47       0.0  T
   2   -255.1251913 -0.779843E-05  0.373E-02    0.47       1.0  T
   3   -255.1251899  0.132264E-05  0.567E-03    0.47       1.5  T
   4   -255.1251942 -0.428113E-05  0.170E-03    0.47       5.0  T
   5   -255.1251943 -0.100029E-06  0.101E-03    0.47       8.4  T
   6   -255.1251944 -0.976066E-07  0.463E-04    0.47      18.4  T
   7   -255.1251944 -0.324752E-07  0.147E-04    0.47      58.1  T
     SCC iter.                  ...        0 min,  0.181 sec
     gradient                   ...        0 min,  0.257 sec
 * total energy  :  -251.3412766 Eh     change       -0.1272891E-03 Eh
   gradient norm :     0.0073854 Eh/α   predicted    -0.1761366E-03 (  38.38%)
   displ. norm   :     0.2063330 α      lambda       -0.2167501E-03
   maximum displ.:     0.0998701 α      in ANC's #5, #19, #28, ...

........................................................................
.............................. CYCLE   48 ..............................
........................................................................
   1   -255.1253037 -0.255125E+03  0.368E-02    0.47       0.0  T
   2   -255.1253054 -0.171067E-05  0.206E-02    0.47       1.0  T
   3   -255.1253041  0.133491E-05  0.374E-03    0.48       2.3  T
   4   -255.1253061 -0.201613E-05  0.117E-03    0.47       7.3  T
   5   -255.1253061 -0.229107E-07  0.765E-04    0.47      11.1  T
   6   -255.1253062 -0.709476E-07  0.222E-04    0.47      38.3  T
     SCC iter.                  ...        0 min,  0.157 sec
     gradient                   ...        0 min,  0.262 sec
 * total energy  :  -251.3414481 Eh     change       -0.1714486E-03 Eh
   gradient norm :     0.0057488 Eh/α   predicted    -0.1129892E-03 ( -34.10%)
   displ. norm   :     0.6022885 α      lambda       -0.5647106E-03
   maximum displ.:     0.2838726 α      in ANC's #5, #19, #28, ...

........................................................................
.............................. CYCLE   49 ..............................
........................................................................
   1   -255.1252452 -0.255125E+03  0.822E-02    0.48       0.0  T
   2   -255.1252521 -0.695352E-05  0.470E-02    0.48       1.0  T
   3   -255.1252236  0.285570E-04  0.141E-02    0.48       1.0  T
   4   -255.1252560 -0.323925E-04  0.308E-03    0.48       2.8  T
   5   -255.1252564 -0.406677E-06  0.197E-03    0.48       4.3  T
   6   -255.1252568 -0.406281E-06  0.740E-04    0.48      11.5  T
   7   -255.1252569 -0.536160E-07  0.323E-04    0.48      26.3  T
     SCC iter.                  ...        0 min,  0.185 sec
     gradient                   ...        0 min,  0.263 sec
 * total energy  :  -251.3416574 Eh     change       -0.2093383E-03 Eh
   gradient norm :     0.0145870 Eh/α   predicted    -0.3847798E-03 (  83.81%)
   displ. norm   :     0.3275557 α      lambda       -0.3994672E-03
   maximum displ.:     0.1663544 α      in ANC's #5, #19, #9, ...

........................................................................
.............................. CYCLE   50 ..............................
........................................................................
   1   -255.1231104 -0.255123E+03  0.655E-02    0.48       0.0  T
   2   -255.1231173 -0.683644E-05  0.365E-02    0.48       1.0  T
   3   -255.1231157  0.156962E-05  0.545E-03    0.48       1.6  T
   4   -255.1231198 -0.410559E-05  0.184E-03    0.48       4.6  T
   5   -255.1231199 -0.114870E-06  0.900E-04    0.48       9.5  T
   6   -255.1231200 -0.673612E-07  0.355E-04    0.48      24.0  T
     SCC iter.                  ...        0 min,  0.157 sec
     gradient                   ...        0 min,  0.257 sec
 * total energy  :  -251.3419322 Eh     change       -0.2748552E-03 Eh
   gradient norm :     0.0085872 Eh/α   predicted    -0.2211658E-03 ( -19.53%)
   displ. norm   :     0.3361476 α      lambda       -0.4017926E-03
   maximum displ.:     0.1819067 α      in ANC's #5, #19, #9, ...

........................................................................
.............................. CYCLE   51 ..............................
........................................................................
   1   -255.1236506 -0.255124E+03  0.761E-02    0.48       0.0  T
   2   -255.1236599 -0.929692E-05  0.422E-02    0.48       1.0  T
   3   -255.1236422  0.177055E-04  0.117E-02    0.48       1.0  T
   4   -255.1236641 -0.219711E-04  0.243E-03    0.48       3.5  T
   5   -255.1236645 -0.372817E-06  0.140E-03    0.48       6.1  T
   6   -255.1236647 -0.149200E-06  0.584E-04    0.48      14.6  T
   7   -255.1236647 -0.361620E-07  0.252E-04    0.48      33.7  T
     SCC iter.                  ...        0 min,  0.181 sec
     gradient                   ...        0 min,  0.257 sec
 * total energy  :  -251.3421205 Eh     change       -0.1882938E-03 Eh
   gradient norm :     0.0133986 Eh/α   predicted    -0.2235989E-03 (  18.75%)
   displ. norm   :     0.4028211 α      lambda       -0.3679344E-03
   maximum displ.:     0.2137388 α      in ANC's #5, #9, #19, ...

........................................................................
.............................. CYCLE   52 ..............................
........................................................................
   1   -255.1265006 -0.255127E+03  0.497E-02    0.49       0.0  T
   2   -255.1265039 -0.321508E-05  0.283E-02    0.49       1.0  T
   3   -255.1264987  0.515736E-05  0.704E-03    0.49       1.2  T
   4   -255.1265052 -0.652793E-05  0.177E-03    0.49       4.8  T
   5   -255.1265053 -0.976607E-07  0.108E-03    0.49       7.9  T
   6   -255.1265054 -0.119261E-06  0.458E-04    0.49      18.6  T
   7   -255.1265055 -0.251645E-07  0.180E-04    0.49      47.2  T
     SCC iter.                  ...        0 min,  0.181 sec
     gradient                   ...        0 min,  0.257 sec
 * total energy  :  -251.3424058 Eh     change       -0.2852696E-03 Eh
   gradient norm :     0.0054979 Eh/α   predicted    -0.2138271E-03 ( -25.04%)
   displ. norm   :     0.6797763 α      lambda       -0.3993193E-03
   maximum displ.:     0.3592876 α      in ANC's #5, #9, #19, ...

........................................................................
.............................. CYCLE   53 ..............................
........................................................................
   1   -255.1250142 -0.255125E+03  0.606E-02    0.49       0.0  T
   2   -255.1250181 -0.390301E-05  0.353E-02    0.50       1.0  T
   3   -255.1250038  0.143547E-04  0.100E-02    0.49       1.0  T
   4   -255.1250192 -0.154583E-04  0.264E-03    0.50       3.2  T
   5   -255.1250199 -0.704016E-06  0.150E-03    0.50       5.7  T
   6   -255.1250202 -0.267822E-06  0.706E-04    0.50      12.1  T
   7   -255.1250203 -0.620097E-07  0.287E-04    0.50      29.6  T
     SCC iter.                  ...        0 min,  0.181 sec
     gradient                   ...        0 min,  0.258 sec
 * total energy  :  -251.3426915 Eh     change       -0.2856717E-03 Eh
   gradient norm :     0.0067914 Eh/α   predicted    -0.2919220E-03 (   2.19%)
   displ. norm   :     0.5092592 α      lambda       -0.4011421E-03
   maximum displ.:     0.2977037 α      in ANC's #5, #9, #10, ...

........................................................................
.............................. CYCLE   54 ..............................
........................................................................
   1   -255.1307101 -0.255131E+03  0.435E-02    0.50       0.0  T
   2   -255.1307129 -0.282993E-05  0.252E-02    0.51       1.0  T
   3   -255.1306897  0.231639E-04  0.114E-02    0.50       1.0  T
   4   -255.1307138 -0.241060E-04  0.307E-03    0.51       2.8  T
   5   -255.1307154 -0.157495E-05  0.131E-03    0.51       6.5  T
   6   -255.1307156 -0.153705E-06  0.583E-04    0.51      14.6  T
   7   -255.1307156 -0.316736E-07  0.267E-04    0.51      31.9  T
     SCC iter.                  ...        0 min,  0.181 sec
     gradient                   ...        0 min,  0.257 sec
 * total energy  :  -251.3429699 Eh     change       -0.2784021E-03 Eh
   gradient norm :     0.0097026 Eh/α   predicted    -0.2525937E-03 (  -9.27%)
   displ. norm   :     0.6443438 α      lambda       -0.3406132E-03
   maximum displ.:     0.3692993 α      in ANC's #5, #9, #10, ...

........................................................................
.............................. CYCLE   55 ..............................
........................................................................
   1   -255.1284744 -0.255128E+03  0.534E-02    0.51       0.0  T
   2   -255.1284774 -0.299816E-05  0.310E-02    0.51       1.0  T
   3   -255.1284420  0.353839E-04  0.137E-02    0.51       1.0  T
   4   -255.1284791 -0.370827E-04  0.315E-03    0.52       2.7  T
   5   -255.1284807 -0.154851E-05  0.143E-03    0.51       6.0  T
   6   -255.1284808 -0.187325E-06  0.634E-04    0.51      13.4  T
   7   -255.1284809 -0.356816E-07  0.263E-04    0.51      32.4  T
     SCC iter.                  ...        0 min,  0.181 sec
     gradient                   ...        0 min,  0.257 sec
 * total energy  :  -251.3432793 Eh     change       -0.3094276E-03 Eh
   gradient norm :     0.0069448 Eh/α   predicted    -0.2410174E-03 ( -22.11%)
   displ. norm   :     0.5832346 α      lambda       -0.4294481E-03
   maximum displ.:     0.3450416 α      in ANC's #5, #9, #10, ...

........................................................................
.............................. CYCLE   56 ..............................
........................................................................
   1   -255.1281358 -0.255128E+03  0.595E-02    0.51       0.0  T
   2   -255.1281405 -0.463567E-05  0.339E-02    0.52       1.0  T
   3   -255.1280865  0.539593E-04  0.166E-02    0.51       1.0  T
   4   -255.1281443 -0.577805E-04  0.343E-03    0.52       2.5  T
   5   -255.1281459 -0.164203E-05  0.166E-03    0.52       5.1  T
   6   -255.1281462 -0.241607E-06  0.684E-04    0.52      12.4  T
   7   -255.1281462 -0.344029E-07  0.283E-04    0.52      30.1  T
     SCC iter.                  ...        0 min,  0.182 sec
     gradient                   ...        0 min,  0.257 sec
 * total energy  :  -251.3436210 Eh     change       -0.3416896E-03 Eh
   gradient norm :     0.0064125 Eh/α   predicted    -0.2877707E-03 ( -15.78%)
   displ. norm   :     0.7015514 α      lambda       -0.3704695E-03
   maximum displ.:     0.4096208 α      in ANC's #5, #10, #9, ...

........................................................................
.............................. CYCLE   57 ..............................
........................................................................
   1   -255.1268684 -0.255127E+03  0.581E-02    0.52       0.0  T
   2   -255.1268723 -0.388070E-05  0.336E-02    0.52       1.0  T
   3   -255.1268184  0.539179E-04  0.167E-02    0.52       1.0  T
   4   -255.1268752 -0.567818E-04  0.381E-03    0.52       2.2  T
   5   -255.1268775 -0.235802E-05  0.166E-03    0.52       5.1  T
   6   -255.1268778 -0.255540E-06  0.730E-04    0.52      11.7  T
   7   -255.1268778 -0.437036E-07  0.304E-04    0.52      28.0  T
     SCC iter.                  ...        0 min,  0.181 sec
     gradient                   ...        0 min,  0.257 sec
 * total energy  :  -251.3439505 Eh     change       -0.3294696E-03 Eh
   gradient norm :     0.0073163 Eh/α   predicted    -0.2764061E-03 ( -16.11%)
   displ. norm   :     0.7051907 α      lambda       -0.4183376E-03
   maximum displ.:     0.4183222 α      in ANC's #5, #10, #9, ...

........................................................................
.............................. CYCLE   58 ..............................
........................................................................
   1   -255.1276710 -0.255128E+03  0.658E-02    0.52       0.0  T
   2   -255.1276763 -0.536332E-05  0.378E-02    0.53       1.0  T
   3   -255.1276136  0.627325E-04  0.181E-02    0.52       1.0  T
   4   -255.1276803 -0.666752E-04  0.416E-03    0.53       2.0  T
   5   -255.1276829 -0.264842E-05  0.191E-03    0.53       4.5  T
   6   -255.1276832 -0.312354E-06  0.824E-04    0.53      10.3  T
   7   -255.1276833 -0.644520E-07  0.339E-04    0.53      25.1  T
     SCC iter.                  ...        0 min,  0.182 sec
     gradient                   ...        0 min,  0.258 sec
 * total energy  :  -251.3443238 Eh     change       -0.3733286E-03 Eh
   gradient norm :     0.0059623 Eh/α   predicted    -0.3131884E-03 ( -16.11%)
   displ. norm   :     0.7683784 α      lambda       -0.4369875E-03
   maximum displ.:     0.4611526 α      in ANC's #5, #10, #9, ...

........................................................................
.............................. CYCLE   59 ..............................
........................................................................
   1   -255.1280082 -0.255128E+03  0.714E-02    0.53       0.0  T
   2   -255.1280145 -0.630116E-05  0.410E-02    0.53       1.0  T
   3   -255.1279677  0.468061E-04  0.162E-02    0.53       1.0  T
   4   -255.1280183 -0.506253E-04  0.387E-03    0.53       2.2  T
[...]
    36   9 F    1.119 --    23 C    0.983
    37   6 C    3.899 --    45 C    1.359    38 C    1.198    48 S    1.085
    38   6 C    3.932 --    39 C    1.406    37 C    1.198    42 S    1.157
    39   6 C    3.961 --    38 C    1.406    40 C    1.377    99 H    0.958
    40   6 C    3.959 --    39 C    1.377    41 C    1.340    43 C    1.027
    41   6 C    3.929 --    40 C    1.340    17 C    1.312    42 S    1.082
    42  16 S    2.569 --    38 C    1.157    41 C    1.082
    43   6 C    3.993 --    40 C    1.027    44 C    1.009   101 H    0.967
                           100 H    0.927
    44   6 C    3.994 --    43 C    1.009   104 H    0.987   103 H    0.986
                           102 H    0.985
    45   6 C    3.946 --    37 C    1.359    46 C    1.219    52 N    1.133
    46   6 C    3.929 --    47 C    1.369    45 C    1.219    49 S    1.117
    47   6 C    3.929 --    46 C    1.369    51 C    1.226    48 S    1.109
    48  16 S    2.530 --    47 C    1.109    37 C    1.085
    49  16 S    2.562 --    46 C    1.117    50 C    1.085
    50   6 C    3.911 --    51 C    1.352    78 C    1.229    49 S    1.085
    51   6 C    3.938 --    50 C    1.352    47 C    1.226    65 N    1.121
    52   7 N    3.486 --    45 C    1.133    54 C    1.031    53 C    1.027
    53   6 C    3.959 --    55 C    1.384    59 C    1.353    52 N    1.027
    54   6 C    3.959 --    64 C    1.380    60 C    1.350    52 N    1.031
    55   6 C    3.984 --    56 C    1.446    53 C    1.384   105 H    0.968
                            58 C    0.101
    56   6 C    3.987 --    55 C    1.446    57 C    1.365   106 H    0.965
    57   6 C    3.934 --    56 C    1.365    58 C    1.331    85 O    1.084
    58   6 C    3.987 --    59 C    1.489    57 C    1.331   107 H    0.967
                            55 C    0.101
    59   6 C    3.987 --    58 C    1.489    53 C    1.353   108 H    0.968
    60   6 C    3.983 --    61 C    1.481    54 C    1.350   109 H    0.968
    61   6 C    3.986 --    60 C    1.481    62 C    1.339   110 H    0.967
                            64 C    0.103
    62   6 C    3.924 --    63 C    1.364    61 C    1.339    86 O    1.076
    63   6 C    3.986 --    64 C    1.451    62 C    1.364   111 H    0.965
    64   6 C    3.978 --    63 C    1.451    54 C    1.380   112 H    0.968
                            61 C    0.103
    65   7 N    3.494 --    51 C    1.121    66 C    1.053    67 C    1.027
    66   6 C    3.961 --    73 C    1.374    77 C    1.341    65 N    1.053
    67   6 C    3.959 --    72 C    1.382    68 C    1.352    65 N    1.027
    68   6 C    3.982 --    69 C    1.485    67 C    1.352   113 H    0.967
    69   6 C    3.986 --    68 C    1.485    70 C    1.336   114 H    0.967
                            72 C    0.103
    70   6 C    3.925 --    71 C    1.364    69 C    1.336    87 O    1.077
    71   6 C    3.986 --    72 C    1.449    70 C    1.364   115 H    0.965
    72   6 C    3.978 --    71 C    1.449    67 C    1.382   116 H    0.968
                            69 C    0.103
    73   6 C    3.984 --    74 C    1.447    66 C    1.374   117 H    0.968
                            76 C    0.102
    74   6 C    3.986 --    73 C    1.447    75 C    1.368   118 H    0.966
    75   6 C    3.926 --    74 C    1.368    76 C    1.335    88 O    1.068
    76   6 C    3.987 --    77 C    1.488    75 C    1.335   119 H    0.967
                            73 C    0.102
    77   6 C    3.980 --    76 C    1.488    66 C    1.341   120 H    0.966
    78   6 C    3.941 --    82 C    1.354    50 C    1.229    79 S    1.177
    79  16 S    2.737 --    78 C    1.177    80 C    1.096    20 O    0.122
    80   6 C    3.928 --    35 C    1.351    81 C    1.290    79 S    1.096
    81   6 C    3.961 --    82 C    1.436    80 C    1.290    83 C    1.018
    82   6 C    3.959 --    81 C    1.436    78 C    1.354   121 H    0.957
    83   6 C    3.994 --    81 C    1.018    84 C    0.992   123 H    0.971
                           122 H    0.965
    84   6 C    3.990 --    83 C    0.992   126 H    0.987   124 H    0.986
                           125 H    0.984
    85   8 O    2.246 --    57 C    1.084    89 C    0.980
    86   8 O    2.238 --    62 C    1.076    90 C    0.982
    87   8 O    2.241 --    70 C    1.077    91 C    0.982
    88   8 O    2.231 --    75 C    1.068    92 C    0.983
    89   6 C    3.941 --   128 H    0.980    85 O    0.980   127 H    0.977
                           129 H    0.972
    90   6 C    3.943 --    86 O    0.982   132 H    0.979   131 H    0.976
                           130 H    0.976
    91   6 C    3.942 --    87 O    0.982   135 H    0.979   133 H    0.976
                           134 H    0.976
    92   6 C    3.944 --    88 O    0.983   137 H    0.979   138 H    0.976
                           136 H    0.976
    93   1 H    0.992 --     4 C    0.960
    94   1 H    0.991 --     7 C    0.955
    95   1 H    0.993 --    17 C    0.944
    96   1 H    0.992 --    22 C    0.960
    97   1 H    0.991 --    25 C    0.954
    98   1 H    0.994 --    35 C    0.933
    99   1 H    0.996 --    39 C    0.958
   100   1 H    0.990 --    43 C    0.927
   101   1 H    0.997 --    43 C    0.967
   102   1 H    0.998 --    44 C    0.985
   103   1 H    0.997 --    44 C    0.986
   104   1 H    0.998 --    44 C    0.987
   105   1 H    0.998 --    55 C    0.968
   106   1 H    0.997 --    56 C    0.965
   107   1 H    0.997 --    58 C    0.967
   108   1 H    0.998 --    59 C    0.968
   109   1 H    0.998 --    60 C    0.968
   110   1 H    0.996 --    61 C    0.967
   111   1 H    0.997 --    63 C    0.965
   112   1 H    0.998 --    64 C    0.968
   113   1 H    0.998 --    68 C    0.967
   114   1 H    0.996 --    69 C    0.967
   115   1 H    0.997 --    71 C    0.965
   116   1 H    0.998 --    72 C    0.968
   117   1 H    0.999 --    73 C    0.968
   118   1 H    0.998 --    74 C    0.966
   119   1 H    0.996 --    76 C    0.967
   120   1 H    0.997 --    77 C    0.966
   121   1 H    0.997 --    82 C    0.957
   122   1 H    0.996 --    83 C    0.965
   123   1 H    0.997 --    83 C    0.971
   124   1 H    0.999 --    84 C    0.986
   125   1 H    0.995 --    84 C    0.984
   126   1 H    0.998 --    84 C    0.987
   127   1 H    0.998 --    89 C    0.977
   128   1 H    0.996 --    89 C    0.980
   129   1 H    0.996 --    89 C    0.972
   130   1 H    0.998 --    90 C    0.976
   131   1 H    0.997 --    90 C    0.976
   132   1 H    0.995 --    90 C    0.979
   133   1 H    0.997 --    91 C    0.976
   134   1 H    0.998 --    91 C    0.976
   135   1 H    0.995 --    91 C    0.979
   136   1 H    0.998 --    92 C    0.976
   137   1 H    0.995 --    92 C    0.979
   138   1 H    0.998 --    92 C    0.976
 ---------------------------------------------------------------------------

Topologies differ in bond orders
Writing corrected topology to xtbtopo.mol

molecular dipole:
                 x           y           z       tot (Debye)
 q only:       -0.842       0.566       1.172
   full:       -0.383       0.226       0.332       1.411
molecular quadrupole (traceless):
                xx          xy          yy          xz          yz          zz
 q only:      -17.846    -156.888     -64.254     -18.577     -22.738      82.100
  q+dip:      -18.079    -168.759     -72.615     -17.526     -20.187      90.694
   full:      -21.248    -173.231     -71.505     -11.925     -26.060      92.753

           -------------------------------------------------
          |                Geometry Summary                 |
           -------------------------------------------------

      molecular mass/u    :     1295.4276704
   center of mass at/Å    :        0.1526460      -0.0960242      -0.5515664
  moments of inertia/u·Å² :        0.1800700E+05   0.6255579E+05   0.7560518E+05
rotational constants/cm⁻¹ :        0.9361710E-03   0.2694816E-03   0.2229693E-03

 * 137 selected distances

     #   Z          #   Z                                           value/Å
     1   6 C        2   8 O                                       1.2162542
     3   6 C        4   6 C                                       1.3800275
     4   6 C        5   6 C                                       1.3859943
     5   6 C        6   6 C                                       1.3938155
     6   6 C        7   6 C                                       1.3874945
     3   6 C        8   6 C                                       1.4042766
     7   6 C        8   6 C                                       1.3854527
     9   6 C       10   6 C                                       1.3715976
    11   6 C       12   7 N                                       1.1484142
    13   6 C       14   7 N                                       1.1479366
     6   6 C       16   9 F                                       1.3385854
    15   6 C       17   6 C                                       1.3777677
     5   6 C       18   9 F                                       1.3402620
    19   6 C       20   8 O                                       1.2182308
    21   6 C       22   6 C                                       1.3796055
    22   6 C       23   6 C                                       1.3857071
    23   6 C       24   6 C                                       1.3937314
    24   6 C       25   6 C                                       1.3879584
    21   6 C       26   6 C                                       1.4040356
    25   6 C       26   6 C                                       1.3855075
    27   6 C       28   6 C                                       1.3733562
    29   6 C       30   7 N                                       1.1494513
    31   6 C       32   7 N                                       1.1481388
    24   6 C       34   9 F                                       1.3386805
    33   6 C       35   6 C                                       1.3805647
    23   6 C       36   9 F                                       1.3408082
    37   6 C       38   6 C                                       1.4170401
    38   6 C       39   6 C                                       1.3848432
    39   6 C       40   6 C                                       1.3917123
    17   6 C       41   6 C                                       1.3997928
    40   6 C       41   6 C                                       1.4001021
    38   6 C       42  16 S                                       1.7279945
    41   6 C       42  16 S                                       1.7565414
    40   6 C       43   6 C                                       1.4905671
    43   6 C       44   6 C                                       1.5258268
    37   6 C       45   6 C                                       1.3953150
    45   6 C       46   6 C                                       1.4147107
    46   6 C       47   6 C                                       1.3859253
    37   6 C       48  16 S                                       1.7591797
    47   6 C       48  16 S                                       1.7324693
    46   6 C       49  16 S                                       1.7244295
    49  16 S       50   6 C                                       1.7633536 (max)
    47   6 C       51   6 C                                       1.4175055
    50   6 C       51   6 C                                       1.3995364
    45   6 C       52   7 N                                       1.3730861
    52   7 N       53   6 C                                       1.4094865
    52   7 N       54   6 C                                       1.4080228
    53   6 C       55   6 C                                       1.3885425
    55   6 C       56   6 C                                       1.3831285
    56   6 C       57   6 C                                       1.3917270
    57   6 C       58   6 C                                       1.3980666
    53   6 C       59   6 C                                       1.3943262
    58   6 C       59   6 C                                       1.3745790
    54   6 C       60   6 C                                       1.3950699
    60   6 C       61   6 C                                       1.3757312
    61   6 C       62   6 C                                       1.3968979
    62   6 C       63   6 C                                       1.3924517
    54   6 C       64   6 C                                       1.3889300
    63   6 C       64   6 C                                       1.3820902
    51   6 C       65   7 N                                       1.3773978
    65   7 N       66   6 C                                       1.4003327
    65   7 N       67   6 C                                       1.4103051
    67   6 C       68   6 C                                       1.3950314
    68   6 C       69   6 C                                       1.3751332
    69   6 C       70   6 C                                       1.3975308
    70   6 C       71   6 C                                       1.3922204
    67   6 C       72   6 C                                       1.3889353
    71   6 C       72   6 C                                       1.3824641
    66   6 C       73   6 C                                       1.3901993
    73   6 C       74   6 C                                       1.3827977
    74   6 C       75   6 C                                       1.3910704
    75   6 C       76   6 C                                       1.3975218
    66   6 C       77   6 C                                       1.3972952
    76   6 C       77   6 C                                       1.3752128
    50   6 C       78   6 C                                       1.4138379
    78   6 C       79  16 S                                       1.7338677
    35   6 C       80   6 C                                       1.3927492
    79  16 S       80   6 C                                       1.7511776
    80   6 C       81   6 C                                       1.4114626
    78   6 C       82   6 C                                       1.3917721
    81   6 C       82   6 C                                       1.3828542
    81   6 C       83   6 C                                       1.4948131
    83   6 C       84   6 C                                       1.5313145
    57   6 C       85   8 O                                       1.3533904
    62   6 C       86   8 O                                       1.3567193
    70   6 C       87   8 O                                       1.3563101
    75   6 C       88   8 O                                       1.3595039
    85   8 O       89   6 C                                       1.4088750
    86   8 O       90   6 C                                       1.4079539
    87   8 O       91   6 C                                       1.4083084
    88   8 O       92   6 C                                       1.4075023
     4   6 C       93   1 H                                       1.0781962
     7   6 C       94   1 H                                       1.0775782
    17   6 C       95   1 H                                       1.0842841
    22   6 C       96   1 H                                       1.0781107
    25   6 C       97   1 H                                       1.0774543
    35   6 C       98   1 H                                       1.0815875
    39   6 C       99   1 H                                       1.0734898
    43   6 C      100   1 H                                       1.0948421
    43   6 C      101   1 H                                       1.0930524
    44   6 C      102   1 H                                       1.0865019
    44   6 C      103   1 H                                       1.0872428
    44   6 C      104   1 H                                       1.0877281
    55   6 C      105   1 H                                       1.0804772
    56   6 C      106   1 H                                       1.0777800
    58   6 C      107   1 H                                       1.0782729
    59   6 C      108   1 H                                       1.0799236
    60   6 C      109   1 H                                       1.0802882
    61   6 C      110   1 H                                       1.0779759
    63   6 C      111   1 H                                       1.0780318
    64   6 C      112   1 H                                       1.0798347
    68   6 C      113   1 H                                       1.0801346
    69   6 C      114   1 H                                       1.0780265
    71   6 C      115   1 H                                       1.0780143
    72   6 C      116   1 H                                       1.0797074
    73   6 C      117   1 H                                       1.0792555
    74   6 C      118   1 H                                       1.0781530
    76   6 C      119   1 H                                       1.0780779
    77   6 C      120   1 H                                       1.0797596
    82   6 C      121   1 H                                       1.0733911 (min)
    83   6 C      122   1 H                                       1.0905561
    83   6 C      123   1 H                                       1.0912102
    84   6 C      124   1 H                                       1.0875928
    84   6 C      125   1 H                                       1.0861797
    84   6 C      126   1 H                                       1.0874321
    89   6 C      127   1 H                                       1.0950809
    89   6 C      128   1 H                                       1.0889683
    89   6 C      129   1 H                                       1.0929125
    90   6 C      130   1 H                                       1.0949231
    90   6 C      131   1 H                                       1.0945806
    90   6 C      132   1 H                                       1.0890356
    91   6 C      133   1 H                                       1.0942501
    91   6 C      134   1 H                                       1.0946770
    91   6 C      135   1 H                                       1.0886342
    92   6 C      136   1 H                                       1.0948361
    92   6 C      137   1 H                                       1.0885799
    92   6 C      138   1 H                                       1.0946353

 * 6 distinct bonds (by element types)

   Z      Z             #   av. dist./Å        max./Å        min./Å
   1 H    6 C          46     1.0845925     1.0950809     1.0733911
   6 C    6 C          59     1.3990767     1.5313145     1.3715976
   6 C    7 N          10     1.2972572     1.4103051     1.1479366
   6 C    8 O          10     1.3493048     1.4088750     1.2162542
   6 C    9 F           4     1.3395840     1.3408082     1.3385854
   6 C   16 S           8     1.7436267     1.7633536     1.7244295


optimized geometry written to: xtbopt.mol


           -------------------------------------------------
          | TOTAL ENERGY             -251.357239394723 Eh   |
          | GRADIENT NORM               0.000819381484 Eh/α |
          | HOMO-LUMO GAP               0.662906343682 eV   |
           -------------------------------------------------

------------------------------------------------------------------------
 * finished run on 2021/12/20 at 13:54:16.879     
------------------------------------------------------------------------
 total:
 * wall-time:     0 d,  0 h,  1 min, 21.690 sec
 *  cpu-time:     0 d,  0 h,  1 min, 21.497 sec
 * ratio c/w:     0.998 speedup
 SCF:
 * wall-time:     0 d,  0 h,  0 min,  0.723 sec
 *  cpu-time:     0 d,  0 h,  0 min,  0.721 sec
 * ratio c/w:     0.998 speedup
 ANC optimizer:
 * wall-time:     0 d,  0 h,  1 min, 20.892 sec
 *  cpu-time:     0 d,  0 h,  1 min, 20.701 sec
 * ratio c/w:     0.998 speedup

