      -----------------------------------------------------------      
     |                   =====================                   |     
     |                           x T B                           |     
     |                   =====================                   |     
     |                         S. Grimme                         |     
     |          Mulliken Center for Theoretical Chemistry        |     
     |                    University of Bonn                     |     
      -----------------------------------------------------------      

   * xtb version 6.4.1 (unknown) compiled by 'oda6@login1.crc.pitt.edu' on 2021-06-25

   xtb is free software: you can redistribute it and/or modify it under
   the terms of the GNU Lesser General Public License as published by
   the Free Software Foundation, either version 3 of the License, or
   (at your option) any later version.
   
   xtb is distributed in the hope that it will be useful,
   but WITHOUT ANY WARRANTY; without even the implied warranty of
   MERCHANTABILITY or FITNESS FOR A PARTICULAR PURPOSE.  See the
   GNU Lesser General Public License for more details.
   
   Cite this work as:
   * C. Bannwarth, E. Caldeweyher, S. Ehlert, A. Hansen, P. Pracht,
     J. Seibert, S. Spicher, S. Grimme, WIREs Comput. Mol. Sci., 2020, 11,
     e01493. DOI: 10.1002/wcms.1493
   
   for GFN2-xTB:
   * C. Bannwarth, S. Ehlert and S. Grimme., J. Chem. Theory Comput., 2019,
     15, 1652-1671. DOI: 10.1021/acs.jctc.8b01176
   for GFN1-xTB:
   * S. Grimme, C. Bannwarth, P. Shushkov, J. Chem. Theory Comput., 2017,
     13, 1989-2009. DOI: 10.1021/acs.jctc.7b00118
   for GFN0-xTB:
   * P. Pracht, E. Caldeweyher, S. Ehlert, S. Grimme, ChemRxiv, 2019, preprint.
     DOI: 10.26434/chemrxiv.8326202.v1
   for GFN-FF:
   * S. Spicher and S. Grimme, Angew. Chem. Int. Ed., 2020, 59, 15665-15673.
     DOI: 10.1002/anie.202004239
   
   for DFT-D4:
   * E. Caldeweyher, C. Bannwarth and S. Grimme, J. Chem. Phys., 2017,
     147, 034112. DOI: 10.1063/1.4993215
   * E. Caldeweyher, S. Ehlert, A. Hansen, H. Neugebauer, S. Spicher,
     C. Bannwarth and S. Grimme, J. Chem. Phys., 2019, 150, 154122.
     DOI: 10.1063/1.5090222
   * E. Caldeweyher, J.-M. Mewes, S. Ehlert and S. Grimme, Phys. Chem. Chem. Phys.
     2020, 22, 8499-8512. DOI: 10.1039/D0CP00502A
   
   for sTDA-xTB:
   * S. Grimme and C. Bannwarth, J. Chem. Phys., 2016, 145, 054103.
     DOI: 10.1063/1.4959605
   
   in the mass-spec context:
   * V. Asgeirsson, C. Bauer and S. Grimme, Chem. Sci., 2017, 8, 4879.
     DOI: 10.1039/c7sc00601b
   * J. Koopman and S. Grimme, ACS Omega 2019, 4, 12, 15120-15133.
     DOI: 10.1021/acsomega.9b02011
   
   for metadynamics refer to:
   * S. Grimme, J. Chem. Theory Comput., 2019, 155, 2847-2862
     DOI: 10.1021/acs.jctc.9b00143
   
   for SPH calculations refer to:
   * S. Spicher and S. Grimme, J. Chem. Theory Comput., 2021, 17, 1701-1714
     DOI: 10.1021/acs.jctc.0c01306
   
   with help from (in alphabetical order)
   P. Atkinson, C. Bannwarth, F. Bohle, G. Brandenburg, E. Caldeweyher
   M. Checinski, S. Dohm, S. Ehlert, S. Ehrlich, I. Gerasimov, J. Koopman
   C. Lavigne, S. Lehtola, F. März, M. Müller, F. Musil, H. Neugebauer
   J. Pisarek, C. Plett, P. Pracht, J. Seibert, P. Shushkov, S. Spicher
   M. Stahn, M. Steiner, T. Strunk, J. Stückrath, T. Rose, and J. Unsleber
   
 * started run on 2021/12/22 at 15:44:24.181     

           -------------------------------------------------
          |                Calculation Setup                |
           -------------------------------------------------

          program call               : /ihome/ghutchison/oda6/xtb/xtb-641/bin//xtb PF2-DTC.mol -opt
          hostname                   : smp-n104
          coordinate file            : PF2-DTC.mol
          omp threads                :                     1
          number of atoms            :                   236
          number of electrons        :                   706
          charge                     :                     0
          spin                       :                   0.0
          first test random number   :      0.83524706307612

   ID    Z sym.   atoms
    1    6 C      1-12, 14, 15, 17-46, 49-54, 59-62, 64-68, 70-85, 87, 88,
                  90-119, 122-127, 132-135, 137-141, 143-146
    2   16 S      13, 16, 63, 69, 86, 89, 136, 142
    3    8 O      47, 48, 120, 121
    4    7 N      55-58, 128-131
    5    1 H      147-236
########################################################################
[WARNING] Please study the warnings concerning your input carefully
-1- prog_main_parseArguments: the use of '-opt' is discouraged, please use '--opt' next time
########################################################################

           -------------------------------------------------
          |                 G F N 2 - x T B                 |
           -------------------------------------------------

        Reference                      10.1021/acs.jctc.8b01176
      * Hamiltonian:
        H0-scaling (s, p, d)           1.850000    2.230000    2.230000
        zeta-weighting                 0.500000
      * Dispersion:
        s8                             2.700000
        a1                             0.520000
        a2                             5.000000
        s9                             5.000000
      * Repulsion:
        kExp                           1.500000    1.000000
        rExp                           1.000000
      * Coulomb:
        alpha                          2.000000
        third order                    shell-resolved
        anisotropic                    true
        a3                             3.000000
        a5                             4.000000
        cn-shift                       1.200000
        cn-exp                         4.000000
        max-rad                        5.000000


          ...................................................
          :                      SETUP                      :
          :.................................................:
          :  # basis functions                 722          :
          :  # atomic orbitals                 714          :
          :  # shells                          390          :
          :  # electrons                       706          :
          :  max. iterations                   250          :
          :  Hamiltonian                  GFN2-xTB          :
          :  restarted?                      false          :
          :  GBSA solvation                  false          :
          :  PC potential                    false          :
          :  electronic temp.          300.0000000     K    :
          :  accuracy                    1.0000000          :
          :  -> integral cutoff          0.2500000E+02      :
          :  -> integral neglect         0.1000000E-07      :
          :  -> SCF convergence          0.1000000E-05 Eh   :
          :  -> wf. convergence          0.1000000E-03 e    :
          :  Broyden damping             0.4000000          :
          ...................................................

 iter      E             dE          RMSdq      gap      omega  full diag
   1   -386.2978565 -0.386298E+03  0.458E+00    1.34       0.0  T
   2   -386.4497852 -0.151929E+00  0.284E+00    0.85       1.0  T
   3   -385.9383725  0.511413E+00  0.215E+00    0.39       1.0  T
   4   -386.7130495 -0.774677E+00  0.625E-01    0.76       1.0  T
   5   -386.7788079 -0.657584E-01  0.221E-01    0.41       1.0  T
   6   -386.7838248 -0.501693E-02  0.129E-01    0.60       1.0  T
   7   -386.7870583 -0.323351E-02  0.553E-02    0.53       1.0  T
   8   -386.7875604 -0.502121E-03  0.239E-02    0.53       1.0  T
   9   -386.7876339 -0.734822E-04  0.108E-02    0.53       1.0  T
  10   -386.7876396 -0.568605E-05  0.557E-03    0.54       1.2  T
  11   -386.7876447 -0.508912E-05  0.228E-03    0.53       2.9  T
  12   -386.7876452 -0.539215E-06  0.113E-03    0.53       5.7  T
  13   -386.7876453 -0.125439E-06  0.618E-04    0.53      10.5  T
  14   -386.7876454 -0.256137E-07  0.311E-04    0.53      20.9  T

   *** convergence criteria satisfied after 14 iterations ***

         #    Occupation            Energy/Eh            Energy/eV
      -------------------------------------------------------------
         1        2.0000           -0.7621470             -20.7391
       ...           ...                  ...                  ...
       347        2.0000           -0.3918950             -10.6640
       348        2.0000           -0.3877341             -10.5508
       349        2.0000           -0.3869066             -10.5283
       350        2.0000           -0.3856110             -10.4930
       351        2.0000           -0.3773699             -10.2688
       352        2.0000           -0.3654230              -9.9437
       353        1.9999           -0.3642361              -9.9114 (HOMO)
       354        0.0001           -0.3446082              -9.3773 (LUMO)
       355                         -0.3375566              -9.1854
       356                         -0.3367959              -9.1647
       357                         -0.3357565              -9.1364
       358                         -0.3294618              -8.9651
       ...                                ...                  ...
       714                          1.1908961              32.4059
      -------------------------------------------------------------
                  HL-Gap            0.0196278 Eh            0.5341 eV
             Fermi-level           -0.3543029 Eh           -9.6411 eV

 SCC (total)                   0 d,  0 h,  0 min,  2.932 sec
 SCC setup                      ...        0 min,  0.006 sec (  0.202%)
 Dispersion                     ...        0 min,  0.021 sec (  0.701%)
 classical contributions        ...        0 min,  0.002 sec (  0.072%)
 integral evaluation            ...        0 min,  0.170 sec (  5.783%)
 iterations                     ...        0 min,  1.825 sec ( 62.221%)
 molecular gradient             ...        0 min,  0.893 sec ( 30.460%)
 printout                       ...        0 min,  0.016 sec (  0.560%)

         :::::::::::::::::::::::::::::::::::::::::::::::::::::
         ::                     SUMMARY                     ::
         :::::::::::::::::::::::::::::::::::::::::::::::::::::
         :: total energy            -380.732491413240 Eh    ::
         :: gradient norm              0.423723277212 Eh/a0 ::
         :: HOMO-LUMO gap              0.534100128080 eV    ::
         ::.................................................::
         :: SCC energy              -386.787645361017 Eh    ::
         :: -> isotropic ES            0.191256825950 Eh    ::
         :: -> anisotropic ES          0.041969407242 Eh    ::
         :: -> anisotropic XC          0.284575844743 Eh    ::
         :: -> dispersion             -0.367619341688 Eh    ::
         :: repulsion energy           6.043795961105 Eh    ::
         :: add. restraining           0.000000000000 Eh    ::
         :: total charge              -0.000000000001 e     ::
         :::::::::::::::::::::::::::::::::::::::::::::::::::::

      ----------------------------------------------------------- 
     |                   =====================                   |
     |                        A N C O P T                        |
     |                   =====================                   |
     |               Approximate Normal Coordinate               |
     |                Rational Function Optimizer                |
      ----------------------------------------------------------- 

          ...................................................
          :                      SETUP                      :
          :.................................................:
          :   optimization level            normal          :
          :   max. optcycles                   708          :
          :   ANC micro-cycles                  20          :
          :   degrees of freedom               702          :
          :.................................................:
          :   RF solver                   davidson          :
          :   write xtbopt.log                true          :
          :   linear?                        false          :
          :   energy convergence         0.5000000E-05 Eh   :
          :   grad. convergence          0.1000000E-02 Eh/α :
          :   maximium RF displ.         1.0000000          :
          :   Hlow (freq-cutoff)         0.1000000E-01      :
          :   Hmax (freq-cutoff)         5.0000000          :
          :   S6 in model hess.         20.0000000          :
          ...................................................

generating ANC from model Hessian ...
Using Lindh-Hessian (1995)
 Shifting diagonal of input Hessian by   1.001834704520186E-002
 Lowest  eigenvalues of input Hessian
    0.010000    0.010011    0.010014    0.000000    0.000000    0.000000
    0.000000    0.000000    0.000000    0.010020    0.010028    0.010030
    0.010044    0.010056    0.010070    0.010090    0.010102    0.010108
 Highest eigenvalues
    2.494966    2.536859    2.544283    2.594717    2.594789    2.628862
 

........................................................................
.............................. CYCLE    1 ..............................
........................................................................
   1   -386.7876454 -0.386788E+03  0.153E-04    0.53       0.0  T
   2   -386.7876454  0.764828E-09  0.139E-04    0.53      47.0  T
   3   -386.7876454 -0.432300E-08  0.602E-05    0.53     108.2  T
     SCC iter.                  ...        0 min,  0.401 sec
     gradient                   ...        0 min,  0.890 sec
 * total energy  :  -380.7324914 Eh     change       -0.1107838E-07 Eh
   gradient norm :     0.4237225 Eh/α   predicted     0.0000000E+00 (-100.00%)
   displ. norm   :     0.5167984 α      lambda       -0.1510475E+00
   maximum displ.:     0.0886032 α      in ANC's #325, #414, #461, ...

........................................................................
.............................. CYCLE    2 ..............................
........................................................................
   1   -387.0627972 -0.387063E+03  0.244E-01    0.54       0.0  T
   2   -387.0643370 -0.153976E-02  0.153E-01    0.58       1.0  T
   3   -387.0637561  0.580859E-03  0.949E-02    0.54       1.0  T
   4   -387.0648833 -0.112724E-02  0.356E-02    0.55       1.0  T
   5   -387.0651019 -0.218603E-03  0.166E-02    0.56       1.0  T
   6   -387.0651526 -0.506523E-04  0.580E-03    0.56       1.1  T
   7   -387.0651556 -0.304509E-05  0.295E-03    0.56       2.2  T
   8   -387.0651569 -0.130132E-05  0.137E-03    0.56       4.8  T
   9   -387.0651571 -0.177752E-06  0.675E-04    0.56       9.6  T
  10   -387.0651572 -0.307270E-07  0.312E-04    0.56      20.8  T
     SCC iter.                  ...        0 min,  1.318 sec
     gradient                   ...        0 min,  0.893 sec
 * total energy  :  -380.8416677 Eh     change       -0.1091762E+00 Eh
   gradient norm :     0.1795061 Eh/α   predicted    -0.9583842E-01 ( -12.22%)
   displ. norm   :     0.5473593 α      lambda       -0.6490731E-01
   maximum displ.:     0.0914991 α      in ANC's #142, #139, #325, ...

........................................................................
.............................. CYCLE    3 ..............................
........................................................................
   1   -387.2387035 -0.387239E+03  0.207E-01    0.52       0.0  T
   2   -387.2397535 -0.105000E-02  0.127E-01    0.57       1.0  T
   3   -387.2395803  0.173216E-03  0.817E-02    0.52       1.0  T
   4   -387.2402830 -0.702709E-03  0.326E-02    0.55       1.0  T
   5   -387.2404771 -0.194092E-03  0.139E-02    0.55       1.0  T
   6   -387.2405093 -0.321829E-04  0.511E-03    0.55       1.3  T
   7   -387.2405123 -0.304078E-05  0.229E-03    0.55       2.8  T
   8   -387.2405131 -0.768322E-06  0.105E-03    0.55       6.2  T
   9   -387.2405132 -0.944090E-07  0.574E-04    0.55      11.3  T
  10   -387.2405132 -0.200504E-07  0.280E-04    0.55      23.3  T
     SCC iter.                  ...        0 min,  1.330 sec
     gradient                   ...        0 min,  0.893 sec
 * total energy  :  -380.8851249 Eh     change       -0.4345724E-01 Eh
   gradient norm :     0.0606802 Eh/α   predicted    -0.4217710E-01 (  -2.95%)
   displ. norm   :     0.6465746 α      lambda       -0.2456619E-01
   maximum displ.:     0.1442410 α      in ANC's #88, #108, #142, ...

........................................................................
.............................. CYCLE    4 ..............................
........................................................................
   1   -387.2845143 -0.387285E+03  0.169E-01    0.57       0.0  T
   2   -387.2846629 -0.148616E-03  0.973E-02    0.59       1.0  T
   3   -387.2840111  0.651774E-03  0.631E-02    0.55       1.0  T
   4   -387.2847870 -0.775821E-03  0.156E-02    0.58       1.0  T
   5   -387.2848425 -0.555029E-04  0.551E-03    0.58       1.2  T
   6   -387.2848450 -0.257062E-05  0.275E-03    0.58       2.4  T
   7   -387.2848460 -0.100537E-05  0.113E-03    0.58       5.8  T
   8   -387.2848462 -0.177453E-06  0.559E-04    0.58      11.7  T
   9   -387.2848462 -0.232488E-07  0.321E-04    0.58      20.3  T
     SCC iter.                  ...        0 min,  1.182 sec
     gradient                   ...        0 min,  0.889 sec
 * total energy  :  -380.9029540 Eh     change       -0.1782909E-01 Eh
   gradient norm :     0.0441999 Eh/α   predicted    -0.1741835E-01 (  -2.30%)
   displ. norm   :     0.8206585 α      lambda       -0.2136068E-01
   maximum displ.:     0.3073903 α      in ANC's #25, #26, #139, ...

........................................................................
.............................. CYCLE    5 ..............................
........................................................................
   1   -387.3559345 -0.387356E+03  0.347E-01    0.53       0.0  T
   2   -387.3563416 -0.407067E-03  0.195E-01    0.59       1.0  T
   3   -387.3531096  0.323205E-02  0.123E-01    0.52       1.0  T
   4   -387.3569008 -0.379127E-02  0.201E-02    0.57       1.0  T
   5   -387.3569943 -0.934216E-04  0.928E-03    0.57       1.0  T
   6   -387.3570042 -0.989804E-05  0.412E-03    0.57       1.6  T
   7   -387.3570065 -0.235928E-05  0.139E-03    0.57       4.7  T
   8   -387.3570068 -0.262215E-06  0.738E-04    0.57       8.8  T
   9   -387.3570068 -0.614086E-07  0.398E-04    0.57      16.3  T
     SCC iter.                  ...        0 min,  1.160 sec
     gradient                   ...        0 min,  0.884 sec
 * total energy  :  -380.9132679 Eh     change       -0.1031387E-01 Eh
   gradient norm :     0.0538077 Eh/α   predicted    -0.1787334E-01 (  73.29%)
   displ. norm   :     0.6330432 α      lambda       -0.1357664E-01
   maximum displ.:     0.1787724 α      in ANC's #25, #108, #88, ...

........................................................................
.............................. CYCLE    6 ..............................
........................................................................
   1   -387.3621149 -0.387362E+03  0.132E-01    0.61       0.0  T
   2   -387.3621742 -0.593051E-04  0.790E-02    0.63       1.0  T
   3   -387.3616350  0.539157E-03  0.611E-02    0.61       1.0  T
   4   -387.3623546 -0.719584E-03  0.959E-03    0.62       1.0  T
   5   -387.3623718 -0.172257E-04  0.468E-03    0.62       1.4  T
   6   -387.3623753 -0.353067E-05  0.180E-03    0.62       3.6  T
   7   -387.3623758 -0.417481E-06  0.753E-04    0.62       8.6  T
   8   -387.3623758 -0.785914E-07  0.387E-04    0.62      16.8  T
     SCC iter.                  ...        0 min,  1.019 sec
     gradient                   ...        0 min,  0.883 sec
 * total energy  :  -380.9239497 Eh     change       -0.1068186E-01 Eh
   gradient norm :     0.0455478 Eh/α   predicted    -0.9508717E-02 ( -10.98%)
   displ. norm   :     0.7365434 α      lambda       -0.1080821E-01
   maximum displ.:     0.2255524 α      in ANC's #25, #108, #36, ...

........................................................................
.............................. CYCLE    7 ..............................
........................................................................
   1   -387.3593343 -0.387359E+03  0.139E-01    0.64       0.0  T
   2   -387.3593963 -0.620134E-04  0.822E-02    0.67       1.0  T
   3   -387.3586147  0.781616E-03  0.595E-02    0.64       1.0  T
   4   -387.3595312 -0.916576E-03  0.887E-03    0.66       1.0  T
   5   -387.3595414 -0.101416E-04  0.483E-03    0.66       1.3  T
   6   -387.3595450 -0.362732E-05  0.194E-03    0.66       3.4  T
   7   -387.3595456 -0.594818E-06  0.813E-04    0.66       8.0  T
   8   -387.3595457 -0.817858E-07  0.401E-04    0.66      16.3  T
     SCC iter.                  ...        0 min,  1.025 sec
     gradient                   ...        0 min,  0.886 sec
 * total energy  :  -380.9322009 Eh     change       -0.8251169E-02 Eh
   gradient norm :     0.0399227 Eh/α   predicted    -0.8335813E-02 (   1.03%)
   displ. norm   :     0.7668212 α      lambda       -0.9065703E-02
   maximum displ.:     0.2125241 α      in ANC's #108, #36, #107, ...

........................................................................
.............................. CYCLE    8 ..............................
........................................................................
   1   -387.3638499 -0.387364E+03  0.192E-01    0.67       0.0  T
   2   -387.3639925 -0.142608E-03  0.109E-01    0.71       1.0  T
   3   -387.3628543  0.113820E-02  0.678E-02    0.66       1.0  T
   4   -387.3641648 -0.131056E-02  0.959E-03    0.70       1.0  T
   5   -387.3641747 -0.985333E-05  0.551E-03    0.70       1.2  T
   6   -387.3641783 -0.365726E-05  0.213E-03    0.70       3.1  T
   7   -387.3641789 -0.579385E-06  0.908E-04    0.70       7.2  T
   8   -387.3641790 -0.943042E-07  0.441E-04    0.70      14.8  T
     SCC iter.                  ...        0 min,  1.028 sec
     gradient                   ...        0 min,  0.885 sec
 * total energy  :  -380.9384496 Eh     change       -0.6248700E-02 Eh
   gradient norm :     0.0503746 Eh/α   predicted    -0.7198235E-02 (  15.20%)
   displ. norm   :     0.7303425 α      lambda       -0.9321471E-02
   maximum displ.:     0.2182872 α      in ANC's #25, #108, #36, ...

........................................................................
.............................. CYCLE    9 ..............................
........................................................................
   1   -387.3930622 -0.387393E+03  0.210E-01    0.70       0.0  T
   2   -387.3932032 -0.140999E-03  0.119E-01    0.72       1.0  T
   3   -387.3921984  0.100470E-02  0.678E-02    0.70       1.0  T
   4   -387.3933606 -0.116217E-02  0.972E-03    0.72       1.0  T
   5   -387.3933724 -0.117825E-04  0.547E-03    0.72       1.2  T
   6   -387.3933763 -0.393191E-05  0.193E-03    0.72       3.4  T
   7   -387.3933767 -0.414176E-06  0.839E-04    0.72       7.8  T
   8   -387.3933768 -0.830504E-07  0.385E-04    0.72      16.9  T
     SCC iter.                  ...        0 min,  1.024 sec
     gradient                   ...        0 min,  0.885 sec
 * total energy  :  -380.9430943 Eh     change       -0.4644686E-02 Eh
   gradient norm :     0.0611239 Eh/α   predicted    -0.7146773E-02 (  53.87%)
   displ. norm   :     0.6302793 α      lambda       -0.9489682E-02
   maximum displ.:     0.2325042 α      in ANC's #25, #27, #108, ...

........................................................................
.............................. CYCLE   10 ..............................
........................................................................
   1   -387.4089355 -0.387409E+03  0.234E-01    0.71       0.0  T
   2   -387.4091487 -0.213239E-03  0.131E-01    0.73       1.0  T
   3   -387.4084139  0.734797E-03  0.568E-02    0.70       1.0  T
   4   -387.4092671 -0.853180E-03  0.100E-02    0.73       1.0  T
   5   -387.4092809 -0.138701E-04  0.559E-03    0.73       1.2  T
   6   -387.4092858 -0.481139E-05  0.203E-03    0.73       3.2  T
   7   -387.4092862 -0.397140E-06  0.871E-04    0.72       7.5  T
   8   -387.4092862 -0.938633E-07  0.376E-04    0.73      17.3  T
     SCC iter.                  ...        0 min,  1.041 sec
     gradient                   ...        0 min,  0.885 sec
 * total energy  :  -380.9482525 Eh     change       -0.5158232E-02 Eh
   gradient norm :     0.0669307 Eh/α   predicted    -0.6629740E-02 (  28.53%)
   displ. norm   :     0.6420808 α      lambda       -0.7298289E-02
   maximum displ.:     0.2454065 α      in ANC's #25, #36, #31, ...

........................................................................
.............................. CYCLE   11 ..............................
........................................................................
   1   -387.3727709 -0.387373E+03  0.220E-01    0.71       0.0  T
   2   -387.3729461 -0.175126E-03  0.123E-01    0.73       1.0  T
   3   -387.3717556  0.119043E-02  0.651E-02    0.70       1.0  T
   4   -387.3731031 -0.134749E-02  0.874E-03    0.72       1.0  T
   5   -387.3731091 -0.598311E-05  0.532E-03    0.72       1.2  T
   6   -387.3731122 -0.305950E-05  0.203E-03    0.72       3.2  T
   7   -387.3731125 -0.371308E-06  0.935E-04    0.72       7.0  T
   8   -387.3731127 -0.128091E-06  0.379E-04    0.72      17.2  T
     SCC iter.                  ...        0 min,  1.025 sec
     gradient                   ...        0 min,  0.885 sec
 * total energy  :  -380.9517438 Eh     change       -0.3491270E-02 Eh
   gradient norm :     0.0964425 Eh/α   predicted    -0.5153579E-02 (  47.61%)
   displ. norm   :     0.5311685 α      lambda       -0.9299217E-02
   maximum displ.:     0.1276177 α      in ANC's #36, #74, #31, ...

........................................................................
.............................. CYCLE   12 ..............................
........................................................................
   1   -387.3965679 -0.387397E+03  0.168E-01    0.75       0.0  T
   2   -387.3967369 -0.168970E-03  0.945E-02    0.76       1.0  T
   3   -387.3962470  0.489897E-03  0.467E-02    0.74       1.0  T
   4   -387.3968182 -0.571231E-03  0.710E-03    0.76       1.0  T
   5   -387.3968235 -0.525921E-05  0.471E-03    0.76       1.4  T
   6   -387.3968269 -0.342319E-05  0.173E-03    0.76       3.8  T
   7   -387.3968271 -0.225238E-06  0.800E-04    0.76       8.1  T
   8   -387.3968272 -0.922979E-07  0.356E-04    0.76      18.3  T
     SCC iter.                  ...        0 min,  1.039 sec
     gradient                   ...        0 min,  0.888 sec
 * total energy  :  -380.9538608 Eh     change       -0.2116956E-02 Eh
   gradient norm :     0.1105677 Eh/α   predicted    -0.5961455E-02 ( 181.61%)
   displ. norm   :     0.4552262 α      lambda       -0.9336984E-02
   maximum displ.:     0.1505106 α      in ANC's #25, #53, #37, ...

........................................................................
.............................. CYCLE   13 ..............................
........................................................................
   1   -387.4216602 -0.387422E+03  0.194E-01    0.74       0.0  T
   2   -387.4218262 -0.166029E-03  0.109E-01    0.74       1.0  T
   3   -387.4214021  0.424123E-03  0.477E-02    0.74       1.0  T
   4   -387.4219124 -0.510316E-03  0.678E-03    0.75       1.0  T
   5   -387.4219148 -0.237396E-05  0.463E-03    0.75       1.4  T
   6   -387.4219192 -0.441442E-05  0.172E-03    0.75       3.8  T
   7   -387.4219194 -0.240512E-06  0.740E-04    0.74       8.8  T
   8   -387.4219195 -0.844584E-07  0.293E-04    0.74      22.2  T
     SCC iter.                  ...        0 min,  1.040 sec
     gradient                   ...        0 min,  0.886 sec
 * total energy  :  -380.9566702 Eh     change       -0.2809434E-02 Eh
   gradient norm :     0.0801203 Eh/α   predicted    -0.5635946E-02 ( 100.61%)
   displ. norm   :     0.5337911 α      lambda       -0.1115781E-01
   maximum displ.:     0.2012117 α      in ANC's #25, #27, #89, ...

........................................................................
.............................. CYCLE   14 ..............................
........................................................................
   1   -387.4158197 -0.387416E+03  0.314E-01    0.72       0.0  T
   2   -387.4162156 -0.395861E-03  0.174E-01    0.74       1.0  T
   3   -387.4156331  0.582528E-03  0.524E-02    0.74       1.0  T
   4   -387.4163619 -0.728860E-03  0.105E-02    0.75       1.0  T
   5   -387.4163752 -0.132400E-04  0.590E-03    0.74       1.1  T
   6   -387.4163800 -0.484368E-05  0.249E-03    0.74       2.6  T
   7   -387.4163807 -0.702603E-06  0.877E-04    0.74       7.4  T
   8   -387.4163809 -0.142917E-06  0.404E-04    0.74      16.1  T
     SCC iter.                  ...        0 min,  1.037 sec
     gradient                   ...        0 min,  0.886 sec
 * total energy  :  -380.9547566 Eh     change        0.1913629E-02 Eh
   gradient norm :     0.1446254 Eh/α   predicted    -0.7168524E-02 (-474.60%)
   displ. norm   :     0.3500117 α      lambda       -0.1295453E-01
   maximum displ.:     0.1028918 α      in ANC's #36, #14, #66, ...

........................................................................
.............................. CYCLE   15 ..............................
........................................................................
   1   -387.4041401 -0.387404E+03  0.178E-01    0.76       0.0  T
   2   -387.4042698 -0.129710E-03  0.100E-01    0.77       1.0  T
   3   -387.4036052  0.664599E-03  0.560E-02    0.75       1.0  T
   4   -387.4043703 -0.765104E-03  0.734E-03    0.76       1.0  T
   5   -387.4043763 -0.600856E-05  0.477E-03    0.76       1.4  T
   6   -387.4043806 -0.424956E-05  0.163E-03    0.76       4.0  T
   7   -387.4043807 -0.146688E-06  0.660E-04    0.76       9.9  T
   8   -387.4043808 -0.692509E-07  0.262E-04    0.76      24.8  T
     SCC iter.                  ...        0 min,  1.045 sec
     gradient                   ...        0 min,  0.886 sec
 * total energy  :  -380.9618863 Eh     change       -0.7129701E-02 Eh
   gradient norm :     0.0535337 Eh/α   predicted    -0.7270791E-02 (   1.98%)
   displ. norm   :     0.5551261 α      lambda       -0.6167188E-02
   maximum displ.:     0.1632251 α      in ANC's #25, #31, #53, ...

........................................................................
.............................. CYCLE   16 ..............................
........................................................................
   1   -387.4052161 -0.387405E+03  0.182E-01    0.77       0.0  T
   2   -387.4053536 -0.137486E-03  0.102E-01    0.78       1.0  T
   3   -387.4047140  0.639603E-03  0.527E-02    0.75       1.0  T
   4   -387.4054424 -0.728409E-03  0.845E-03    0.77       1.0  T
   5   -387.4054541 -0.117176E-04  0.440E-03    0.77       1.5  T
   6   -387.4054568 -0.272522E-05  0.176E-03    0.77       3.7  T
   7   -387.4054572 -0.305594E-06  0.748E-04    0.77       8.7  T
   8   -387.4054572 -0.790914E-07  0.312E-04    0.77      20.9  T
     SCC iter.                  ...        0 min,  1.058 sec
     gradient                   ...        0 min,  0.888 sec
 * total energy  :  -380.9631286 Eh     change       -0.1242296E-02 Eh
   gradient norm :     0.0807421 Eh/α   predicted    -0.4033855E-02 ( 224.71%)
   displ. norm   :     0.4575483 α      lambda       -0.6129937E-02
   maximum displ.:     0.1428037 α      in ANC's #27, #53, #31, ...

........................................................................
.............................. CYCLE   17 ..............................
........................................................................
   1   -387.4100282 -0.387410E+03  0.147E-01    0.77       0.0  T
   2   -387.4101099 -0.817842E-04  0.827E-02    0.77       1.0  T
   3   -387.4097838  0.326167E-03  0.406E-02    0.77       1.0  T
   4   -387.4101685 -0.384683E-03  0.579E-03    0.77       1.1  T
   5   -387.4101721 -0.363258E-05  0.345E-03    0.78       1.9  T
   6   -387.4101741 -0.202879E-05  0.126E-03    0.77       5.2  T
   7   -387.4101743 -0.153750E-06  0.491E-04    0.77      13.3  T
   8   -387.4101743 -0.321131E-07  0.212E-04    0.77      30.7  T
     SCC iter.                  ...        0 min,  1.058 sec
     gradient                   ...        0 min,  0.890 sec
 * total energy  :  -380.9669081 Eh     change       -0.3779546E-02 Eh
   gradient norm :     0.0429463 Eh/α   predicted    -0.3706614E-02 (  -1.93%)
   displ. norm   :     0.5519573 α      lambda       -0.5098020E-02
   maximum displ.:     0.1801105 α      in ANC's #36, #15, #31, ...

........................................................................
.............................. CYCLE   18 ..............................
........................................................................
   1   -387.4167644 -0.387417E+03  0.169E-01    0.77       0.0  T
   2   -387.4168805 -0.116142E-03  0.963E-02    0.77       1.0  T
   3   -387.4161476  0.732912E-03  0.586E-02    0.78       1.0  T
   4   -387.4169900 -0.842464E-03  0.849E-03    0.78       1.0  T
   5   -387.4170014 -0.113703E-04  0.451E-03    0.78       1.4  T
   6   -387.4170047 -0.330926E-05  0.161E-03    0.78       4.0  T
   7   -387.4170049 -0.203583E-06  0.617E-04    0.78      10.5  T
   8   -387.4170050 -0.444959E-07  0.253E-04    0.78      25.7  T
     SCC iter.                  ...        0 min,  1.059 sec
     gradient                   ...        0 min,  0.889 sec
 * total energy  :  -380.9684489 Eh     change       -0.1540801E-02 Eh
   gradient norm :     0.0718011 Eh/α   predicted    -0.3325591E-02 ( 115.84%)
   displ. norm   :     0.5198530 α      lambda       -0.4981434E-02
   maximum displ.:     0.1287447 α      in ANC's #25, #36, #66, ...

........................................................................
.............................. CYCLE   19 ..............................
........................................................................
   1   -387.4178332 -0.387418E+03  0.125E-01    0.80       0.0  T
   2   -387.4179000 -0.667412E-04  0.709E-02    0.80       1.0  T
   3   -387.4175246  0.375367E-03  0.408E-02    0.78       1.0  T
   4   -387.4179522 -0.427656E-03  0.594E-03    0.80       1.1  T
   5   -387.4179575 -0.526888E-05  0.311E-03    0.80       2.1  T
   6   -387.4179591 -0.155036E-05  0.124E-03    0.80       5.3  T
   7   -387.4179592 -0.108659E-06  0.582E-04    0.80      11.2  T
   8   -387.4179592 -0.591582E-07  0.220E-04    0.80      29.6  T
     SCC iter.                  ...        0 min,  1.052 sec
     gradient                   ...        0 min,  0.888 sec
 * total energy  :  -380.9715914 Eh     change       -0.3142481E-02 Eh
   gradient norm :     0.0427504 Eh/α   predicted    -0.3163831E-02 (   0.68%)
   displ. norm   :     0.5860242 α      lambda       -0.4984351E-02
   maximum displ.:     0.1326475 α      in ANC's #14, #9, #15, ...

........................................................................
.............................. CYCLE   20 ..............................
........................................................................
   1   -387.4328107 -0.387433E+03  0.155E-01    0.81       0.0  T
   2   -387.4329118 -0.101140E-03  0.892E-02    0.82       1.0  T
   3   -387.4323977  0.514083E-03  0.528E-02    0.81       1.0  T
   4   -387.4330008 -0.603038E-03  0.840E-03    0.81       1.0  T
   5   -387.4330127 -0.119678E-04  0.445E-03    0.81       1.5  T
   6   -387.4330160 -0.325314E-05  0.166E-03    0.81       3.9  T
   7   -387.4330162 -0.207484E-06  0.788E-04    0.81       8.3  T
   8   -387.4330163 -0.936092E-07  0.290E-04    0.81      22.5  T
     SCC iter.                  ...        0 min,  1.059 sec
     gradient                   ...        0 min,  0.887 sec
 * total energy  :  -380.9728271 Eh     change       -0.1235689E-02 Eh
   gradient norm :     0.0640605 Eh/α   predicted    -0.3348055E-02 ( 170.95%)
   displ. norm   :     0.5260507 α      lambda       -0.5189560E-02
   maximum displ.:     0.1768201 α      in ANC's #36, #25, #15, ...
 * RMSD in coord.:     0.5859918 α      energy gain  -0.2403357E+00 Eh

generating ANC from model Hessian ...
Using Lindh-Hessian (1995)
 Shifting diagonal of input Hessian by   1.000862082290284E-002
 Lowest  eigenvalues of input Hessian
    0.010000    0.010007    0.000000    0.000000    0.000000    0.000000
    0.000000    0.000000    0.010009    0.010016    0.010022    0.010038
    0.010049    0.010060    0.010065    0.010089    0.010102    0.010117
 Highest eigenvalues
    2.577291    2.598230    2.628800    2.642313    2.644694    2.666135
 

........................................................................
.............................. CYCLE   21 ..............................
........................................................................
   1   -387.4051480 -0.387405E+03  0.126E-01    0.81       0.0  T
   2   -387.4051859 -0.379808E-04  0.737E-02    0.81       1.0  T
   3   -387.4045917  0.594219E-03  0.549E-02    0.81       1.0  T
   4   -387.4052959 -0.704131E-03  0.725E-03    0.81       1.0  T
   5   -387.4053055 -0.963452E-05  0.380E-03    0.81       1.7  T
   6   -387.4053074 -0.190260E-05  0.129E-03    0.81       5.1  T
   7   -387.4053075 -0.930541E-07  0.526E-04    0.81      12.4  T
   8   -387.4053075 -0.451328E-07  0.217E-04    0.81      30.0  T
     SCC iter.                  ...        0 min,  1.015 sec
     gradient                   ...        0 min,  0.885 sec
 * total energy  :  -380.9754269 Eh     change       -0.2599871E-02 Eh
   gradient norm :     0.0602125 Eh/α   predicted     0.0000000E+00 (-100.00%)
   displ. norm   :     0.2820111 α      lambda       -0.3465074E-02
   maximum displ.:     0.0766216 α      in ANC's #14, #31, #30, ...

........................................................................
.............................. CYCLE   22 ..............................
........................................................................
   1   -387.4323868 -0.387432E+03  0.934E-02    0.82       0.0  T
   2   -387.4324244 -0.376260E-04  0.525E-02    0.82       1.0  T
   3   -387.4323292  0.952121E-04  0.213E-02    0.82       1.0  T
   4   -387.4324411 -0.111922E-03  0.362E-03    0.82       1.8  T
   5   -387.4324424 -0.124055E-05  0.217E-03    0.82       3.0  T
   6   -387.4324431 -0.723063E-06  0.965E-04    0.82       6.7  T
   7   -387.4324432 -0.960541E-07  0.341E-04    0.82      19.1  T
     SCC iter.                  ...        0 min,  0.895 sec
     gradient                   ...        0 min,  0.882 sec
 * total energy  :  -380.9773667 Eh     change       -0.1939751E-02 Eh
   gradient norm :     0.0134173 Eh/α   predicted    -0.1875583E-02 (  -3.31%)
   displ. norm   :     0.4396211 α      lambda       -0.2336900E-02
   maximum displ.:     0.1385340 α      in ANC's #25, #14, #30, ...

........................................................................
.............................. CYCLE   23 ..............................
........................................................................
   1   -387.4475093 -0.387448E+03  0.147E-01    0.83       0.0  T
   2   -387.4475700 -0.606931E-04  0.814E-02    0.83       1.0  T
   3   -387.4474554  0.114533E-03  0.235E-02    0.83       1.0  T
   4   -387.4476006 -0.145202E-03  0.426E-03    0.83       1.5  T
   5   -387.4476021 -0.144133E-05  0.249E-03    0.83       2.6  T
   6   -387.4476028 -0.756614E-06  0.937E-04    0.83       6.9  T
   7   -387.4476030 -0.150055E-06  0.313E-04    0.83      20.8  T
     SCC iter.                  ...        0 min,  0.896 sec
     gradient                   ...        0 min,  0.884 sec
 * total energy  :  -380.9784974 Eh     change       -0.1130666E-02 Eh
   gradient norm :     0.0414544 Eh/α   predicted    -0.1394272E-02 (  23.31%)
   displ. norm   :     0.5631093 α      lambda       -0.3017039E-02
   maximum displ.:     0.1694512 α      in ANC's #31, #14, #30, ...

........................................................................
.............................. CYCLE   24 ..............................
........................................................................
   1   -387.4443061 -0.387444E+03  0.142E-01    0.83       0.0  T
   2   -387.4443580 -0.518893E-04  0.795E-02    0.83       1.0  T
   3   -387.4441989  0.159119E-03  0.266E-02    0.83       1.0  T
   4   -387.4443901 -0.191214E-03  0.436E-03    0.83       1.5  T
   5   -387.4443908 -0.636745E-06  0.284E-03    0.83       2.3  T
   6   -387.4443919 -0.113898E-05  0.957E-04    0.83       6.8  T
   7   -387.4443920 -0.144366E-06  0.325E-04    0.83      20.0  T
   8   -387.4443921 -0.132664E-07  0.167E-04    0.83      39.0  T
     SCC iter.                  ...        0 min,  1.026 sec
     gradient                   ...        0 min,  0.884 sec
 * total energy  :  -380.9807167 Eh     change       -0.2219392E-02 Eh
   gradient norm :     0.0320708 Eh/α   predicted    -0.1986860E-02 ( -10.48%)
   displ. norm   :     0.6801779 α      lambda       -0.3749026E-02
   maximum displ.:     0.2059271 α      in ANC's #31, #14, #30, ...

........................................................................
.............................. CYCLE   25 ..............................
........................................................................
   1   -387.4238048 -0.387424E+03  0.146E-01    0.83       0.0  T
   2   -387.4238697 -0.648395E-04  0.823E-02    0.83       1.0  T
   3   -387.4235857  0.283963E-03  0.350E-02    0.83       1.0  T
   4   -387.4239130 -0.327318E-03  0.540E-03    0.83       1.2  T
   5   -387.4239154 -0.235229E-05  0.322E-03    0.83       2.0  T
   6   -387.4239168 -0.137283E-05  0.131E-03    0.83       5.0  T
   7   -387.4239170 -0.206000E-06  0.481E-04    0.83      13.5  T
   8   -387.4239170 -0.317891E-07  0.219E-04    0.83      29.7  T
     SCC iter.                  ...        0 min,  1.028 sec
     gradient                   ...        0 min,  0.883 sec
 * total energy  :  -380.9828345 Eh     change       -0.2117701E-02 Eh
   gradient norm :     0.0317776 Eh/α   predicted    -0.2741798E-02 (  29.47%)
   displ. norm   :     0.5858180 α      lambda       -0.2430165E-02
   maximum displ.:     0.1884587 α      in ANC's #14, #31, #30, ...

........................................................................
.............................. CYCLE   26 ..............................
........................................................................
   1   -387.4216108 -0.387422E+03  0.122E-01    0.84       0.0  T
   2   -387.4216531 -0.423598E-04  0.684E-02    0.84       1.0  T
   3   -387.4215822  0.709051E-04  0.175E-02    0.84       1.0  T
   4   -387.4216702 -0.879942E-04  0.443E-03    0.84       1.5  T
   5   -387.4216722 -0.194594E-05  0.250E-03    0.84       2.6  T
   6   -387.4216729 -0.713614E-06  0.101E-03    0.84       6.5  T
   7   -387.4216730 -0.138533E-06  0.401E-04    0.84      16.2  T
   8   -387.4216730 -0.252049E-07  0.166E-04    0.84      39.1  T
     SCC iter.                  ...        0 min,  1.027 sec
     gradient                   ...        0 min,  0.884 sec
 * total energy  :  -380.9846004 Eh     change       -0.1765972E-02 Eh
   gradient norm :     0.0276544 Eh/α   predicted    -0.1632103E-02 (  -7.58%)
   displ. norm   :     0.6027820 α      lambda       -0.2718354E-02
   maximum displ.:     0.2177555 α      in ANC's #14, #31, #25, ...

........................................................................
.............................. CYCLE   27 ..............................
........................................................................
   1   -387.4380357 -0.387438E+03  0.118E-01    0.85       0.0  T
   2   -387.4380834 -0.476670E-04  0.663E-02    0.85       1.0  T
   3   -387.4379449  0.138461E-03  0.252E-02    0.85       1.0  T
   4   -387.4381063 -0.161338E-03  0.521E-03    0.85       1.2  T
   5   -387.4381100 -0.372464E-05  0.285E-03    0.85       2.3  T
   6   -387.4381109 -0.918192E-06  0.136E-03    0.85       4.8  T
   7   -387.4381111 -0.226293E-06  0.475E-04    0.85      13.7  T
   8   -387.4381112 -0.403959E-07  0.194E-04    0.85      33.6  T
     SCC iter.                  ...        0 min,  1.028 sec
     gradient                   ...        0 min,  0.883 sec
 * total energy  :  -380.9863843 Eh     change       -0.1783872E-02 Eh
   gradient norm :     0.0155370 Eh/α   predicted    -0.1853032E-02 (   3.88%)
   displ. norm   :     0.7479647 α      lambda       -0.2367845E-02
   maximum displ.:     0.2539620 α      in ANC's #14, #31, #30, ...

........................................................................
.............................. CYCLE   28 ..............................
........................................................................
   1   -387.4267708 -0.387427E+03  0.158E-01    0.85       0.0  T
   2   -387.4268418 -0.710113E-04  0.883E-02    0.86       1.0  T
   3   -387.4266470  0.194775E-03  0.285E-02    0.85       1.0  T
   4   -387.4268787 -0.231654E-03  0.588E-03    0.86       1.1  T
   5   -387.4268823 -0.363116E-05  0.335E-03    0.86       1.9  T
   6   -387.4268835 -0.113232E-05  0.142E-03    0.86       4.6  T
   7   -387.4268838 -0.310143E-06  0.470E-04    0.86      13.8  T
   8   -387.4268838 -0.292017E-07  0.214E-04    0.86      30.4  T
     SCC iter.                  ...        0 min,  1.033 sec
     gradient                   ...        0 min,  0.885 sec
 * total energy  :  -380.9880285 Eh     change       -0.1644182E-02 Eh
   gradient norm :     0.0313037 Eh/α   predicted    -0.1846280E-02 (  12.29%)
   displ. norm   :     0.6391835 α      lambda       -0.2320841E-02
   maximum displ.:     0.2330646 α      in ANC's #14, #31, #12, ...

........................................................................
.............................. CYCLE   29 ..............................
........................................................................
   1   -387.4481630 -0.387448E+03  0.983E-02    0.87       0.0  T
   2   -387.4481973 -0.343041E-04  0.560E-02    0.87       1.0  T
   3   -387.4480989  0.983527E-04  0.219E-02    0.87       1.0  T
   4   -387.4482102 -0.111305E-03  0.500E-03    0.87       1.3  T
   5   -387.4482147 -0.448224E-05  0.228E-03    0.87       2.9  T
   6   -387.4482153 -0.610501E-06  0.118E-03    0.87       5.5  T
   7   -387.4482155 -0.198878E-06  0.435E-04    0.87      15.0  T
   8   -387.4482155 -0.208836E-07  0.196E-04    0.87      33.2  T
     SCC iter.                  ...        0 min,  1.043 sec
     gradient                   ...        0 min,  0.885 sec
 * total energy  :  -380.9893376 Eh     change       -0.1309101E-02 Eh
   gradient norm :     0.0314053 Eh/α   predicted    -0.1634523E-02 (  24.86%)
   displ. norm   :     0.6207715 α      lambda       -0.2419650E-02
   maximum displ.:     0.2337128 α      in ANC's #14, #31, #12, ...

........................................................................
.............................. CYCLE   30 ..............................
........................................................................
   1   -387.4419820 -0.387442E+03  0.137E-01    0.87       0.0  T
   2   -387.4420498 -0.677347E-04  0.766E-02    0.88       1.0  T
   3   -387.4417969  0.252900E-03  0.336E-02    0.87       1.0  T
   4   -387.4420877 -0.290868E-03  0.571E-03    0.88       1.1  T
   5   -387.4420913 -0.357577E-05  0.336E-03    0.87       1.9  T
   6   -387.4420929 -0.158304E-05  0.153E-03    0.88       4.3  T
   7   -387.4420932 -0.285211E-06  0.579E-04    0.88      11.2  T
   8   -387.4420932 -0.601681E-07  0.234E-04    0.88      27.8  T
     SCC iter.                  ...        0 min,  1.041 sec
     gradient                   ...        0 min,  0.886 sec
 * total energy  :  -380.9905860 Eh     change       -0.1248440E-02 Eh
   gradient norm :     0.0398134 Eh/α   predicted    -0.1676027E-02 (  34.25%)
   displ. norm   :     0.5594659 α      lambda       -0.2638205E-02
   maximum displ.:     0.1780750 α      in ANC's #14, #36, #31, ...

........................................................................
.............................. CYCLE   31 ..............................
........................................................................
   1   -387.4361864 -0.387436E+03  0.145E-01    0.87       0.0  T
   2   -387.4362768 -0.904282E-04  0.809E-02    0.87       1.0  T
   3   -387.4359930  0.283829E-03  0.366E-02    0.86       1.0  T
   4   -387.4363230 -0.330041E-03  0.603E-03    0.87       1.1  T
   5   -387.4363275 -0.447589E-05  0.366E-03    0.87       1.8  T
   6   -387.4363301 -0.261531E-05  0.147E-03    0.87       4.4  T
   7   -387.4363303 -0.172036E-06  0.550E-04    0.87      11.8  T
   8   -387.4363303 -0.413802E-07  0.224E-04    0.87      29.1  T
     SCC iter.                  ...        0 min,  1.046 sec
     gradient                   ...        0 min,  0.888 sec
 * total energy  :  -380.9909593 Eh     change       -0.3732419E-03 Eh
   gradient norm :     0.0611110 Eh/α   predicted    -0.1731973E-02 ( 364.04%)
   displ. norm   :     0.4031467 α      lambda       -0.3605606E-02
   maximum displ.:     0.1374360 α      in ANC's #14, #45, #12, ...

........................................................................
.............................. CYCLE   32 ..............................
........................................................................
   1   -387.4404953 -0.387440E+03  0.110E-01    0.88       0.0  T
   2   -387.4405561 -0.607372E-04  0.616E-02    0.87       1.0  T
   3   -387.4404413  0.114781E-03  0.243E-02    0.88       1.0  T
   4   -387.4405782 -0.136883E-03  0.480E-03    0.87       1.4  T
   5   -387.4405810 -0.278571E-05  0.258E-03    0.87       2.5  T
   6   -387.4405819 -0.909574E-06  0.133E-03    0.87       4.9  T
   7   -387.4405821 -0.199804E-06  0.510E-04    0.87      12.8  T
   8   -387.4405821 -0.430005E-07  0.188E-04    0.87      34.6  T
     SCC iter.                  ...        0 min,  1.053 sec
     gradient                   ...        0 min,  0.886 sec
 * total energy  :  -380.9926270 Eh     change       -0.1667767E-02 Eh
   gradient norm :     0.0256110 Eh/α   predicted    -0.2095800E-02 (  25.67%)
   displ. norm   :     0.5095350 α      lambda       -0.2313970E-02
   maximum displ.:     0.1839259 α      in ANC's #14, #31, #12, ...

........................................................................
.............................. CYCLE   33 ..............................
........................................................................
   1   -387.4542320 -0.387454E+03  0.117E-01    0.88       0.0  T
   2   -387.4542871 -0.551038E-04  0.664E-02    0.88       1.0  T
   3   -387.4539905  0.296596E-03  0.372E-02    0.89       1.0  T
   4   -387.4543329 -0.342402E-03  0.540E-03    0.88       1.2  T
   5   -387.4543368 -0.387584E-05  0.301E-03    0.88       2.2  T
   6   -387.4543381 -0.127885E-05  0.136E-03    0.88       4.8  T
   7   -387.4543382 -0.168773E-06  0.565E-04    0.88      11.5  T
   8   -387.4543383 -0.504250E-07  0.235E-04    0.88      27.7  T
     SCC iter.                  ...        0 min,  1.049 sec
     gradient                   ...        0 min,  0.889 sec
 * total energy  :  -380.9930093 Eh     change       -0.3822408E-03 Eh
   gradient norm :     0.0608298 Eh/α   predicted    -0.1457363E-02 ( 281.27%)
   displ. norm   :     0.4678183 α      lambda       -0.2822502E-02
   maximum displ.:     0.1662647 α      in ANC's #14, #12, #36, ...

........................................................................
.............................. CYCLE   34 ..............................
........................................................................
   1   -387.4467798 -0.387447E+03  0.113E-01    0.88       0.0  T
   2   -387.4468376 -0.577783E-04  0.635E-02    0.88       1.0  T
   3   -387.4466664  0.171171E-03  0.293E-02    0.88       1.0  T
   4   -387.4468674 -0.201015E-03  0.441E-03    0.88       1.5  T
   5   -387.4468687 -0.120601E-05  0.304E-03    0.88       2.1  T
   6   -387.4468706 -0.191547E-05  0.114E-03    0.88       5.7  T
   7   -387.4468707 -0.100225E-06  0.501E-04    0.88      13.0  T
   8   -387.4468707 -0.342320E-07  0.199E-04    0.88      32.6  T
     SCC iter.                  ...        0 min,  1.052 sec
     gradient                   ...        0 min,  0.889 sec
 * total energy  :  -380.9943805 Eh     change       -0.1371234E-02 Eh
   gradient norm :     0.0390664 Eh/α   predicted    -0.1720100E-02 (  25.44%)
   displ. norm   :     0.4530876 α      lambda       -0.2664191E-02
   maximum displ.:     0.1548483 α      in ANC's #36, #14, #12, ...

........................................................................
.............................. CYCLE   35 ..............................
........................................................................
   1   -387.4599530 -0.387460E+03  0.123E-01    0.88       0.0  T
   2   -387.4600182 -0.652036E-04  0.704E-02    0.88       1.0  T
   3   -387.4596724  0.345749E-03  0.405E-02    0.88       1.0  T
   4   -387.4600691 -0.396679E-03  0.655E-03    0.88       1.0  T
   5   -387.4600779 -0.882801E-05  0.332E-03    0.88       2.0  T
   6   -387.4600799 -0.190829E-05  0.141E-03    0.88       4.6  T
   7   -387.4600800 -0.168758E-06  0.540E-04    0.88      12.1  T
   8   -387.4600801 -0.372269E-07  0.250E-04    0.88      26.1  T
     SCC iter.                  ...        0 min,  1.055 sec
     gradient                   ...        0 min,  0.888 sec
 * total energy  :  -380.9942253 Eh     change        0.1551725E-03 Eh
   gradient norm :     0.0727835 Eh/α   predicted    -0.1605557E-02 (*******%)
   displ. norm   :     0.3856855 α      lambda       -0.3464190E-02
   maximum displ.:     0.1243387 α      in ANC's #31, #14, #12, ...

........................................................................
.............................. CYCLE   36 ..............................
........................................................................
   1   -387.4362617 -0.387436E+03  0.110E-01    0.88       0.0  T
   2   -387.4363059 -0.441421E-04  0.625E-02    0.88       1.0  T
   3   -387.4361056  0.200270E-03  0.315E-02    0.88       1.0  T
   4   -387.4363382 -0.232595E-03  0.470E-03    0.88       1.4  T
   5   -387.4363402 -0.205232E-05  0.288E-03    0.88       2.3  T
   6   -387.4363415 -0.127556E-05  0.113E-03    0.88       5.8  T
   7   -387.4363416 -0.130167E-06  0.445E-04    0.88      14.6  T
   8   -387.4363417 -0.295574E-07  0.172E-04    0.88      37.8  T
     SCC iter.                  ...        0 min,  1.046 sec
     gradient                   ...        0 min,  0.881 sec
 * total energy  :  -380.9957743 Eh     change       -0.1548947E-02 Eh
   gradient norm :     0.0303929 Eh/α   predicted    -0.1989754E-02 (  28.46%)
   displ. norm   :     0.4251951 α      lambda       -0.2782562E-02
   maximum displ.:     0.1410596 α      in ANC's #14, #12, #36, ...

........................................................................
.............................. CYCLE   37 ..............................
........................................................................
   1   -387.4616635 -0.387462E+03  0.131E-01    0.88       0.0  T
   2   -387.4617435 -0.800405E-04  0.745E-02    0.87       1.0  T
   3   -387.4614600  0.283495E-03  0.360E-02    0.88       1.0  T
   4   -387.4617889 -0.328888E-03  0.646E-03    0.88       1.0  T
   5   -387.4617952 -0.635296E-05  0.329E-03    0.88       2.0  T
   6   -387.4617964 -0.111112E-05  0.166E-03    0.88       3.9  T
   7   -387.4617967 -0.301913E-06  0.610E-04    0.88      10.7  T
   8   -387.4617967 -0.567601E-07  0.253E-04    0.88      25.7  T
     SCC iter.                  ...        0 min,  1.018 sec
     gradient                   ...        0 min,  0.882 sec
 * total energy  :  -380.9955275 Eh     change        0.2468147E-03 Eh
   gradient norm :     0.0593739 Eh/α   predicted    -0.1642811E-02 (-765.61%)
   displ. norm   :     0.3696067 α      lambda       -0.3372028E-02
   maximum displ.:     0.1197584 α      in ANC's #31, #14, #12, ...

........................................................................
.............................. CYCLE   38 ..............................
........................................................................
   1   -387.4550167 -0.387455E+03  0.993E-02    0.89       0.0  T
   2   -387.4550672 -0.505550E-04  0.557E-02    0.89       1.0  T
   3   -387.4549823  0.848634E-04  0.227E-02    0.89       1.0  T
   4   -387.4550869 -0.104582E-03  0.413E-03    0.89       1.6  T
   5   -387.4550886 -0.168162E-05  0.232E-03    0.89       2.8  T
   6   -387.4550893 -0.657703E-06  0.131E-03    0.89       5.0  T
   7   -387.4550895 -0.240941E-06  0.437E-04    0.89      14.9  T
   8   -387.4550895 -0.279849E-07  0.159E-04    0.89      41.1  T
     SCC iter.                  ...        0 min,  1.026 sec
     gradient                   ...        0 min,  0.884 sec
 * total energy  :  -380.9969852 Eh     change       -0.1457761E-02 Eh
   gradient norm :     0.0359594 Eh/α   predicted    -0.1916343E-02 (  31.46%)
   displ. norm   :     0.3798020 α      lambda       -0.2642716E-02
   maximum displ.:     0.1247050 α      in ANC's #36, #12, #9, ...

........................................................................
.............................. CYCLE   39 ..............................
........................................................................
   1   -387.4509514 -0.387451E+03  0.104E-01    0.88       0.0  T
   2   -387.4509963 -0.448506E-04  0.623E-02    0.89       1.0  T
   3   -387.4506642  0.332027E-03  0.440E-02    0.88       1.0  T
   4   -387.4510754 -0.411116E-03  0.774E-03    0.89       1.0  T
   5   -387.4510908 -0.154026E-04  0.352E-03    0.88       1.8  T
   6   -387.4510926 -0.184780E-05  0.140E-03    0.88       4.6  T
   7   -387.4510927 -0.103712E-06  0.524E-04    0.88      12.4  T
   8   -387.4510928 -0.399204E-07  0.225E-04    0.88      28.9  T
     SCC iter.                  ...        0 min,  1.027 sec
     gradient                   ...        0 min,  0.884 sec
 * total energy  :  -380.9969310 Eh     change        0.5422492E-04 Eh
   gradient norm :     0.0408035 Eh/α   predicted    -0.1511966E-02 (*******%)
   displ. norm   :     0.3918450 α      lambda       -0.2612558E-02
   maximum displ.:     0.1462113 α      in ANC's #14, #31, #12, ...

........................................................................
.............................. CYCLE   40 ..............................
........................................................................
   1   -387.4413190 -0.387441E+03  0.841E-02    0.89       0.0  T
   2   -387.4413702 -0.512109E-04  0.497E-02    0.88       1.0  T
   3   -387.4412372  0.133019E-03  0.309E-02    0.89       1.0  T
   4   -387.4414034 -0.166266E-03  0.619E-03    0.88       1.1  T
   5   -387.4414113 -0.786477E-05  0.266E-03    0.88       2.5  T
   6   -387.4414123 -0.103449E-05  0.139E-03    0.89       4.7  T
   7   -387.4414126 -0.263903E-06  0.529E-04    0.89      12.3  T
   8   -387.4414126 -0.272808E-07  0.200E-04    0.89      32.5  T
     SCC iter.                  ...        0 min,  1.023 sec
     gradient                   ...        0 min,  0.884 sec
 * total energy  :  -380.9983267 Eh     change       -0.1395728E-02 Eh
   gradient norm :     0.0245489 Eh/α   predicted    -0.1506852E-02 (   7.96%)
   displ. norm   :     0.3835485 α      lambda       -0.2014572E-02
   maximum displ.:     0.1107331 α      in ANC's #12, #29, #14, ...

........................................................................
.............................. CYCLE   41 ..............................
........................................................................
   1   -387.4767186 -0.387477E+03  0.970E-02    0.89       0.0  T
   2   -387.4769749 -0.256319E-03  0.608E-02    0.89       1.0  T
   3   -387.4768047  0.170191E-03  0.369E-02    0.90       1.0  T
   4   -387.4770587 -0.254057E-03  0.128E-02    0.89       1.0  T
   5   -387.4770970 -0.382794E-04  0.331E-03    0.89       2.0  T
   6   -387.4770985 -0.151305E-05  0.192E-03    0.89       3.4  T
   7   -387.4770991 -0.612862E-06  0.907E-04    0.89       7.2  T
   8   -387.4770992 -0.803431E-07  0.428E-04    0.89      15.2  T
     SCC iter.                  ...        0 min,  1.030 sec
     gradient                   ...        0 min,  0.883 sec
 * total energy  :  -380.9972624 Eh     change        0.1064298E-02 Eh
   gradient norm :     0.0653491 Eh/α   predicted    -0.1155468E-02 (-208.57%)
   displ. norm   :     0.2727070 α      lambda       -0.3718931E-02
   maximum displ.:     0.0766727 α      in ANC's #36, #12, #14, ...

........................................................................
.............................. CYCLE   42 ..............................
........................................................................
   1   -387.4632061 -0.387463E+03  0.629E-02    0.89       0.0  T
   2   -387.4633790 -0.172906E-03  0.406E-02    0.89       1.0  T
   3   -387.4633603  0.186495E-04  0.239E-02    0.89       1.0  T
   4   -387.4634190 -0.586823E-04  0.117E-02    0.89       1.0  T
   5   -387.4634498 -0.308009E-04  0.272E-03    0.89       2.4  T
   6   -387.4634508 -0.970207E-06  0.146E-03    0.89       4.4  T
   7   -387.4634511 -0.305088E-06  0.705E-04    0.89       9.2  T
   8   -387.4634512 -0.469332E-07  0.336E-04    0.89      19.4  T
     SCC iter.                  ...        0 min,  1.020 sec
     gradient                   ...        0 min,  0.882 sec
 * total energy  :  -380.9992224 Eh     change       -0.1959984E-02 Eh
   gradient norm :     0.0236821 Eh/α   predicted    -0.1997754E-02 (   1.93%)
   displ. norm   :     0.5664419 α      lambda       -0.1393546E-02
   maximum displ.:     0.1997209 α      in ANC's #14, #12, #31, ...
 * RMSD in coord.:     0.6033624 α      energy gain  -0.2639534E-01 Eh

generating ANC from model Hessian ...
Using Lindh-Hessian (1995)
 Shifting diagonal of input Hessian by   1.000658147813657E-002
 Lowest  eigenvalues of input Hessian
    0.010000    0.010006    0.000000    0.000000    0.000000    0.000000
    0.000000    0.000000    0.010010    0.010015    0.010021    0.010035
    0.010049    0.010061    0.010066    0.010075    0.010094    0.010110
 Highest eigenvalues
    2.595850    2.605611    2.619853    2.643538    2.646486    2.659056
 

........................................................................
.............................. CYCLE   43 ..............................
........................................................................
   1   -387.4298415 -0.387430E+03  0.100E-01    0.88       0.0  T
   2   -387.4298748 -0.333099E-04  0.585E-02    0.89       1.0  T
   3   -387.4295064  0.368404E-03  0.396E-02    0.88       1.0  T
   4   -387.4299272 -0.420729E-03  0.524E-03    0.89       1.2  T
   5   -387.4299315 -0.429072E-05  0.262E-03    0.89       2.5  T
   6   -387.4299323 -0.862487E-06  0.144E-03    0.89       4.5  T
   7   -387.4299326 -0.316612E-06  0.494E-04    0.89      13.2  T
   8   -387.4299327 -0.399673E-07  0.206E-04    0.89      31.6  T
     SCC iter.                  ...        0 min,  1.037 sec
     gradient                   ...        0 min,  0.885 sec
 * total energy  :  -380.9995170 Eh     change       -0.2945804E-03 Eh
   gradient norm :     0.0344972 Eh/α   predicted     0.0000000E+00 (-100.00%)
   displ. norm   :     0.1630315 α      lambda       -0.1301642E-02
   maximum displ.:     0.0374458 α      in ANC's #15, #17, #8, ...

........................................................................
.............................. CYCLE   44 ..............................
........................................................................
   1   -387.4564909 -0.387456E+03  0.666E-02    0.89       0.0  T
   2   -387.4565030 -0.120535E-04  0.381E-02    0.89       1.0  T
   3   -387.4563606  0.142368E-03  0.232E-02    0.90       1.0  T
   4   -387.4565208 -0.160197E-03  0.249E-03    0.89       2.6  T
   5   -387.4565216 -0.773800E-06  0.143E-03    0.89       4.5  T
   6   -387.4565218 -0.242876E-06  0.619E-04    0.89      10.5  T
   7   -387.4565219 -0.409489E-07  0.275E-04    0.89      23.7  T
     SCC iter.                  ...        0 min,  0.912 sec
     gradient                   ...        0 min,  0.885 sec
 * total energy  :  -381.0000528 Eh     change       -0.5358531E-03 Eh
   gradient norm :     0.0099580 Eh/α   predicted    -0.6684430E-03 (  24.74%)
   displ. norm   :     0.2618103 α      lambda       -0.1062851E-02
   maximum displ.:     0.0828830 α      in ANC's #31, #15, #90, ...

........................................................................
.............................. CYCLE   45 ..............................
........................................................................
   1   -387.4778110 -0.387478E+03  0.118E-01    0.90       0.0  T
   2   -387.4778465 -0.354629E-04  0.660E-02    0.89       1.0  T
   3   -387.4776437  0.202723E-03  0.269E-02    0.90       1.0  T
   4   -387.4778774 -0.233689E-03  0.307E-03    0.89       2.1  T
   5   -387.4778781 -0.672118E-06  0.187E-03    0.89       3.5  T
   6   -387.4778784 -0.324701E-06  0.635E-04    0.89      10.2  T
   7   -387.4778785 -0.643499E-07  0.240E-04    0.89      27.2  T
     SCC iter.                  ...        0 min,  0.909 sec
     gradient                   ...        0 min,  0.885 sec
 * total energy  :  -380.9998992 Eh     change        0.1535962E-03 Eh
   gradient norm :     0.0331785 Eh/α   predicted    -0.5678532E-03 (-469.71%)
   displ. norm   :     0.1340837 α      lambda       -0.1222947E-02
   maximum displ.:     0.0465598 α      in ANC's #90, #17, #18, ...

........................................................................
.............................. CYCLE   46 ..............................
........................................................................
   1   -387.4675397 -0.387468E+03  0.721E-02    0.89       0.0  T
   2   -387.4675545 -0.147795E-04  0.401E-02    0.89       1.0  T
   3   -387.4675267  0.277439E-04  0.120E-02    0.89       1.0  T
   4   -387.4675625 -0.357779E-04  0.170E-03    0.89       3.8  T
   5   -387.4675626 -0.142814E-06  0.110E-03    0.89       5.9  T
   6   -387.4675628 -0.204695E-06  0.414E-04    0.89      15.7  T
   7   -387.4675629 -0.238330E-07  0.156E-04    0.89      41.8  T
     SCC iter.                  ...        0 min,  0.910 sec
     gradient                   ...        0 min,  0.885 sec
 * total energy  :  -381.0006170 Eh     change       -0.7177106E-03 Eh
   gradient norm :     0.0094738 Eh/α   predicted    -0.6224698E-03 ( -13.27%)
   displ. norm   :     0.2545703 α      lambda       -0.7136249E-03
   maximum displ.:     0.0722536 α      in ANC's #33, #19, #12, ...

........................................................................
.............................. CYCLE   47 ..............................
........................................................................
   1   -387.4539797 -0.387454E+03  0.840E-02    0.89       0.0  T
   2   -387.4539995 -0.198116E-04  0.466E-02    0.89       1.0  T
   3   -387.4539499  0.495979E-04  0.148E-02    0.89       1.0  T
   4   -387.4540110 -0.611483E-04  0.216E-03    0.89       3.0  T
   5   -387.4540113 -0.284966E-06  0.135E-03    0.89       4.8  T
   6   -387.4540116 -0.274346E-06  0.540E-04    0.89      12.1  T
   7   -387.4540116 -0.501138E-07  0.214E-04    0.89      30.5  T
     SCC iter.                  ...        0 min,  0.909 sec
     gradient                   ...        0 min,  0.887 sec
 * total energy  :  -381.0007563 Eh     change       -0.1393237E-03 Eh
   gradient norm :     0.0158042 Eh/α   predicted    -0.3799384E-03 ( 172.70%)
   displ. norm   :     0.3178544 α      lambda       -0.8735126E-03
   maximum displ.:     0.1132578 α      in ANC's #15, #8, #12, ...

........................................................................
.............................. CYCLE   48 ..............................
........................................................................
   1   -387.4525200 -0.387453E+03  0.761E-02    0.89       0.0  T
   2   -387.4525367 -0.167050E-04  0.423E-02    0.89       1.0  T
   3   -387.4524895  0.471888E-04  0.136E-02    0.89       1.0  T
   4   -387.4525468 -0.572444E-04  0.221E-03    0.89       2.9  T
   5   -387.4525471 -0.322543E-06  0.144E-03    0.89       4.5  T
   6   -387.4525474 -0.286241E-06  0.497E-04    0.89      13.1  T
   7   -387.4525474 -0.410579E-07  0.215E-04    0.89      30.3  T
     SCC iter.                  ...        0 min,  0.919 sec
     gradient                   ...        0 min,  0.889 sec
 * total energy  :  -381.0012246 Eh     change       -0.4683008E-03 Eh
   gradient norm :     0.0172309 Eh/α   predicted    -0.4808843E-03 (   2.69%)
   displ. norm   :     0.4636639 α      lambda       -0.1175559E-02
   maximum displ.:     0.1491290 α      in ANC's #15, #8, #12, ...

........................................................................
.............................. CYCLE   49 ..............................
........................................................................
   1   -387.4635518 -0.387464E+03  0.954E-02    0.90       0.0  T
   2   -387.4635727 -0.208514E-04  0.536E-02    0.89       1.0  T
   3   -387.4633844  0.188338E-03  0.266E-02    0.90       1.0  T
   4   -387.4635971 -0.212701E-03  0.292E-03    0.89       2.2  T
   5   -387.4635977 -0.612606E-06  0.178E-03    0.89       3.6  T
   6   -387.4635980 -0.348438E-06  0.694E-04    0.89       9.4  T
   7   -387.4635981 -0.591153E-07  0.274E-04    0.89      23.7  T
     SCC iter.                  ...        0 min,  0.924 sec
     gradient                   ...        0 min,  0.889 sec
 * total energy  :  -381.0015767 Eh     change       -0.3520764E-03 Eh
   gradient norm :     0.0147641 Eh/α   predicted    -0.7141431E-03 ( 102.84%)
   displ. norm   :     0.3677064 α      lambda       -0.9101646E-03
   maximum displ.:     0.1278846 α      in ANC's #15, #8, #12, ...

........................................................................
.............................. CYCLE   50 ..............................
........................................................................
   1   -387.4621467 -0.387462E+03  0.690E-02    0.89       0.0  T
   2   -387.4621605 -0.137906E-04  0.385E-02    0.89       1.0  T
   3   -387.4621243  0.362129E-04  0.124E-02    0.89       1.0  T
   4   -387.4621686 -0.442975E-04  0.196E-03    0.89       3.3  T
   5   -387.4621688 -0.226360E-06  0.129E-03    0.89       5.0  T
   6   -387.4621690 -0.255494E-06  0.477E-04    0.89      13.6  T
   7   -387.4621691 -0.349290E-07  0.185E-04    0.89      35.3  T
     SCC iter.                  ...        0 min,  0.925 sec
     gradient                   ...        0 min,  0.886 sec
 * total energy  :  -381.0022075 Eh     change       -0.6308169E-03 Eh
   gradient norm :     0.0080970 Eh/α   predicted    -0.5166149E-03 ( -18.10%)
   displ. norm   :     0.5819173 α      lambda       -0.1137879E-02
   maximum displ.:     0.2089776 α      in ANC's #15, #8, #12, ...

........................................................................
.............................. CYCLE   51 ..............................
........................................................................
   1   -387.4509712 -0.387451E+03  0.120E-01    0.89       0.0  T
   2   -387.4510117 -0.405246E-04  0.669E-02    0.89       1.0  T
   3   -387.4509494  0.623468E-04  0.175E-02    0.89       1.0  T
   4   -387.4510311 -0.817084E-04  0.330E-03    0.89       2.0  T
   5   -387.4510319 -0.841604E-06  0.200E-03    0.89       3.3  T
   6   -387.4510325 -0.576693E-06  0.849E-04    0.89       7.7  T
   7   -387.4510326 -0.131878E-06  0.276E-04    0.89      23.6  T
     SCC iter.                  ...        0 min,  0.925 sec
     gradient                   ...        0 min,  0.885 sec
 * total energy  :  -381.0024460 Eh     change       -0.2385463E-03 Eh
   gradient norm :     0.0211508 Eh/α   predicted    -0.7615992E-03 ( 219.27%)
   displ. norm   :     0.4171259 α      lambda       -0.1241685E-02
   maximum displ.:     0.1374346 α      in ANC's #15, #8, #12, ...

........................................................................
.............................. CYCLE   52 ..............................
........................................................................
   1   -387.4536262 -0.387454E+03  0.874E-02    0.90       0.0  T
   2   -387.4536436 -0.173816E-04  0.488E-02    0.90       1.0  T
   3   -387.4535765  0.670721E-04  0.171E-02    0.90       1.0  T
   4   -387.4536558 -0.792360E-04  0.232E-03    0.90       2.8  T
   5   -387.4536560 -0.199250E-06  0.152E-03    0.90       4.3  T
   6   -387.4536563 -0.323964E-06  0.523E-04    0.90      12.4  T
   7   -387.4536563 -0.414021E-07  0.211E-04    0.90      30.9  T
     SCC iter.                  ...        0 min,  0.927 sec
     gradient                   ...        0 min,  0.882 sec
 * total energy  :  -381.0030989 Eh     change       -0.6528658E-03 Eh
   gradient norm :     0.0107497 Eh/α   predicted    -0.7288714E-03 (  11.64%)
   displ. norm   :     0.4822483 α      lambda       -0.1167964E-02
   maximum displ.:     0.1776244 α      in ANC's #15, #12, #8, ...

........................................................................
.............................. CYCLE   53 ..............................
........................................................................
   1   -387.4570009 -0.387457E+03  0.121E-01    0.90       0.0  T
   2   -387.4570435 -0.425607E-04  0.670E-02    0.90       1.0  T
   3   -387.4569812  0.622841E-04  0.171E-02    0.90       1.0  T
   4   -387.4570642 -0.830116E-04  0.306E-03    0.90       2.1  T
   5   -387.4570647 -0.476408E-06  0.182E-03    0.90       3.6  T
   6   -387.4570651 -0.455144E-06  0.660E-04    0.90       9.9  T
   7   -387.4570652 -0.695843E-07  0.240E-04    0.90      27.1  T
     SCC iter.                  ...        0 min,  0.891 sec
     gradient                   ...        0 min,  0.884 sec
 * total energy  :  -381.0032403 Eh     change       -0.1414538E-03 Eh
   gradient norm :     0.0196167 Eh/α   predicted    -0.7197960E-03 ( 408.86%)
   displ. norm   :     0.3828922 α      lambda       -0.1251419E-02
   maximum displ.:     0.1376717 α      in ANC's #15, #8, #19, ...

........................................................................
.............................. CYCLE   54 ..............................
........................................................................
   1   -387.4611808 -0.387461E+03  0.715E-02    0.90       0.0  T
   2   -387.4611965 -0.157599E-04  0.398E-02    0.90       1.0  T
   3   -387.4611819  0.145757E-04  0.958E-03    0.90       1.0  T
   4   -387.4612032 -0.212135E-04  0.200E-03    0.90       3.3  T
   5   -387.4612035 -0.341304E-06  0.116E-03    0.90       5.6  T
   6   -387.4612037 -0.186157E-06  0.472E-04    0.90      13.8  T
   7   -387.4612037 -0.357919E-07  0.181E-04    0.90      36.0  T
     SCC iter.                  ...        0 min,  0.907 sec
     gradient                   ...        0 min,  0.885 sec
 * total energy  :  -381.0040043 Eh     change       -0.7640037E-03 Eh
   gradient norm :     0.0094358 Eh/α   predicted    -0.7174523E-03 (  -6.09%)
   displ. norm   :     0.5879776 α      lambda       -0.8984223E-03
   maximum displ.:     0.2246341 α      in ANC's #15, #12, #8, ...

........................................................................
.............................. CYCLE   55 ..............................
........................................................................
   1   -387.4576700 -0.387458E+03  0.902E-02    0.91       0.0  T
   2   -387.4576940 -0.240178E-04  0.505E-02    0.91       1.0  T
   3   -387.4576237  0.703150E-04  0.174E-02    0.90       1.0  T
   4   -387.4577074 -0.836786E-04  0.291E-03    0.90       2.2  T
   5   -387.4577080 -0.676972E-06  0.178E-03    0.91       3.7  T
   6   -387.4577085 -0.433588E-06  0.690E-04    0.91       9.4  T
   7   -387.4577085 -0.610059E-07  0.250E-04    0.91      26.0  T
     SCC iter.                  ...        0 min,  0.899 sec
     gradient                   ...        0 min,  0.882 sec
 * total energy  :  -381.0044175 Eh     change       -0.4131361E-03 Eh
   gradient norm :     0.0182284 Eh/α   predicted    -0.6045132E-03 (  46.32%)
   displ. norm   :     0.5772439 α      lambda       -0.9745060E-03
   maximum displ.:     0.2272566 α      in ANC's #15, #19, #8, ...

........................................................................
.............................. CYCLE   56 ..............................
........................................................................
   1   -387.4570934 -0.387457E+03  0.774E-02    0.91       0.0  T
   2   -387.4571088 -0.153930E-04  0.434E-02    0.91       1.0  T
   3   -387.4570473  0.615660E-04  0.158E-02    0.90       1.0  T
   4   -387.4571190 -0.717117E-04  0.248E-03    0.91       2.6  T
   5   -387.4571194 -0.386105E-06  0.151E-03    0.91       4.3  T
   6   -387.4571197 -0.297875E-06  0.592E-04    0.91      11.0  T
   7   -387.4571197 -0.543893E-07  0.212E-04    0.91      30.7  T
     SCC iter.                  ...        0 min,  0.897 sec
     gradient                   ...        0 min,  0.882 sec
 * total energy  :  -381.0050126 Eh     change       -0.5951260E-03 Eh
   gradient norm :     0.0138083 Eh/α   predicted    -0.6496118E-03 (   9.16%)
   displ. norm   :     0.5615123 α      lambda       -0.1258606E-02
   maximum displ.:     0.2217752 α      in ANC's #15, #12, #19, ...

........................................................................
.............................. CYCLE   57 ..............................
........................................................................
   1   -387.4634191 -0.387463E+03  0.104E-01    0.91       0.0  T
   2   -387.4634522 -0.330948E-04  0.575E-02    0.91       1.0  T
   3   -387.4634075  0.446963E-04  0.152E-02    0.90       1.0  T
   4   -387.4634661 -0.586087E-04  0.300E-03    0.90       2.2  T
   5   -387.4634669 -0.818344E-06  0.186E-03    0.90       3.5  T
   6   -387.4634675 -0.591823E-06  0.764E-04    0.90       8.5  T
   7   -387.4634676 -0.787109E-07  0.304E-04    0.90      21.4  T
     SCC iter.                  ...        0 min,  0.900 sec
     gradient                   ...        0 min,  0.882 sec
 * total energy  :  -381.0054653 Eh     change       -0.4527279E-03 Eh
   gradient norm :     0.0227500 Eh/α   predicted    -0.8277096E-03 (  82.83%)
   displ. norm   :     0.5270088 α      lambda       -0.1149104E-02
   maximum displ.:     0.2087283 α      in ANC's #15, #19, #12, ...

........................................................................
.............................. CYCLE   58 ..............................
........................................................................
   1   -387.4698994 -0.387470E+03  0.736E-02    0.91       0.0  T
   2   -387.4699156 -0.161754E-04  0.411E-02    0.91       1.0  T
   3   -387.4698906  0.250069E-04  0.114E-02    0.91       1.0  T
   4   -387.4699229 -0.323081E-04  0.225E-03    0.91       2.9  T
   5   -387.4699233 -0.392629E-06  0.132E-03    0.91       4.9  T
   6   -387.4699235 -0.211748E-06  0.569E-04    0.91      11.4  T
[...]
   213   1 H    0.999 --    99 C    0.984
   214   1 H    0.998 --    99 C    0.985
   215   1 H    0.998 --    99 C    0.984
   216   1 H    0.995 --   100 C    0.943
   217   1 H    0.995 --   101 C    0.942
   218   1 H    0.995 --   112 C    0.957
   219   1 H    0.998 --   114 C    0.966
   220   1 H    0.996 --   115 C    0.961
   221   1 H    0.996 --   116 C    0.963
   222   1 H    0.996 --   118 C    0.960
   223   1 H    0.996 --   119 C    0.961
   224   1 H    0.998 --   133 C    0.959
   225   1 H    0.998 --   140 C    0.961
   226   1 H    0.997 --   141 C    0.971
   227   1 H    0.999 --   143 C    0.978
   228   1 H    0.997 --   143 C    0.975
   229   1 H    0.997 --   144 C    0.973
   230   1 H    0.998 --   144 C    0.975
   231   1 H    0.999 --   145 C    0.987
   232   1 H    0.998 --   145 C    0.987
   233   1 H    0.999 --   145 C    0.986
   234   1 H    0.998 --   146 C    0.984
   235   1 H    0.998 --   146 C    0.985
   236   1 H    0.997 --   146 C    0.985
 ---------------------------------------------------------------------------

Topologies differ in bond orders
Writing corrected topology to xtbtopo.mol

molecular dipole:
                 x           y           z       tot (Debye)
 q only:        2.104      -0.902       0.268
   full:        2.732      -1.340       0.309       7.775
molecular quadrupole (traceless):
                xx          xy          yy          xz          yz          zz
 q only:      152.284     -92.305      25.543      20.404       8.606    -177.827
  q+dip:      166.090    -111.812      42.800      20.994      -4.625    -208.890
   full:      176.988    -122.108      33.128      12.192       4.140    -210.117

           -------------------------------------------------
          |                Geometry Summary                 |
           -------------------------------------------------

      molecular mass/u    :     2036.6369355
   center of mass at/Å    :        0.0480317       0.3108361       0.0019862
  moments of inertia/u·Å² :        0.4955971E+05   0.2249869E+06   0.2441266E+06
rotational constants/cm⁻¹ :        0.3401479E-03   0.7492716E-04   0.6905284E-04

 * 214 selected distances

     #   Z          #   Z                                           value/Å
     1   6 C        2   6 C                                       1.4143786
     2   6 C        3   6 C                                       1.3780536
     3   6 C        4   6 C                                       1.3961719
     4   6 C        5   6 C                                       1.4158876
     1   6 C        6   6 C                                       1.3904642
     5   6 C        6   6 C                                       1.3743813
     4   6 C        7   6 C                                       1.4317214
     7   6 C        8   6 C                                       1.3980737
     1   6 C       10   6 C                                       1.4258898
    10   6 C       11   6 C                                       1.3822356
     7   6 C       13  16 S                                       1.7127328
    13  16 S       14   6 C                                       1.7564741
     8   6 C       15   6 C                                       1.3762073
    14   6 C       15   6 C                                       1.4019385
    10   6 C       16  16 S                                       1.7138656
    11   6 C       18   6 C                                       1.4020655
    17   6 C       18   6 C                                       1.3772189
     9   6 C       19   6 C                                       1.5393892
    20   6 C       21   6 C                                       1.5225425
    19   6 C       22   6 C                                       1.5229454
    12   6 C       23   6 C                                       1.5384773
    23   6 C       25   6 C                                       1.5228472
    24   6 C       26   6 C                                       1.5223627
    17   6 C       27   6 C                                       1.4367689
    14   6 C       28   6 C                                       1.4003866
    28   6 C       29   6 C                                       1.3705222
    27   6 C       30   6 C                                       1.3575595
    32   6 C       33   6 C                                       1.4094652
    36   6 C       37   6 C                                       1.4070895
    32   6 C       39   6 C                                       1.3689677
    39   6 C       40   6 C                                       1.4035798
    40   6 C       41   6 C                                       1.4045364
    33   6 C       42   6 C                                       1.3912925
    41   6 C       42   6 C                                       1.3863197
    36   6 C       43   6 C                                       1.3802697
    43   6 C       44   6 C                                       1.3889255
    44   6 C       45   6 C                                       1.3870341
    37   6 C       46   6 C                                       1.3857220
    45   6 C       46   6 C                                       1.3898442
    31   6 C       47   8 O                                       1.2053338
    35   6 C       48   8 O                                       1.2184428
    38   6 C       49   6 C                                       1.3710803
    34   6 C       50   6 C                                       1.3620289
    51   6 C       55   7 N                                       1.1468746
    52   6 C       56   7 N                                       1.1473831
    54   6 C       57   7 N                                       1.1483974
    53   6 C       58   7 N                                       1.1485638
    59   6 C       60   6 C                                       1.3820187
    60   6 C       61   6 C                                       1.3964510
    61   6 C       62   6 C                                       1.3917505
    59   6 C       63  16 S                                       1.7580454 (max)
    62   6 C       63  16 S                                       1.7029666
    62   6 C       66   6 C                                       1.4103762
    65   6 C       66   6 C                                       1.3911355
    65   6 C       67   6 C                                       1.3939457
    67   6 C       68   6 C                                       1.3834602
    66   6 C       69  16 S                                       1.7081081
    68   6 C       69  16 S                                       1.7482896
    64   6 C       70   6 C                                       1.5385541
    71   6 C       72   6 C                                       1.5222063
    70   6 C       73   6 C                                       1.5226965
    74   6 C       75   6 C                                       1.4164676
    75   6 C       76   6 C                                       1.3749950
    76   6 C       77   6 C                                       1.3933485
    77   6 C       78   6 C                                       1.4138787
    74   6 C       79   6 C                                       1.3943677
    78   6 C       79   6 C                                       1.3750989
    77   6 C       80   6 C                                       1.4257181
    80   6 C       81   6 C                                       1.4012092
    74   6 C       83   6 C                                       1.4277868
    83   6 C       84   6 C                                       1.3973115
    80   6 C       86  16 S                                       1.6992224
    86  16 S       87   6 C                                       1.7549177
    81   6 C       88   6 C                                       1.3758375
    87   6 C       88   6 C                                       1.4070660
    83   6 C       89  16 S                                       1.7065804
    89  16 S       90   6 C                                       1.7534277
    84   6 C       91   6 C                                       1.3789129
    90   6 C       91   6 C                                       1.4013909
    82   6 C       93   6 C                                       1.5378555
    93   6 C       94   6 C                                       1.5244036
    92   6 C       95   6 C                                       1.5227805
    85   6 C       97   6 C                                       1.5399429
    96   6 C       98   6 C                                       1.5226152
    97   6 C       99   6 C                                       1.5228791
    90   6 C      100   6 C                                       1.4042850
    87   6 C      101   6 C                                       1.3979940
   101   6 C      102   6 C                                       1.3760984
   100   6 C      103   6 C                                       1.3693734
   105   6 C      106   6 C                                       1.4087889
   109   6 C      110   6 C                                       1.4064843
   105   6 C      112   6 C                                       1.3730692
   112   6 C      113   6 C                                       1.4042176
   113   6 C      114   6 C                                       1.4045104
   106   6 C      115   6 C                                       1.3887809
   114   6 C      115   6 C                                       1.3819162
   109   6 C      116   6 C                                       1.3733091
   116   6 C      117   6 C                                       1.4025281
   117   6 C      118   6 C                                       1.4020449
   110   6 C      119   6 C                                       1.3881719
   118   6 C      119   6 C                                       1.3827216
   104   6 C      120   8 O                                       1.2167012
   108   6 C      121   8 O                                       1.2193858
   111   6 C      122   6 C                                       1.3730285
   107   6 C      123   6 C                                       1.3721457
   124   6 C      128   7 N                                       1.1483793
   125   6 C      129   7 N                                       1.1490933
   127   6 C      130   7 N                                       1.1485675
   126   6 C      131   7 N                                       1.1492883
   113   6 C      132   6 C                                       1.4378275
   132   6 C      133   6 C                                       1.3826699
   133   6 C      134   6 C                                       1.3914742
   134   6 C      135   6 C                                       1.3899175
   132   6 C      136  16 S                                       1.7568091
   135   6 C      136  16 S                                       1.7106654
   135   6 C      139   6 C                                       1.4194957
   138   6 C      139   6 C                                       1.3877109
   138   6 C      140   6 C                                       1.4030096
   140   6 C      141   6 C                                       1.3646936
   139   6 C      142  16 S                                       1.7174510
   141   6 C      142  16 S                                       1.7267783
   137   6 C      144   6 C                                       1.5357672
   144   6 C      145   6 C                                       1.5242323
   143   6 C      146   6 C                                       1.5226348
     3   6 C      147   1 H                                       1.0782252
     6   6 C      148   1 H                                       1.0786513
    15   6 C      149   1 H                                       1.0754997
    18   6 C      150   1 H                                       1.0739400
    19   6 C      151   1 H                                       1.0932300
    19   6 C      152   1 H                                       1.0909168
    20   6 C      153   1 H                                       1.0916659
    20   6 C      154   1 H                                       1.0939048
    21   6 C      155   1 H                                       1.0865605
    21   6 C      156   1 H                                       1.0867940
    21   6 C      157   1 H                                       1.0883284
    22   6 C      158   1 H                                       1.0868354
    22   6 C      159   1 H                                       1.0863000
    22   6 C      160   1 H                                       1.0877952
    23   6 C      161   1 H                                       1.0907356
    23   6 C      162   1 H                                       1.0933977
    24   6 C      163   1 H                                       1.0905299
    24   6 C      164   1 H                                       1.0933881
    25   6 C      165   1 H                                       1.0864696
    25   6 C      166   1 H                                       1.0878801
    25   6 C      167   1 H                                       1.0867798
    26   6 C      168   1 H                                       1.0863792
    26   6 C      169   1 H                                       1.0879291
    26   6 C      170   1 H                                       1.0863613
    27   6 C      171   1 H                                       1.0844998
    28   6 C      172   1 H                                       1.0834177
    39   6 C      173   1 H                                       1.0793792
    41   6 C      174   1 H                                       1.0793206
    42   6 C      175   1 H                                       1.0791111
    43   6 C      176   1 H                                       1.0787120
    44   6 C      177   1 H                                       1.0790151
    45   6 C      178   1 H                                       1.0793663
    46   6 C      179   1 H                                       1.0777217
    60   6 C      180   1 H                                       1.0749352
    67   6 C      181   1 H                                       1.0743675
    70   6 C      182   1 H                                       1.0908581
    70   6 C      183   1 H                                       1.0916436
    71   6 C      184   1 H                                       1.0932649
    71   6 C      185   1 H                                       1.0910494
    72   6 C      186   1 H                                       1.0877112
    72   6 C      187   1 H                                       1.0862161
    72   6 C      188   1 H                                       1.0865527
    73   6 C      189   1 H                                       1.0866732
    73   6 C      190   1 H                                       1.0878791
    73   6 C      191   1 H                                       1.0865212
    76   6 C      192   1 H                                       1.0784067
    79   6 C      193   1 H                                       1.0791523
    88   6 C      194   1 H                                       1.0755387
    91   6 C      195   1 H                                       1.0752414
    92   6 C      196   1 H                                       1.0932702
    92   6 C      197   1 H                                       1.0916860
    93   6 C      198   1 H                                       1.0918576
    93   6 C      199   1 H                                       1.0905611
    94   6 C      200   1 H                                       1.0875369
    94   6 C      201   1 H                                       1.0877658
    94   6 C      202   1 H                                       1.0873576
    95   6 C      203   1 H                                       1.0879167
    95   6 C      204   1 H                                       1.0862933
    95   6 C      205   1 H                                       1.0864942
    96   6 C      206   1 H                                       1.0932456
    96   6 C      207   1 H                                       1.0911666
    97   6 C      208   1 H                                       1.0905042
    97   6 C      209   1 H                                       1.0934690
    98   6 C      210   1 H                                       1.0864664
    98   6 C      211   1 H                                       1.0866698
    98   6 C      212   1 H                                       1.0880265
    99   6 C      213   1 H                                       1.0861051
    99   6 C      214   1 H                                       1.0880603
    99   6 C      215   1 H                                       1.0864825
   100   6 C      216   1 H                                       1.0846186
   101   6 C      217   1 H                                       1.0841739
   112   6 C      218   1 H                                       1.0799398
   114   6 C      219   1 H                                       1.0784457
   115   6 C      220   1 H                                       1.0779908
   116   6 C      221   1 H                                       1.0785837
   118   6 C      222   1 H                                       1.0800041
   119   6 C      223   1 H                                       1.0774972
   133   6 C      224   1 H                                       1.0746202
   140   6 C      225   1 H                                       1.0749780
   141   6 C      226   1 H                                       1.0720303 (min)
   143   6 C      227   1 H                                       1.0930835
   143   6 C      228   1 H                                       1.0923001
   144   6 C      229   1 H                                       1.0906250
   144   6 C      230   1 H                                       1.0920975
   145   6 C      231   1 H                                       1.0876912
   145   6 C      232   1 H                                       1.0874021
   145   6 C      233   1 H                                       1.0875651
   146   6 C      234   1 H                                       1.0863455
   146   6 C      235   1 H                                       1.0866103
   146   6 C      236   1 H                                       1.0878683

 * 5 distinct bonds (by element types)

   Z      Z             #   av. dist./Å        max./Å        min./Å
   1 H    6 C          90     1.0854495     1.0939048     1.0720303
   6 C    6 C          97     1.4184537     1.5399429     1.3575595
   6 C    7 N           8     1.1483184     1.1492883     1.1468746
   6 C    8 O           4     1.2149659     1.2193858     1.2053338
   6 C   16 S          15     1.7284223     1.7580454     1.6992224


optimized geometry written to: xtbopt.mol


           -------------------------------------------------
          | TOTAL ENERGY             -381.097442258369 Eh   |
          | GRADIENT NORM               0.001512286224 Eh/α |
          | HOMO-LUMO GAP               1.044816601015 eV   |
           -------------------------------------------------

------------------------------------------------------------------------
 * finished run on 2021/12/22 at 16:07:17.092     
------------------------------------------------------------------------
 total:
 * wall-time:     0 d,  0 h, 22 min, 52.911 sec
 *  cpu-time:     0 d,  0 h, 22 min, 51.923 sec
 * ratio c/w:     0.999 speedup
 SCF:
 * wall-time:     0 d,  0 h,  0 min,  2.935 sec
 *  cpu-time:     0 d,  0 h,  0 min,  2.935 sec
 * ratio c/w:     1.000 speedup
 ANC optimizer:
 * wall-time:     0 d,  0 h, 22 min, 49.790 sec
 *  cpu-time:     0 d,  0 h, 22 min, 48.803 sec
 * ratio c/w:     0.999 speedup

