      -----------------------------------------------------------      
     |                   =====================                   |     
     |                           x T B                           |     
     |                   =====================                   |     
     |                         S. Grimme                         |     
     |          Mulliken Center for Theoretical Chemistry        |     
     |                    University of Bonn                     |     
      -----------------------------------------------------------      

   * xtb version 6.4.1 (unknown) compiled by 'oda6@login1.crc.pitt.edu' on 2021-06-25

   xtb is free software: you can redistribute it and/or modify it under
   the terms of the GNU Lesser General Public License as published by
   the Free Software Foundation, either version 3 of the License, or
   (at your option) any later version.
   
   xtb is distributed in the hope that it will be useful,
   but WITHOUT ANY WARRANTY; without even the implied warranty of
   MERCHANTABILITY or FITNESS FOR A PARTICULAR PURPOSE.  See the
   GNU Lesser General Public License for more details.
   
   Cite this work as:
   * C. Bannwarth, E. Caldeweyher, S. Ehlert, A. Hansen, P. Pracht,
     J. Seibert, S. Spicher, S. Grimme, WIREs Comput. Mol. Sci., 2020, 11,
     e01493. DOI: 10.1002/wcms.1493
   
   for GFN2-xTB:
   * C. Bannwarth, S. Ehlert and S. Grimme., J. Chem. Theory Comput., 2019,
     15, 1652-1671. DOI: 10.1021/acs.jctc.8b01176
   for GFN1-xTB:
   * S. Grimme, C. Bannwarth, P. Shushkov, J. Chem. Theory Comput., 2017,
     13, 1989-2009. DOI: 10.1021/acs.jctc.7b00118
   for GFN0-xTB:
   * P. Pracht, E. Caldeweyher, S. Ehlert, S. Grimme, ChemRxiv, 2019, preprint.
     DOI: 10.26434/chemrxiv.8326202.v1
   for GFN-FF:
   * S. Spicher and S. Grimme, Angew. Chem. Int. Ed., 2020, 59, 15665-15673.
     DOI: 10.1002/anie.202004239
   
   for DFT-D4:
   * E. Caldeweyher, C. Bannwarth and S. Grimme, J. Chem. Phys., 2017,
     147, 034112. DOI: 10.1063/1.4993215
   * E. Caldeweyher, S. Ehlert, A. Hansen, H. Neugebauer, S. Spicher,
     C. Bannwarth and S. Grimme, J. Chem. Phys., 2019, 150, 154122.
     DOI: 10.1063/1.5090222
   * E. Caldeweyher, J.-M. Mewes, S. Ehlert and S. Grimme, Phys. Chem. Chem. Phys.
     2020, 22, 8499-8512. DOI: 10.1039/D0CP00502A
   
   for sTDA-xTB:
   * S. Grimme and C. Bannwarth, J. Chem. Phys., 2016, 145, 054103.
     DOI: 10.1063/1.4959605
   
   in the mass-spec context:
   * V. Asgeirsson, C. Bauer and S. Grimme, Chem. Sci., 2017, 8, 4879.
     DOI: 10.1039/c7sc00601b
   * J. Koopman and S. Grimme, ACS Omega 2019, 4, 12, 15120-15133.
     DOI: 10.1021/acsomega.9b02011
   
   for metadynamics refer to:
   * S. Grimme, J. Chem. Theory Comput., 2019, 155, 2847-2862
     DOI: 10.1021/acs.jctc.9b00143
   
   for SPH calculations refer to:
   * S. Spicher and S. Grimme, J. Chem. Theory Comput., 2021, 17, 1701-1714
     DOI: 10.1021/acs.jctc.0c01306
   
   with help from (in alphabetical order)
   P. Atkinson, C. Bannwarth, F. Bohle, G. Brandenburg, E. Caldeweyher
   M. Checinski, S. Dohm, S. Ehlert, S. Ehrlich, I. Gerasimov, J. Koopman
   C. Lavigne, S. Lehtola, F. März, M. Müller, F. Musil, H. Neugebauer
   J. Pisarek, C. Plett, P. Pracht, J. Seibert, P. Shushkov, S. Spicher
   M. Stahn, M. Steiner, T. Strunk, J. Stückrath, T. Rose, and J. Unsleber
   
 * started run on 2021/12/22 at 18:06:01.055     

           -------------------------------------------------
          |                Calculation Setup                |
           -------------------------------------------------

          program call               : /ihome/ghutchison/oda6/xtb/xtb-641/bin//xtb PIST-4F.mol -opt
          hostname                   : smp-n104
          coordinate file            : PIST-4F.mol
          omp threads                :                     1
          number of atoms            :                   146
          number of electrons        :                   456
          charge                     :                     0
          spin                       :                   0.0
          first test random number   :      0.78038304174904

   ID    Z sym.   atoms
    1    6 C      1-11, 13-17, 19-51, 53-65, 67-69, 75-86, 88-90
    2   16 S      12, 18, 52, 74
    3    8 O      66, 87
    4    7 N      70, 71, 91, 92
    5    9 F      72, 73, 93, 94
    6    1 H      95-146
########################################################################
[WARNING] Please study the warnings concerning your input carefully
-1- prog_main_parseArguments: the use of '-opt' is discouraged, please use '--opt' next time
########################################################################

           -------------------------------------------------
          |                 G F N 2 - x T B                 |
           -------------------------------------------------

        Reference                      10.1021/acs.jctc.8b01176
      * Hamiltonian:
        H0-scaling (s, p, d)           1.850000    2.230000    2.230000
        zeta-weighting                 0.500000
      * Dispersion:
        s8                             2.700000
        a1                             0.520000
        a2                             5.000000
        s9                             5.000000
      * Repulsion:
        kExp                           1.500000    1.000000
        rExp                           1.000000
      * Coulomb:
        alpha                          2.000000
        third order                    shell-resolved
        anisotropic                    true
        a3                             3.000000
        a5                             4.000000
        cn-shift                       1.200000
        cn-exp                         4.000000
        max-rad                        5.000000


          ...................................................
          :                      SETUP                      :
          :.................................................:
          :  # basis functions                 452          :
          :  # atomic orbitals                 448          :
          :  # shells                          244          :
          :  # electrons                       456          :
          :  max. iterations                   250          :
          :  Hamiltonian                  GFN2-xTB          :
          :  restarted?                      false          :
          :  GBSA solvation                  false          :
          :  PC potential                    false          :
          :  electronic temp.          300.0000000     K    :
          :  accuracy                    1.0000000          :
          :  -> integral cutoff          0.2500000E+02      :
          :  -> integral neglect         0.1000000E-07      :
          :  -> SCF convergence          0.1000000E-05 Eh   :
          :  -> wf. convergence          0.1000000E-03 e    :
          :  Broyden damping             0.4000000          :
          ...................................................

 iter      E             dE          RMSdq      gap      omega  full diag
   1   -252.7349607 -0.252735E+03  0.468E+00    1.71       0.0  T
   2   -252.8456569 -0.110696E+00  0.290E+00    1.02       1.0  T
   3   -252.5041737  0.341483E+00  0.214E+00    0.61       1.0  T
   4   -253.0071543 -0.502981E+00  0.600E-01    0.49       1.0  T
   5   -253.0411983 -0.340441E-01  0.197E-01    0.44       1.0  T
   6   -253.0425569 -0.135858E-02  0.103E-01    0.59       1.0  T
   7   -253.0434871 -0.930141E-03  0.489E-02    0.58       1.0  T
   8   -253.0437440 -0.256945E-03  0.188E-02    0.59       1.0  T
   9   -253.0437574 -0.133638E-04  0.994E-03    0.59       1.0  T
  10   -253.0437646 -0.727697E-05  0.471E-03    0.59       1.8  T
  11   -253.0437656 -0.940351E-06  0.237E-03    0.59       3.5  T
  12   -253.0437660 -0.398179E-06  0.116E-03    0.59       7.1  T
  13   -253.0437660 -0.570337E-07  0.725E-04    0.59      11.4  T
  14   -253.0437661 -0.261896E-07  0.350E-04    0.59      23.6  T

   *** convergence criteria satisfied after 14 iterations ***

         #    Occupation            Energy/Eh            Energy/eV
      -------------------------------------------------------------
         1        2.0000           -0.8574470             -23.3323
       ...           ...                  ...                  ...
       222        2.0000           -0.4005002             -10.8982
       223        2.0000           -0.3955621             -10.7638
       224        2.0000           -0.3946280             -10.7384
       225        2.0000           -0.3928880             -10.6910
       226        2.0000           -0.3888537             -10.5812
       227        2.0000           -0.3754139             -10.2155
       228        2.0000           -0.3721586             -10.1270 (HOMO)
       229        0.0000           -0.3505544              -9.5391 (LUMO)
       230        0.0000           -0.3486082              -9.4861
       231                         -0.3445003              -9.3743
       232                         -0.3401116              -9.2549
       233                         -0.3018429              -8.2136
       ...                                ...                  ...
       448                          1.0654418              28.9921
      -------------------------------------------------------------
                  HL-Gap            0.0216042 Eh            0.5879 eV
             Fermi-level           -0.3613996 Eh           -9.8342 eV

 SCC (total)                   0 d,  0 h,  0 min,  0.978 sec
 SCC setup                      ...        0 min,  0.002 sec (  0.252%)
 Dispersion                     ...        0 min,  0.007 sec (  0.719%)
 classical contributions        ...        0 min,  0.001 sec (  0.085%)
 integral evaluation            ...        0 min,  0.076 sec (  7.740%)
 iterations                     ...        0 min,  0.560 sec ( 57.268%)
 molecular gradient             ...        0 min,  0.328 sec ( 33.498%)
 printout                       ...        0 min,  0.004 sec (  0.432%)

         :::::::::::::::::::::::::::::::::::::::::::::::::::::
         ::                     SUMMARY                     ::
         :::::::::::::::::::::::::::::::::::::::::::::::::::::
         :: total energy            -249.250013708416 Eh    ::
         :: gradient norm              0.277038392832 Eh/a0 ::
         :: HOMO-LUMO gap              0.587880611235 eV    ::
         ::.................................................::
         :: SCC energy              -253.043766058163 Eh    ::
         :: -> isotropic ES            0.135245303302 Eh    ::
         :: -> anisotropic ES          0.024190742944 Eh    ::
         :: -> anisotropic XC          0.155345307127 Eh    ::
         :: -> dispersion             -0.221174720901 Eh    ::
         :: repulsion energy           3.788950142843 Eh    ::
         :: add. restraining           0.000000000000 Eh    ::
         :: total charge              -0.000000001580 e     ::
         :::::::::::::::::::::::::::::::::::::::::::::::::::::

      ----------------------------------------------------------- 
     |                   =====================                   |
     |                        A N C O P T                        |
     |                   =====================                   |
     |               Approximate Normal Coordinate               |
     |                Rational Function Optimizer                |
      ----------------------------------------------------------- 

          ...................................................
          :                      SETUP                      :
          :.................................................:
          :   optimization level            normal          :
          :   max. optcycles                   438          :
          :   ANC micro-cycles                  20          :
          :   degrees of freedom               432          :
          :.................................................:
          :   RF solver                   davidson          :
          :   write xtbopt.log                true          :
          :   linear?                        false          :
          :   energy convergence         0.5000000E-05 Eh   :
          :   grad. convergence          0.1000000E-02 Eh/α :
          :   maximium RF displ.         1.0000000          :
          :   Hlow (freq-cutoff)         0.1000000E-01      :
          :   Hmax (freq-cutoff)         5.0000000          :
          :   S6 in model hess.         20.0000000          :
          ...................................................

generating ANC from model Hessian ...
Using Lindh-Hessian (1995)
 Shifting diagonal of input Hessian by   9.989180383612498E-003
 Lowest  eigenvalues of input Hessian
    0.000000    0.000000    0.000000    0.000000    0.000000    0.000000
    0.010000    0.010022    0.010035    0.010042    0.010052    0.010067
    0.010084    0.010100    0.010117    0.010133    0.010144    0.010198
 Highest eigenvalues
    2.098245    2.105507    2.459296    2.502201    2.528811    2.571967
 

........................................................................
.............................. CYCLE    1 ..............................
........................................................................
   1   -253.0437661 -0.253044E+03  0.162E-04    0.59       0.0  T
   2   -253.0437661  0.400973E-09  0.147E-04    0.59      56.4  T
   3   -253.0437661 -0.234749E-08  0.728E-05    0.59     113.7  T
     SCC iter.                  ...        0 min,  0.128 sec
     gradient                   ...        0 min,  0.335 sec
 * total energy  :  -249.2500137 Eh     change       -0.8910689E-08 Eh
   gradient norm :     0.2770377 Eh/α   predicted     0.0000000E+00 (-100.00%)
   displ. norm   :     0.4880234 α      lambda       -0.9169461E-01
   maximum displ.:     0.0930769 α      in ANC's #222, #223, #257, ...

........................................................................
.............................. CYCLE    2 ..............................
........................................................................
   1   -253.2825228 -0.253283E+03  0.274E-01    0.64       0.0  T
   2   -253.2835893 -0.106644E-02  0.163E-01    0.70       1.0  T
   3   -253.2831013  0.487983E-03  0.100E-01    0.65       1.0  T
   4   -253.2837963 -0.695043E-03  0.417E-02    0.65       1.0  T
   5   -253.2840123 -0.215993E-03  0.132E-02    0.66       1.0  T
   6   -253.2840271 -0.147815E-04  0.558E-03    0.66       1.5  T
   7   -253.2840300 -0.290734E-05  0.246E-03    0.66       3.4  T
   8   -253.2840305 -0.457201E-06  0.114E-03    0.66       7.2  T
   9   -253.2840305 -0.353388E-07  0.673E-04    0.66      12.3  T
  10   -253.2840305 -0.257485E-07  0.321E-04    0.66      25.8  T
     SCC iter.                  ...        0 min,  0.415 sec
     gradient                   ...        0 min,  0.336 sec
 * total energy  :  -249.3155455 Eh     change       -0.6553178E-01 Eh
   gradient norm :     0.1273252 Eh/α   predicted    -0.5682958E-01 ( -13.28%)
   displ. norm   :     0.4792460 α      lambda       -0.3565045E-01
   maximum displ.:     0.0958002 α      in ANC's #81, #83, #92, ...

........................................................................
.............................. CYCLE    3 ..............................
........................................................................
   1   -253.4035271 -0.253404E+03  0.234E-01    0.68       0.0  T
   2   -253.4042738 -0.746664E-03  0.134E-01    0.75       1.0  T
   3   -253.4039451  0.328643E-03  0.764E-02    0.69       1.0  T
   4   -253.4044148 -0.469678E-03  0.323E-02    0.72       1.0  T
   5   -253.4045448 -0.129996E-03  0.112E-02    0.71       1.0  T
   6   -253.4045539 -0.905498E-05  0.459E-03    0.71       1.8  T
   7   -253.4045559 -0.201878E-05  0.204E-03    0.71       4.1  T
   8   -253.4045562 -0.301025E-06  0.906E-04    0.71       9.1  T
   9   -253.4045562 -0.203842E-07  0.518E-04    0.71      16.0  T
     SCC iter.                  ...        0 min,  0.368 sec
     gradient                   ...        0 min,  0.336 sec
 * total energy  :  -249.3381442 Eh     change       -0.2259871E-01 Eh
   gradient norm :     0.0405621 Eh/α   predicted    -0.2191928E-01 (  -3.01%)
   displ. norm   :     0.5430598 α      lambda       -0.1098222E-01
   maximum displ.:     0.1584139 α      in ANC's #57, #50, #31, ...

........................................................................
.............................. CYCLE    4 ..............................
........................................................................
   1   -253.4276885 -0.253428E+03  0.180E-01    0.72       0.0  T
   2   -253.4278481 -0.159602E-03  0.104E-01    0.76       1.0  T
   3   -253.4273943  0.453817E-03  0.631E-02    0.73       1.0  T
   4   -253.4279466 -0.552246E-03  0.155E-02    0.75       1.0  T
   5   -253.4279749 -0.283079E-04  0.680E-03    0.75       1.2  T
   6   -253.4279783 -0.343678E-05  0.288E-03    0.75       2.9  T
   7   -253.4279790 -0.669814E-06  0.116E-03    0.75       7.1  T
   8   -253.4279791 -0.859341E-07  0.606E-04    0.75      13.7  T
   9   -253.4279791 -0.112331E-07  0.356E-04    0.75      23.3  T
     SCC iter.                  ...        0 min,  0.366 sec
     gradient                   ...        0 min,  0.337 sec
 * total energy  :  -249.3462897 Eh     change       -0.8145505E-02 Eh
   gradient norm :     0.0296239 Eh/α   predicted    -0.7110483E-02 ( -12.71%)
   displ. norm   :     0.6635782 α      lambda       -0.8251156E-02
   maximum displ.:     0.1906501 α      in ANC's #31, #50, #57, ...

........................................................................
.............................. CYCLE    5 ..............................
........................................................................
   1   -253.4316224 -0.253432E+03  0.241E-01    0.76       0.0  T
   2   -253.4317721 -0.149700E-03  0.138E-01    0.80       1.0  T
   3   -253.4304563  0.131582E-02  0.918E-02    0.76       1.0  T
   4   -253.4319953 -0.153907E-02  0.176E-02    0.80       1.0  T
   5   -253.4320308 -0.354839E-04  0.723E-03    0.79       1.1  T
   6   -253.4320334 -0.259802E-05  0.344E-03    0.80       2.4  T
   7   -253.4320344 -0.996707E-06  0.115E-03    0.79       7.2  T
   8   -253.4320345 -0.769978E-07  0.630E-04    0.79      13.1  T
   9   -253.4320345 -0.195267E-07  0.329E-04    0.79      25.2  T
     SCC iter.                  ...        0 min,  0.371 sec
     gradient                   ...        0 min,  0.335 sec
 * total energy  :  -249.3518069 Eh     change       -0.5517145E-02 Eh
   gradient norm :     0.0325161 Eh/α   predicted    -0.5942208E-02 (   7.70%)
   displ. norm   :     0.6816904 α      lambda       -0.7335132E-02
   maximum displ.:     0.2118464 α      in ANC's #31, #50, #57, ...

........................................................................
.............................. CYCLE    6 ..............................
........................................................................
   1   -253.4364422 -0.253436E+03  0.272E-01    0.79       0.0  T
   2   -253.4366006 -0.158480E-03  0.155E-01    0.83       1.0  T
   3   -253.4347126  0.188807E-02  0.105E-01    0.80       1.0  T
   4   -253.4368932 -0.218063E-02  0.186E-02    0.82       1.0  T
   5   -253.4369365 -0.433379E-04  0.698E-03    0.82       1.2  T
   6   -253.4369386 -0.208244E-05  0.328E-03    0.82       2.5  T
   7   -253.4369395 -0.885326E-06  0.111E-03    0.82       7.5  T
   8   -253.4369396 -0.610860E-07  0.620E-04    0.82      13.3  T
   9   -253.4369396 -0.304977E-07  0.305E-04    0.82      27.1  T
     SCC iter.                  ...        0 min,  0.370 sec
     gradient                   ...        0 min,  0.336 sec
 * total energy  :  -249.3561044 Eh     change       -0.4297589E-02 Eh
   gradient norm :     0.0342922 Eh/α   predicted    -0.5371881E-02 (  25.00%)
   displ. norm   :     0.5616508 α      lambda       -0.4875379E-02
   maximum displ.:     0.1853093 α      in ANC's #31, #28, #50, ...

........................................................................
.............................. CYCLE    7 ..............................
........................................................................
   1   -253.4384257 -0.253438E+03  0.145E-01    0.82       0.0  T
   2   -253.4385300 -0.104333E-03  0.890E-02    0.84       1.0  T
   3   -253.4379461  0.583979E-03  0.691E-02    0.82       1.0  T
   4   -253.4387404 -0.794387E-03  0.141E-02    0.84       1.0  T
   5   -253.4387615 -0.211017E-04  0.653E-03    0.84       1.3  T
   6   -253.4387664 -0.481640E-05  0.209E-03    0.84       4.0  T
   7   -253.4387666 -0.219064E-06  0.109E-03    0.84       7.6  T
   8   -253.4387667 -0.886201E-07  0.513E-04    0.84      16.1  T
   9   -253.4387667 -0.135877E-07  0.275E-04    0.84      30.0  T
     SCC iter.                  ...        0 min,  0.369 sec
     gradient                   ...        0 min,  0.337 sec
 * total energy  :  -249.3598002 Eh     change       -0.3695763E-02 Eh
   gradient norm :     0.0418342 Eh/α   predicted    -0.3206658E-02 ( -13.23%)
   displ. norm   :     0.6395765 α      lambda       -0.5986398E-02
   maximum displ.:     0.2240782 α      in ANC's #31, #28, #50, ...

........................................................................
.............................. CYCLE    8 ..............................
........................................................................
   1   -253.4463916 -0.253446E+03  0.170E-01    0.83       0.0  T
   2   -253.4464640 -0.723718E-04  0.103E-01    0.85       1.0  T
   3   -253.4454741  0.989897E-03  0.840E-02    0.83       1.0  T
   4   -253.4467733 -0.129928E-02  0.168E-02    0.85       1.0  T
   5   -253.4468070 -0.336706E-04  0.642E-03    0.85       1.3  T
   6   -253.4468103 -0.333254E-05  0.248E-03    0.85       3.3  T
   7   -253.4468106 -0.309328E-06  0.128E-03    0.85       6.5  T
   8   -253.4468108 -0.113186E-06  0.613E-04    0.85      13.5  T
   9   -253.4468108 -0.192753E-07  0.338E-04    0.85      24.5  T
     SCC iter.                  ...        0 min,  0.361 sec
     gradient                   ...        0 min,  0.320 sec
 * total energy  :  -249.3637594 Eh     change       -0.3959198E-02 Eh
   gradient norm :     0.0225403 Eh/α   predicted    -0.4217588E-02 (   6.53%)
   displ. norm   :     0.6856070 α      lambda       -0.3888031E-02
   maximum displ.:     0.2381721 α      in ANC's #31, #28, #50, ...

........................................................................
.............................. CYCLE    9 ..............................
........................................................................
   1   -253.4385411 -0.253439E+03  0.164E-01    0.83       0.0  T
   2   -253.4385924 -0.513381E-04  0.984E-02    0.86       1.0  T
   3   -253.4376468  0.945608E-03  0.841E-02    0.84       1.0  T
   4   -253.4389056 -0.125887E-02  0.150E-02    0.86       1.0  T
   5   -253.4389282 -0.225771E-04  0.745E-03    0.86       1.1  T
   6   -253.4389343 -0.603393E-05  0.243E-03    0.86       3.4  T
   7   -253.4389346 -0.299503E-06  0.125E-03    0.86       6.6  T
   8   -253.4389347 -0.123609E-06  0.587E-04    0.86      14.1  T
   9   -253.4389347 -0.186176E-07  0.310E-04    0.86      26.7  T
     SCC iter.                  ...        0 min,  0.367 sec
     gradient                   ...        0 min,  0.337 sec
 * total energy  :  -249.3667653 Eh     change       -0.3005866E-02 Eh
   gradient norm :     0.0268212 Eh/α   predicted    -0.2857832E-02 (  -4.92%)
   displ. norm   :     0.6863295 α      lambda       -0.3613356E-02
   maximum displ.:     0.2167388 α      in ANC's #31, #28, #41, ...

........................................................................
.............................. CYCLE   10 ..............................
........................................................................
   1   -253.4576068 -0.253458E+03  0.158E-01    0.86       0.0  T
   2   -253.4576347 -0.279289E-04  0.907E-02    0.87       1.0  T
   3   -253.4568981  0.736583E-03  0.692E-02    0.87       1.0  T
   4   -253.4577592 -0.861128E-03  0.134E-02    0.88       1.0  T
   5   -253.4577847 -0.254541E-04  0.514E-03    0.88       1.6  T
   6   -253.4577867 -0.199780E-05  0.198E-03    0.87       4.2  T
   7   -253.4577870 -0.308846E-06  0.923E-04    0.87       9.0  T
   8   -253.4577871 -0.551361E-07  0.460E-04    0.87      18.0  T
     SCC iter.                  ...        0 min,  0.319 sec
     gradient                   ...        0 min,  0.336 sec
 * total energy  :  -249.3691197 Eh     change       -0.2354433E-02 Eh
   gradient norm :     0.0349353 Eh/α   predicted    -0.2657709E-02 (  12.88%)
   displ. norm   :     0.6527784 α      lambda       -0.3227387E-02
   maximum displ.:     0.2620898 α      in ANC's #28, #31, #17, ...

........................................................................
.............................. CYCLE   11 ..............................
........................................................................
   1   -253.4545968 -0.253455E+03  0.175E-01    0.86       0.0  T
   2   -253.4546387 -0.419290E-04  0.998E-02    0.88       1.0  T
   3   -253.4536327  0.100601E-02  0.742E-02    0.87       1.0  T
   4   -253.4547632 -0.113050E-02  0.105E-02    0.88       1.0  T
   5   -253.4547756 -0.123712E-04  0.533E-03    0.88       1.6  T
   6   -253.4547781 -0.252680E-05  0.197E-03    0.88       4.2  T
   7   -253.4547783 -0.136130E-06  0.880E-04    0.88       9.4  T
   8   -253.4547783 -0.617393E-07  0.404E-04    0.88      20.5  T
     SCC iter.                  ...        0 min,  0.319 sec
     gradient                   ...        0 min,  0.336 sec
 * total energy  :  -249.3713288 Eh     change       -0.2209069E-02 Eh
   gradient norm :     0.0266881 Eh/α   predicted    -0.2301313E-02 (   4.18%)
   displ. norm   :     0.6311951 α      lambda       -0.2543859E-02
   maximum displ.:     0.2046153 α      in ANC's #31, #17, #28, ...

........................................................................
.............................. CYCLE   12 ..............................
........................................................................
   1   -253.4528243 -0.253453E+03  0.139E-01    0.85       0.0  T
   2   -253.4529000 -0.757616E-04  0.801E-02    0.86       1.0  T
   3   -253.4524611  0.438944E-03  0.517E-02    0.86       1.0  T
   4   -253.4529547 -0.493569E-03  0.123E-02    0.87       1.0  T
   5   -253.4529784 -0.237686E-04  0.470E-03    0.87       1.8  T
   6   -253.4529805 -0.204748E-05  0.186E-03    0.87       4.5  T
   7   -253.4529806 -0.155922E-06  0.930E-04    0.87       8.9  T
   8   -253.4529807 -0.691894E-07  0.373E-04    0.87      22.2  T
     SCC iter.                  ...        0 min,  0.319 sec
     gradient                   ...        0 min,  0.336 sec
 * total energy  :  -249.3727543 Eh     change       -0.1425501E-02 Eh
   gradient norm :     0.0410577 Eh/α   predicted    -0.1778655E-02 (  24.77%)
   displ. norm   :     0.5860693 α      lambda       -0.2796336E-02
   maximum displ.:     0.1841372 α      in ANC's #28, #17, #19, ...

........................................................................
.............................. CYCLE   13 ..............................
........................................................................
   1   -253.4631187 -0.253463E+03  0.125E-01    0.86       0.0  T
   2   -253.4631477 -0.290311E-04  0.717E-02    0.87       1.0  T
   3   -253.4629057  0.241973E-03  0.400E-02    0.86       1.0  T
   4   -253.4631762 -0.270518E-03  0.719E-03    0.87       1.2  T
   5   -253.4631827 -0.649638E-05  0.380E-03    0.87       2.2  T
   6   -253.4631843 -0.158895E-05  0.136E-03    0.87       6.1  T
   7   -253.4631845 -0.124015E-06  0.640E-04    0.87      12.9  T
   8   -253.4631845 -0.320755E-07  0.291E-04    0.87      28.5  T
     SCC iter.                  ...        0 min,  0.322 sec
     gradient                   ...        0 min,  0.336 sec
 * total energy  :  -249.3745120 Eh     change       -0.1757728E-02 Eh
   gradient norm :     0.0239487 Eh/α   predicted    -0.1878387E-02 (   6.86%)
   displ. norm   :     0.6227641 α      lambda       -0.2306165E-02
   maximum displ.:     0.2091780 α      in ANC's #17, #28, #19, ...

........................................................................
.............................. CYCLE   14 ..............................
........................................................................
   1   -253.4622588 -0.253462E+03  0.142E-01    0.86       0.0  T
   2   -253.4623494 -0.906435E-04  0.834E-02    0.88       1.0  T
   3   -253.4619966  0.352800E-03  0.507E-02    0.85       1.0  T
   4   -253.4624024 -0.405790E-03  0.129E-02    0.88       1.0  T
   5   -253.4624281 -0.256276E-04  0.491E-03    0.87       1.7  T
   6   -253.4624302 -0.216941E-05  0.206E-03    0.87       4.0  T
   7   -253.4624306 -0.354339E-06  0.907E-04    0.87       9.1  T
   8   -253.4624306 -0.603607E-07  0.389E-04    0.87      21.3  T
     SCC iter.                  ...        0 min,  0.318 sec
     gradient                   ...        0 min,  0.336 sec
 * total energy  :  -249.3757572 Eh     change       -0.1245183E-02 Eh
   gradient norm :     0.0304700 Eh/α   predicted    -0.1600270E-02 (  28.52%)
   displ. norm   :     0.5868749 α      lambda       -0.2212428E-02
   maximum displ.:     0.2075882 α      in ANC's #17, #28, #19, ...

........................................................................
.............................. CYCLE   15 ..............................
........................................................................
   1   -253.4594239 -0.253459E+03  0.106E-01    0.87       0.0  T
   2   -253.4594774 -0.535415E-04  0.621E-02    0.87       1.0  T
   3   -253.4593683  0.109154E-03  0.329E-02    0.87       1.0  T
   4   -253.4594989 -0.130638E-03  0.906E-03    0.87       1.0  T
   5   -253.4595094 -0.104575E-04  0.386E-03    0.87       2.1  T
   6   -253.4595109 -0.150133E-05  0.155E-03    0.87       5.3  T
   7   -253.4595111 -0.224512E-06  0.730E-04    0.87      11.3  T
   8   -253.4595111 -0.385876E-07  0.335E-04    0.87      24.7  T
     SCC iter.                  ...        0 min,  0.317 sec
     gradient                   ...        0 min,  0.332 sec
 * total energy  :  -249.3773016 Eh     change       -0.1544391E-02 Eh
   gradient norm :     0.0227602 Eh/α   predicted    -0.1487206E-02 (  -3.70%)
   displ. norm   :     0.6277681 α      lambda       -0.2171406E-02
   maximum displ.:     0.2179300 α      in ANC's #17, #19, #18, ...

........................................................................
.............................. CYCLE   16 ..............................
........................................................................
   1   -253.4635152 -0.253464E+03  0.106E-01    0.86       0.0  T
   2   -253.4635547 -0.394913E-04  0.620E-02    0.86       1.0  T
   3   -253.4634352  0.119481E-03  0.274E-02    0.86       1.0  T
   4   -253.4635655 -0.130262E-03  0.740E-03    0.86       1.1  T
   5   -253.4635722 -0.675215E-05  0.296E-03    0.86       2.8  T
   6   -253.4635729 -0.709375E-06  0.146E-03    0.86       5.7  T
   7   -253.4635731 -0.140214E-06  0.711E-04    0.86      11.6  T
   8   -253.4635731 -0.641169E-07  0.272E-04    0.86      30.4  T
     SCC iter.                  ...        0 min,  0.315 sec
     gradient                   ...        0 min,  0.335 sec
 * total energy  :  -249.3785462 Eh     change       -0.1244621E-02 Eh
   gradient norm :     0.0295538 Eh/α   predicted    -0.1513561E-02 (  21.61%)
   displ. norm   :     0.6118868 α      lambda       -0.2359719E-02
   maximum displ.:     0.2230258 α      in ANC's #17, #19, #16, ...

........................................................................
.............................. CYCLE   17 ..............................
........................................................................
   1   -253.4709070 -0.253471E+03  0.124E-01    0.85       0.0  T
   2   -253.4709363 -0.293113E-04  0.712E-02    0.85       1.0  T
   3   -253.4707707  0.165648E-03  0.339E-02    0.84       1.0  T
   4   -253.4709569 -0.186255E-03  0.635E-03    0.85       1.3  T
   5   -253.4709606 -0.368073E-05  0.351E-03    0.85       2.4  T
   6   -253.4709616 -0.101727E-05  0.153E-03    0.85       5.4  T
   7   -253.4709619 -0.266037E-06  0.624E-04    0.85      13.3  T
   8   -253.4709619 -0.284686E-07  0.274E-04    0.85      30.2  T
     SCC iter.                  ...        0 min,  0.327 sec
     gradient                   ...        0 min,  0.336 sec
 * total energy  :  -249.3793760 Eh     change       -0.8297894E-03 Eh
   gradient norm :     0.0386266 Eh/α   predicted    -0.1621593E-02 (  95.42%)
   displ. norm   :     0.5367856 α      lambda       -0.2573160E-02
   maximum displ.:     0.1762420 α      in ANC's #17, #28, #16, ...

........................................................................
.............................. CYCLE   18 ..............................
........................................................................
   1   -253.4518506 -0.253452E+03  0.115E-01    0.84       0.0  T
   2   -253.4519080 -0.574837E-04  0.697E-02    0.85       1.0  T
   3   -253.4515822  0.325863E-03  0.472E-02    0.85       1.0  T
   4   -253.4519564 -0.374209E-03  0.114E-02    0.85       1.0  T
   5   -253.4519799 -0.234829E-04  0.430E-03    0.85       1.9  T
   6   -253.4519819 -0.205031E-05  0.200E-03    0.85       4.1  T
   7   -253.4519821 -0.218486E-06  0.984E-04    0.85       8.4  T
   8   -253.4519822 -0.746297E-07  0.409E-04    0.85      20.2  T
     SCC iter.                  ...        0 min,  0.326 sec
     gradient                   ...        0 min,  0.336 sec
 * total energy  :  -249.3804992 Eh     change       -0.1123260E-02 Eh
   gradient norm :     0.0309647 Eh/α   predicted    -0.1657287E-02 (  47.54%)
   displ. norm   :     0.4377083 α      lambda       -0.2327842E-02
   maximum displ.:     0.1278459 α      in ANC's #17, #4, #19, ...

........................................................................
.............................. CYCLE   19 ..............................
........................................................................
   1   -253.4642242 -0.253464E+03  0.123E-01    0.86       0.0  T
   2   -253.4643211 -0.968823E-04  0.727E-02    0.87       1.0  T
   3   -253.4640970  0.224081E-03  0.424E-02    0.85       1.0  T
   4   -253.4643697 -0.272689E-03  0.111E-02    0.86       1.0  T
   5   -253.4643863 -0.165561E-04  0.393E-03    0.86       2.1  T
   6   -253.4643875 -0.125549E-05  0.174E-03    0.86       4.8  T
   7   -253.4643877 -0.206822E-06  0.950E-04    0.86       8.7  T
   8   -253.4643878 -0.974562E-07  0.350E-04    0.86      23.6  T
     SCC iter.                  ...        0 min,  0.313 sec
     gradient                   ...        0 min,  0.332 sec
 * total energy  :  -249.3811814 Eh     change       -0.6821315E-03 Eh
   gradient norm :     0.0357381 Eh/α   predicted    -0.1386917E-02 ( 103.32%)
   displ. norm   :     0.5129346 α      lambda       -0.1788941E-02
   maximum displ.:     0.1781466 α      in ANC's #17, #16, #19, ...

........................................................................
.............................. CYCLE   20 ..............................
........................................................................
   1   -253.4619688 -0.253462E+03  0.928E-02    0.84       0.0  T
   2   -253.4619946 -0.258026E-04  0.534E-02    0.84       1.0  T
   3   -253.4619469  0.476955E-04  0.208E-02    0.85       1.0  T
   4   -253.4620059 -0.590094E-04  0.402E-03    0.84       2.1  T
   5   -253.4620070 -0.103070E-05  0.215E-03    0.84       3.9  T
   6   -253.4620073 -0.326736E-06  0.979E-04    0.84       8.5  T
   7   -253.4620074 -0.895188E-07  0.483E-04    0.84      17.1  T
     SCC iter.                  ...        0 min,  0.287 sec
     gradient                   ...        0 min,  0.335 sec
 * total energy  :  -249.3824402 Eh     change       -0.1258806E-02 Eh
   gradient norm :     0.0119853 Eh/α   predicted    -0.1129810E-02 ( -10.25%)
   displ. norm   :     0.6640778 α      lambda       -0.1338053E-02
   maximum displ.:     0.2302480 α      in ANC's #16, #17, #4, ...
 * RMSD in coord.:     0.7795882 α      energy gain  -0.1324265E+00 Eh

generating ANC from model Hessian ...
Using Lindh-Hessian (1995)
 Shifting diagonal of input Hessian by   1.003280035905258E-002
 Lowest  eigenvalues of input Hessian
    0.010000    0.010023    0.000000    0.000000    0.000000    0.000000
    0.000000    0.000000    0.010048    0.010067    0.010085    0.010098
    0.010122    0.010134    0.010175    0.010185    0.010196    0.010203
 Highest eigenvalues
    2.251032    2.284235    2.596861    2.610771    2.658379    2.658425
 

........................................................................
.............................. CYCLE   21 ..............................
........................................................................
   1   -253.4596007 -0.253460E+03  0.104E-01    0.83       0.0  T
   2   -253.4596310 -0.303002E-04  0.617E-02    0.84       1.0  T
   3   -253.4593253  0.305766E-03  0.416E-02    0.83       1.0  T
   4   -253.4596641 -0.338880E-03  0.711E-03    0.84       1.2  T
   5   -253.4596718 -0.762794E-05  0.343E-03    0.84       2.4  T
   6   -253.4596732 -0.143453E-05  0.150E-03    0.84       5.5  T
   7   -253.4596733 -0.132577E-06  0.741E-04    0.84      11.2  T
   8   -253.4596734 -0.474527E-07  0.299E-04    0.84      27.7  T
     SCC iter.                  ...        0 min,  0.332 sec
     gradient                   ...        0 min,  0.336 sec
 * total energy  :  -249.3832832 Eh     change       -0.8430456E-03 Eh
   gradient norm :     0.0230086 Eh/α   predicted     0.0000000E+00 (-100.00%)
   displ. norm   :     0.1731079 α      lambda       -0.7824867E-03
   maximum displ.:     0.0850843 α      in ANC's #18, #6, #11, ...

........................................................................
.............................. CYCLE   22 ..............................
........................................................................
   1   -253.4681177 -0.253468E+03  0.674E-02    0.84       0.0  T
   2   -253.4681365 -0.188289E-04  0.382E-02    0.84       1.0  T
   3   -253.4680944  0.420992E-04  0.160E-02    0.84       1.0  T
   4   -253.4681430 -0.486059E-04  0.392E-03    0.84       2.1  T
   5   -253.4681451 -0.209025E-05  0.148E-03    0.84       5.6  T
   6   -253.4681452 -0.127539E-06  0.757E-04    0.84      10.9  T
   7   -253.4681452 -0.337582E-07  0.366E-04    0.84      22.6  T
     SCC iter.                  ...        0 min,  0.285 sec
     gradient                   ...        0 min,  0.335 sec
 * total energy  :  -249.3837668 Eh     change       -0.4836058E-03 Eh
   gradient norm :     0.0076198 Eh/α   predicted    -0.4030828E-03 ( -16.65%)
   displ. norm   :     0.3897140 α      lambda       -0.1156104E-02
   maximum displ.:     0.1310662 α      in ANC's #18, #6, #7, ...

........................................................................
.............................. CYCLE   23 ..............................
........................................................................
   1   -253.4816801 -0.253482E+03  0.110E-01    0.85       0.0  T
   2   -253.4817258 -0.456808E-04  0.631E-02    0.85       1.0  T
   3   -253.4815901  0.135646E-03  0.287E-02    0.85       1.0  T
   4   -253.4817417 -0.151628E-03  0.667E-03    0.85       1.2  T
   5   -253.4817484 -0.666591E-05  0.275E-03    0.85       3.0  T
   6   -253.4817490 -0.634997E-06  0.144E-03    0.85       5.7  T
   7   -253.4817492 -0.163555E-06  0.685E-04    0.85      12.1  T
   8   -253.4817492 -0.500883E-07  0.233E-04    0.85      35.5  T
     SCC iter.                  ...        0 min,  0.311 sec
     gradient                   ...        0 min,  0.336 sec
 * total energy  :  -249.3837083 Eh     change        0.5851919E-04 Eh
   gradient norm :     0.0312317 Eh/α   predicted    -0.6658462E-03 (*******%)
   displ. norm   :     0.1927728 α      lambda       -0.1391995E-02
   maximum displ.:     0.1010327 α      in ANC's #18, #6, #11, ...

........................................................................
.............................. CYCLE   24 ..............................
........................................................................
   1   -253.4778742 -0.253478E+03  0.912E-02    0.85       0.0  T
   2   -253.4778931 -0.189734E-04  0.507E-02    0.85       1.0  T
   3   -253.4778731  0.200240E-04  0.127E-02    0.85       1.0  T
   4   -253.4779015 -0.283393E-04  0.260E-03    0.85       3.2  T
   5   -253.4779019 -0.409137E-06  0.147E-03    0.85       5.6  T
   6   -253.4779020 -0.144344E-06  0.714E-04    0.85      11.6  T
   7   -253.4779021 -0.624712E-07  0.243E-04    0.85      34.0  T
     SCC iter.                  ...        0 min,  0.288 sec
     gradient                   ...        0 min,  0.335 sec
 * total energy  :  -249.3845186 Eh     change       -0.8102634E-03 Eh
   gradient norm :     0.0163163 Eh/α   predicted    -0.7218620E-03 ( -10.91%)
   displ. norm   :     0.3349418 α      lambda       -0.1224964E-02
   maximum displ.:     0.1144086 α      in ANC's #18, #7, #6, ...

........................................................................
.............................. CYCLE   25 ..............................
........................................................................
   1   -253.4671947 -0.253467E+03  0.151E-01    0.84       0.0  T
   2   -253.4672392 -0.445498E-04  0.841E-02    0.85       1.0  T
   3   -253.4671049  0.134349E-03  0.290E-02    0.84       1.0  T
   4   -253.4672621 -0.157241E-03  0.509E-03    0.85       1.6  T
   5   -253.4672648 -0.273345E-05  0.258E-03    0.85       3.2  T
   6   -253.4672653 -0.435201E-06  0.138E-03    0.85       6.0  T
   7   -253.4672654 -0.179924E-06  0.512E-04    0.85      16.1  T
   8   -253.4672655 -0.283487E-07  0.197E-04    0.85      42.0  T
     SCC iter.                  ...        0 min,  0.322 sec
     gradient                   ...        0 min,  0.335 sec
 * total energy  :  -249.3846460 Eh     change       -0.1274451E-03 Eh
   gradient norm :     0.0201688 Eh/α   predicted    -0.6811947E-03 ( 434.50%)
   displ. norm   :     0.3310675 α      lambda       -0.1375913E-02
   maximum displ.:     0.1477279 α      in ANC's #18, #6, #24, ...

........................................................................
.............................. CYCLE   26 ..............................
........................................................................
   1   -253.4705282 -0.253471E+03  0.113E-01    0.85       0.0  T
   2   -253.4705479 -0.196439E-04  0.629E-02    0.85       1.0  T
   3   -253.4705329  0.149656E-04  0.128E-02    0.85       1.0  T
   4   -253.4705564 -0.234321E-04  0.279E-03    0.85       3.0  T
   5   -253.4705564 -0.325891E-07  0.199E-03    0.85       4.2  T
   6   -253.4705568 -0.426556E-06  0.633E-04    0.85      13.1  T
   7   -253.4705569 -0.431202E-07  0.241E-04    0.85      34.4  T
     SCC iter.                  ...        0 min,  0.285 sec
     gradient                   ...        0 min,  0.336 sec
 * total energy  :  -249.3855054 Eh     change       -0.8593652E-03 Eh
   gradient norm :     0.0074628 Eh/α   predicted    -0.7633612E-03 ( -11.17%)
   displ. norm   :     0.5533365 α      lambda       -0.1324783E-02
   maximum displ.:     0.2252042 α      in ANC's #18, #7, #6, ...

........................................................................
.............................. CYCLE   27 ..............................
........................................................................
   1   -253.4696451 -0.253470E+03  0.145E-01    0.85       0.0  T
   2   -253.4696861 -0.410180E-04  0.813E-02    0.86       1.0  T
   3   -253.4695882  0.978402E-04  0.247E-02    0.85       1.0  T
   4   -253.4697081 -0.119841E-03  0.445E-03    0.86       1.9  T
   5   -253.4697088 -0.744200E-06  0.287E-03    0.86       2.9  T
   6   -253.4697094 -0.636113E-06  0.118E-03    0.86       7.0  T
   7   -253.4697096 -0.152139E-06  0.420E-04    0.86      19.7  T
   8   -253.4697096 -0.155442E-07  0.199E-04    0.86      41.5  T
     SCC iter.                  ...        0 min,  0.333 sec
     gradient                   ...        0 min,  0.335 sec
 * total energy  :  -249.3859470 Eh     change       -0.4415983E-03 Eh
   gradient norm :     0.0180621 Eh/α   predicted    -0.8652050E-03 (  95.93%)
   displ. norm   :     0.4899338 α      lambda       -0.1325767E-02
   maximum displ.:     0.2076133 α      in ANC's #18, #6, #7, ...

........................................................................
.............................. CYCLE   28 ..............................
........................................................................
   1   -253.4692064 -0.253469E+03  0.100E-01    0.85       0.0  T
   2   -253.4692203 -0.138269E-04  0.564E-02    0.86       1.0  T
   3   -253.4691478  0.724959E-04  0.206E-02    0.85       1.0  T
   4   -253.4692311 -0.833027E-04  0.315E-03    0.86       2.6  T
   5   -253.4692311 -0.234073E-07  0.227E-03    0.86       3.6  T
   6   -253.4692315 -0.442088E-06  0.722E-04    0.86      11.5  T
   7   -253.4692316 -0.523989E-07  0.297E-04    0.86      27.8  T
     SCC iter.                  ...        0 min,  0.295 sec
     gradient                   ...        0 min,  0.335 sec
 * total energy  :  -249.3868553 Eh     change       -0.9082741E-03 Eh
   gradient norm :     0.0104802 Eh/α   predicted    -0.8220020E-03 (  -9.50%)
   displ. norm   :     0.6111455 α      lambda       -0.1622074E-02
   maximum displ.:     0.2208931 α      in ANC's #7, #18, #6, ...

........................................................................
.............................. CYCLE   29 ..............................
........................................................................
   1   -253.4685124 -0.253469E+03  0.157E-01    0.85       0.0  T
   2   -253.4685593 -0.468882E-04  0.882E-02    0.86       1.0  T
   3   -253.4684212  0.138087E-03  0.301E-02    0.85       1.0  T
   4   -253.4685857 -0.164458E-03  0.505E-03    0.87       1.6  T
   5   -253.4685869 -0.121294E-05  0.332E-03    0.86       2.5  T
   6   -253.4685879 -0.104705E-05  0.130E-03    0.86       6.4  T
   7   -253.4685881 -0.156817E-06  0.454E-04    0.86      18.2  T
   8   -253.4685881 -0.201814E-07  0.223E-04    0.86      37.1  T
     SCC iter.                  ...        0 min,  0.318 sec
     gradient                   ...        0 min,  0.336 sec
 * total energy  :  -249.3871300 Eh     change       -0.2747343E-03 Eh
   gradient norm :     0.0211647 Eh/α   predicted    -0.1113959E-02 ( 305.47%)
   displ. norm   :     0.4575935 α      lambda       -0.1573210E-02
   maximum displ.:     0.1958573 α      in ANC's #18, #6, #7, ...

........................................................................
.............................. CYCLE   30 ..............................
........................................................................
   1   -253.4684167 -0.253468E+03  0.111E-01    0.86       0.0  T
   2   -253.4684385 -0.217744E-04  0.623E-02    0.87       1.0  T
   3   -253.4683658  0.726398E-04  0.209E-02    0.86       1.0  T
   4   -253.4684524 -0.865787E-04  0.329E-03    0.87       2.5  T
   5   -253.4684525 -0.119334E-06  0.232E-03    0.87       3.6  T
   6   -253.4684530 -0.442539E-06  0.848E-04    0.87       9.8  T
   7   -253.4684531 -0.882857E-07  0.290E-04    0.87      28.6  T
     SCC iter.                  ...        0 min,  0.289 sec
     gradient                   ...        0 min,  0.334 sec
 * total energy  :  -249.3882735 Eh     change       -0.1143484E-02 Eh
   gradient norm :     0.0099506 Eh/α   predicted    -0.9513169E-03 ( -16.81%)
   displ. norm   :     0.6958029 α      lambda       -0.1041098E-02
   maximum displ.:     0.2910551 α      in ANC's #18, #6, #7, ...

........................................................................
.............................. CYCLE   31 ..............................
........................................................................
   1   -253.4664168 -0.253466E+03  0.101E-01    0.86       0.0  T
   2   -253.4664288 -0.120142E-04  0.578E-02    0.87       1.0  T
   3   -253.4663130  0.115882E-03  0.252E-02    0.86       1.0  T
   4   -253.4664419 -0.128942E-03  0.381E-03    0.87       2.2  T
   5   -253.4664419 -0.443937E-07  0.273E-03    0.87       3.0  T
   6   -253.4664426 -0.642873E-06  0.908E-04    0.87       9.1  T
   7   -253.4664427 -0.926480E-07  0.362E-04    0.87      22.9  T
     SCC iter.                  ...        0 min,  0.288 sec
     gradient                   ...        0 min,  0.335 sec
 * total energy  :  -249.3891714 Eh     change       -0.8979406E-03 Eh
   gradient norm :     0.0086657 Eh/α   predicted    -0.7725691E-03 ( -13.96%)
   displ. norm   :     0.7849348 α      lambda       -0.1084145E-02
   maximum displ.:     0.3009544 α      in ANC's #18, #7, #6, ...

........................................................................
.............................. CYCLE   32 ..............................
........................................................................
   1   -253.4720901 -0.253472E+03  0.101E-01    0.86       0.0  T
   2   -253.4721000 -0.993036E-05  0.580E-02    0.87       1.0  T
   3   -253.4719983  0.101731E-03  0.235E-02    0.86       1.0  T
   4   -253.4721108 -0.112559E-03  0.410E-03    0.87       2.0  T
   5   -253.4721110 -0.212852E-06  0.293E-03    0.87       2.8  T
   6   -253.4721118 -0.762331E-06  0.936E-04    0.87       8.8  T
   7   -253.4721119 -0.108495E-06  0.378E-04    0.87      21.9  T
     SCC iter.                  ...        0 min,  0.286 sec
     gradient                   ...        0 min,  0.335 sec
 * total energy  :  -249.3901556 Eh     change       -0.9841280E-03 Eh
   gradient norm :     0.0078419 Eh/α   predicted    -0.8760597E-03 ( -10.98%)
   displ. norm   :     0.8742055 α      lambda       -0.1143786E-02
   maximum displ.:     0.3381200 α      in ANC's #18, #7, #6, ...

........................................................................
.............................. CYCLE   33 ..............................
........................................................................
   1   -253.4727312 -0.253473E+03  0.102E-01    0.87       0.0  T
   2   -253.4727383 -0.711593E-05  0.588E-02    0.88       1.0  T
   3   -253.4726471  0.912238E-04  0.222E-02    0.86       1.0  T
   4   -253.4727467 -0.996411E-04  0.408E-03    0.88       2.0  T
   5   -253.4727469 -0.197482E-06  0.283E-03    0.87       2.9  T
   6   -253.4727477 -0.770157E-06  0.947E-04    0.87       8.7  T
   7   -253.4727478 -0.106364E-06  0.395E-04    0.87      20.9  T
     SCC iter.                  ...        0 min,  0.279 sec
     gradient                   ...        0 min,  0.334 sec
 * total energy  :  -249.3912287 Eh     change       -0.1073098E-02 Eh
   gradient norm :     0.0061709 Eh/α   predicted    -0.1008962E-02 (  -5.98%)
   displ. norm   :     0.8612381 α      lambda       -0.1188367E-02
   maximum displ.:     0.3433931 α      in ANC's #7, #6, #18, ...

........................................................................
.............................. CYCLE   34 ..............................
........................................................................
   1   -253.4825054 -0.253483E+03  0.102E-01    0.87       0.0  T
   2   -253.4825150 -0.956643E-05  0.586E-02    0.88       1.0  T
   3   -253.4824657  0.492748E-04  0.167E-02    0.87       1.0  T
   4   -253.4825200 -0.543178E-04  0.465E-03    0.88       1.8  T
   5   -253.4825213 -0.127397E-05  0.288E-03    0.87       2.9  T
   6   -253.4825222 -0.869028E-06  0.949E-04    0.88       8.7  T
   7   -253.4825223 -0.109466E-06  0.408E-04    0.88      20.3  T
     SCC iter.                  ...        0 min,  0.278 sec
     gradient                   ...        0 min,  0.333 sec
 * total energy  :  -249.3922620 Eh     change       -0.1033359E-02 Eh
   gradient norm :     0.0081585 Eh/α   predicted    -0.1034915E-02 (   0.15%)
   displ. norm   :     0.9321339 α      lambda       -0.1143978E-02
   maximum displ.:     0.3633906 α      in ANC's #7, #6, #18, ...

........................................................................
.............................. CYCLE   35 ..............................
........................................................................
   1   -253.4702179 -0.253470E+03  0.110E-01    0.87       0.0  T
   2   -253.4702286 -0.107091E-04  0.633E-02    0.88       1.0  T
   3   -253.4701190  0.109647E-03  0.248E-02    0.87       1.0  T
   4   -253.4702384 -0.119427E-03  0.487E-03    0.88       1.7  T
   5   -253.4702396 -0.121429E-05  0.308E-03    0.88       2.7  T
   6   -253.4702404 -0.808614E-06  0.116E-03    0.88       7.1  T
   7   -253.4702406 -0.160762E-06  0.475E-04    0.88      17.4  T
   8   -253.4702406 -0.982985E-08  0.239E-04    0.88      34.6  T
     SCC iter.                  ...        0 min,  0.311 sec
     gradient                   ...        0 min,  0.332 sec
 * total energy  :  -249.3932806 Eh     change       -0.1018562E-02 Eh
   gradient norm :     0.0088275 Eh/α   predicted    -0.1068978E-02 (   4.95%)
   displ. norm   :     0.8498650 α      lambda       -0.1064820E-02
   maximum displ.:     0.3454393 α      in ANC's #6, #7, #18, ...

........................................................................
.............................. CYCLE   36 ..............................
........................................................................
   1   -253.4697973 -0.253470E+03  0.100E-01    0.87       0.0  T
   2   -253.4698080 -0.107326E-04  0.575E-02    0.88       1.0  T
   3   -253.4697469  0.611660E-04  0.185E-02    0.87       1.0  T
   4   -253.4698138 -0.669608E-04  0.472E-03    0.88       1.8  T
   5   -253.4698155 -0.166349E-05  0.296E-03    0.88       2.8  T
   6   -253.4698162 -0.773440E-06  0.106E-03    0.88       7.8  T
   7   -253.4698164 -0.131894E-06  0.419E-04    0.88      19.7  T
   8   -253.4698164 -0.609998E-08  0.241E-04    0.88      34.3  T
     SCC iter.                  ...        0 min,  0.324 sec
     gradient                   ...        0 min,  0.326 sec
 * total energy  :  -249.3942532 Eh     change       -0.9726021E-03 Eh
   gradient norm :     0.0082375 Eh/α   predicted    -0.9169608E-03 (  -5.72%)
   displ. norm   :     0.8465375 α      lambda       -0.1113637E-02
   maximum displ.:     0.3593856 α      in ANC's #6, #7, #11, ...

........................................................................
.............................. CYCLE   37 ..............................
........................................................................
   1   -253.4752368 -0.253475E+03  0.105E-01    0.87       0.0  T
   2   -253.4752510 -0.142089E-04  0.597E-02    0.88       1.0  T
   3   -253.4751907  0.602964E-04  0.188E-02    0.87       1.0  T
   4   -253.4752571 -0.664675E-04  0.524E-03    0.88       1.6  T
   5   -253.4752596 -0.244115E-05  0.313E-03    0.88       2.6  T
   6   -253.4752604 -0.868383E-06  0.111E-03    0.88       7.5  T
   7   -253.4752606 -0.141746E-06  0.435E-04    0.88      19.0  T
   8   -253.4752606 -0.612638E-08  0.251E-04    0.88      33.0  T
     SCC iter.                  ...        0 min,  0.316 sec
     gradient                   ...        0 min,  0.334 sec
 * total energy  :  -249.3952655 Eh     change       -0.1012341E-02 Eh
   gradient norm :     0.0072035 Eh/α   predicted    -0.9558485E-03 (  -5.58%)
   displ. norm   :     0.9131392 α      lambda       -0.1057062E-02
   maximum displ.:     0.3903010 α      in ANC's #6, #7, #11, ...

........................................................................
.............................. CYCLE   38 ..............................
........................................................................
   1   -253.4758139 -0.253476E+03  0.108E-01    0.87       0.0  T
   2   -253.4758250 -0.110162E-04  0.618E-02    0.89       1.0  T
   3   -253.4757023  0.122638E-03  0.254E-02    0.87       1.0  T
   4   -253.4758360 -0.133674E-03  0.508E-03    0.89       1.6  T
   5   -253.4758373 -0.134735E-05  0.321E-03    0.88       2.6  T
   6   -253.4758382 -0.843449E-06  0.113E-03    0.88       7.3  T
   7   -253.4758383 -0.149494E-06  0.462E-04    0.88      17.9  T
   8   -253.4758383 -0.477800E-08  0.275E-04    0.88      30.1  T
     SCC iter.                  ...        0 min,  0.327 sec
     gradient                   ...        0 min,  0.334 sec
 * total energy  :  -249.3962762 Eh     change       -0.1010721E-02 Eh
   gradient norm :     0.0060390 Eh/α   predicted    -0.9692344E-03 (  -4.10%)
   displ. norm   :     0.8914711 α      lambda       -0.1134505E-02
   maximum displ.:     0.4021490 α      in ANC's #6, #7, #10, ...

........................................................................
.............................. CYCLE   39 ..............................
........................................................................
   1   -253.4896726 -0.253490E+03  0.104E-01    0.88       0.0  T
   2   -253.4896866 -0.140106E-04  0.599E-02    0.89       1.0  T
   3   -253.4895724  0.114201E-03  0.249E-02    0.88       1.0  T
   4   -253.4896961 -0.123689E-03  0.583E-03    0.89       1.4  T
   5   -253.4896994 -0.331257E-05  0.346E-03    0.89       2.4  T
   6   -253.4897004 -0.103686E-05  0.123E-03    0.89       6.7  T
   7   -253.4897006 -0.155944E-06  0.502E-04    0.89      16.5  T
   8   -253.4897006 -0.819722E-08  0.308E-04    0.89      26.8  T
     SCC iter.                  ...        0 min,  0.327 sec
     gradient                   ...        0 min,  0.333 sec
 * total energy  :  -249.3972731 Eh     change       -0.9969083E-03 Eh
   gradient norm :     0.0096523 Eh/α   predicted    -0.1018065E-02 (   2.12%)
   displ. norm   :     0.9359286 α      lambda       -0.1141718E-02
   maximum displ.:     0.4093480 α      in ANC's #7, #6, #11, ...

........................................................................
.............................. CYCLE   40 ..............................
........................................................................
   1   -253.4774791 -0.253477E+03  0.117E-01    0.88       0.0  T
   2   -253.4774920 -0.129183E-04  0.673E-02    0.89       1.0  T
   3   -253.4772924  0.199574E-03  0.328E-02    0.88       1.0  T
   4   -253.4775102 -0.217766E-03  0.536E-03    0.89       1.5  T
   5   -253.4775114 -0.114320E-05  0.344E-03    0.89       2.4  T
   6   -253.4775123 -0.961940E-06  0.130E-03    0.89       6.4  T
   7   -253.4775125 -0.208841E-06  0.510E-04    0.89      16.2  T
   8   -253.4775125 -0.769384E-08  0.268E-04    0.89      30.8  T
     SCC iter.                  ...        0 min,  0.330 sec
     gradient                   ...        0 min,  0.334 sec
 * total energy  :  -249.3983239 Eh     change       -0.1050758E-02 Eh
   gradient norm :     0.0080527 Eh/α   predicted    -0.1070939E-02 (   1.92%)
   displ. norm   :     0.9029848 α      lambda       -0.1081725E-02
   maximum displ.:     0.4050206 α      in ANC's #6, #7, #10, ...

........................................................................
.............................. CYCLE   41 ..............................
........................................................................
   1   -253.4705977 -0.253471E+03  0.103E-01    0.88       0.0  T
   2   -253.4706078 -0.100371E-04  0.596E-02    0.90       1.0  T
   3   -253.4704185  0.189324E-03  0.308E-02    0.88       1.0  T
   4   -253.4706233 -0.204798E-03  0.553E-03    0.90       1.5  T
   5   -253.4706253 -0.206480E-05  0.346E-03    0.89       2.4  T
   6   -253.4706263 -0.101972E-05  0.126E-03    0.89       6.6  T
   7   -253.4706265 -0.184255E-06  0.504E-04    0.89      16.4  T
   8   -253.4706265 -0.881766E-08  0.281E-04    0.89      29.4  T
     SCC iter.                  ...        0 min,  0.328 sec
     gradient                   ...        0 min,  0.334 sec
 * total energy  :  -249.3993187 Eh     change       -0.9947698E-03 Eh
   gradient norm :     0.0098133 Eh/α   predicted    -0.9818757E-03 (  -1.30%)
   displ. norm   :     0.8347675 α      lambda       -0.1201790E-02
   maximum displ.:     0.3858908 α      in ANC's #6, #7, #10, ...

........................................................................
.............................. CYCLE   42 ..............................
........................................................................
   1   -253.4723338 -0.253472E+03  0.109E-01    0.88       0.0  T
   2   -253.4723465 -0.126932E-04  0.623E-02    0.89       1.0  T
   3   -253.4721734  0.173068E-03  0.297E-02    0.88       1.0  T
   4   -253.4723621 -0.188692E-03  0.553E-03    0.89       1.5  T
   5   -253.4723636 -0.147923E-05  0.374E-03    0.89       2.2  T
   6   -253.4723647 -0.118225E-05  0.140E-03    0.89       5.9  T
   7   -253.4723650 -0.240091E-06  0.561E-04    0.89      14.8  T
   8   -253.4723650 -0.809749E-08  0.299E-04    0.89      27.7  T
     SCC iter.                  ...        0 min,  0.319 sec
     gradient                   ...        0 min,  0.333 sec
 * total energy  :  -249.4003390 Eh     change       -0.1020280E-02 Eh
   gradient norm :     0.0200768 Eh/α   predicted    -0.1019622E-02 (  -0.06%)
   displ. norm   :     0.8022366 α      lambda       -0.1340293E-02
   maximum displ.:     0.3665125 α      in ANC's #6, #7, #10, ...
 * RMSD in coord.:     1.1458466 α      energy gain  -0.1789876E-01 Eh

generating ANC from model Hessian ...
Using Lindh-Hessian (1995)
 Shifting diagonal of input Hessian by   1.002515711796357E-002
 Lowest  eigenvalues of input Hessian
    0.010000    0.000000    0.000000    0.000000    0.000000    0.000000
    0.000000    0.010036    0.010050    0.010056    0.010077    0.010091
    0.010117    0.010157    0.010171    0.010187    0.010202    0.010246
 Highest eigenvalues
    2.270837    2.288769    2.605155    2.615585    2.647646    2.663732
 

........................................................................
.............................. CYCLE   43 ..............................
........................................................................
   1   -253.4804190 -0.253480E+03  0.944E-02    0.88       0.0  T
   2   -253.4804359 -0.169571E-04  0.541E-02    0.89       1.0  T
   3   -253.4803612  0.746993E-04  0.248E-02    0.89       1.0  T
   4   -253.4804462 -0.850029E-04  0.515E-03    0.89       1.6  T
   5   -253.4804483 -0.210351E-05  0.251E-03    0.89       3.3  T
   6   -253.4804488 -0.479688E-06  0.119E-03    0.89       6.9  T
   7   -253.4804490 -0.134460E-06  0.559E-04    0.89      14.8  T
   8   -253.4804490 -0.245440E-07  0.288E-04    0.89      28.7  T
     SCC iter.                  ...        0 min,  0.320 sec
     gradient                   ...        0 min,  0.333 sec
 * total energy  :  -249.4013769 Eh     change       -0.1037945E-02 Eh
   gradient norm :     0.0149697 Eh/α   predicted     0.0000000E+00 (-100.00%)
   displ. norm   :     0.1458395 α      lambda       -0.5010767E-03
   maximum displ.:     0.0529213 α      in ANC's #6, #15, #12, ...

........................................................................
.............................. CYCLE   44 ..............................
........................................................................
   1   -253.4832897 -0.253483E+03  0.576E-02    0.89       0.0  T
   2   -253.4832996 -0.986187E-05  0.321E-02    0.89       1.0  T
   3   -253.4832811  0.184905E-04  0.122E-02    0.89       1.0  T
   4   -253.4833037 -0.226059E-04  0.279E-03    0.89       3.0  T
   5   -253.4833045 -0.820844E-06  0.113E-03    0.89       7.3  T
   6   -253.4833046 -0.614956E-07  0.573E-04    0.89      14.4  T
   7   -253.4833046 -0.287860E-07  0.221E-04    0.89      37.4  T
     SCC iter.                  ...        0 min,  0.280 sec
     gradient                   ...        0 min,  0.333 sec
 * total energy  :  -249.4016832 Eh     change       -0.3062571E-03 Eh
   gradient norm :     0.0077364 Eh/α   predicted    -0.2558819E-03 ( -16.45%)
   displ. norm   :     0.3976710 α      lambda       -0.1045655E-02
   maximum displ.:     0.1424826 α      in ANC's #6, #12, #8, ...

........................................................................
.............................. CYCLE   45 ..............................
........................................................................
   1   -253.4905498 -0.253491E+03  0.941E-02    0.90       0.0  T
   2   -253.4905849 -0.350723E-04  0.538E-02    0.89       1.0  T
   3   -253.4904899  0.949797E-04  0.277E-02    0.90       1.0  T
   4   -253.4906015 -0.111559E-03  0.692E-03    0.89       1.2  T
   5   -253.4906075 -0.598664E-05  0.254E-03    0.90       3.3  T
   6   -253.4906078 -0.287840E-06  0.144E-03    0.90       5.7  T
   7   -253.4906080 -0.214042E-06  0.645E-04    0.90      12.8  T
   8   -253.4906080 -0.458141E-07  0.286E-04    0.90      28.9  T
     SCC iter.                  ...        0 min,  0.328 sec
     gradient                   ...        0 min,  0.333 sec
 * total energy  :  -249.4018323 Eh     change       -0.1491577E-03 Eh
   gradient norm :     0.0251540 Eh/α   predicted    -0.6055109E-03 ( 305.95%)
   displ. norm   :     0.2172764 α      lambda       -0.1002852E-02
   maximum displ.:     0.0763735 α      in ANC's #6, #15, #12, ...

........................................................................
.............................. CYCLE   46 ..............................
........................................................................
   1   -253.4901433 -0.253490E+03  0.810E-02    0.90       0.0  T
   2   -253.4901566 -0.132715E-04  0.451E-02    0.90       1.0  T
   3   -253.4901430  0.136082E-04  0.107E-02    0.90       1.0  T
   4   -253.4901620 -0.190430E-04  0.282E-03    0.90       2.9  T
   5   -253.4901627 -0.670150E-06  0.147E-03    0.90       5.6  T
   6   -253.4901628 -0.167615E-06  0.605E-04    0.90      13.7  T
   7   -253.4901629 -0.434190E-07  0.243E-04    0.90      34.0  T
     SCC iter.                  ...        0 min,  0.286 sec
     gradient                   ...        0 min,  0.333 sec
 * total energy  :  -249.4024250 Eh     change       -0.5927360E-03 Eh
   gradient norm :     0.0157239 Eh/α   predicted    -0.5250989E-03 ( -11.41%)
   displ. norm   :     0.3479290 α      lambda       -0.1108431E-02
   maximum displ.:     0.1239755 α      in ANC's #6, #12, #8, ...

........................................................................
.............................. CYCLE   47 ..............................
........................................................................
   1   -253.4832152 -0.253483E+03  0.969E-02    0.89       0.0  T
   2   -253.4832333 -0.181465E-04  0.544E-02    0.90       1.0  T
   3   -253.4831840  0.493569E-04  0.182E-02    0.89       1.0  T
   4   -253.4832420 -0.580458E-04  0.418E-03    0.90       2.0  T
   5   -253.4832436 -0.155658E-05  0.206E-03    0.90       4.0  T
   6   -253.4832438 -0.184859E-06  0.109E-03    0.90       7.6  T
   7   -253.4832439 -0.122054E-06  0.481E-04    0.90      17.2  T
   8   -253.4832439 -0.237532E-07  0.201E-04    0.90      41.2  T
     SCC iter.                  ...        0 min,  0.318 sec
     gradient                   ...        0 min,  0.332 sec
 * total energy  :  -249.4029508 Eh     change       -0.5257147E-03 Eh
   gradient norm :     0.0138033 Eh/α   predicted    -0.6213064E-03 (  18.18%)
   displ. norm   :     0.5032102 α      lambda       -0.9852734E-03
   maximum displ.:     0.1828625 α      in ANC's #6, #12, #8, ...

........................................................................
.............................. CYCLE   48 ..............................
........................................................................
   1   -253.4806324 -0.253481E+03  0.931E-02    0.90       0.0  T
   2   -253.4806468 -0.143867E-04  0.525E-02    0.90       1.0  T
   3   -253.4806039  0.428818E-04  0.175E-02    0.90       1.0  T
   4   -253.4806520 -0.481263E-04  0.517E-03    0.90       1.6  T
   5   -253.4806553 -0.322853E-05  0.242E-03    0.90       3.4  T
   6   -253.4806556 -0.373371E-06  0.117E-03    0.90       7.1  T
   7   -253.4806558 -0.176482E-06  0.424E-04    0.90      19.5  T
   8   -253.4806558 -0.299070E-08  0.253E-04    0.90      32.7  T
     SCC iter.                  ...        0 min,  0.327 sec
     gradient                   ...        0 min,  0.332 sec
 * total energy  :  -249.4036149 Eh     change       -0.6641790E-03 Eh
   gradient norm :     0.0180013 Eh/α   predicted    -0.6173837E-03 (  -7.05%)
   displ. norm   :     0.6702981 α      lambda       -0.1646121E-02
   maximum displ.:     0.2439199 α      in ANC's #6, #12, #8, ...

........................................................................
.............................. CYCLE   49 ..............................
........................................................................
   1   -253.4794548 -0.253479E+03  0.122E-01    0.90       0.0  T
   2   -253.4794771 -0.222903E-04  0.689E-02    0.90       1.0  T
   3   -253.4793937  0.833973E-04  0.238E-02    0.90       1.0  T
   4   -253.4794884 -0.946894E-04  0.605E-03    0.90       1.4  T
   5   -253.4794916 -0.320684E-05  0.323E-03    0.90       2.6  T
   6   -253.4794923 -0.702323E-06  0.161E-03    0.90       5.1  T
   7   -253.4794927 -0.422463E-06  0.559E-04    0.90      14.8  T
   8   -253.4794927 -0.877594E-08  0.321E-04    0.90      25.8  T
     SCC iter.                  ...        0 min,  0.306 sec
     gradient                   ...        0 min,  0.320 sec
 * total energy  :  -249.4048417 Eh     change       -0.1226727E-02 Eh
   gradient norm :     0.0119489 Eh/α   predicted    -0.1192864E-02 (  -2.76%)
   displ. norm   :     0.7519007 α      lambda       -0.1388300E-02
   maximum displ.:     0.2772084 α      in ANC's #6, #12, #8, ...

........................................................................
.............................. CYCLE   50 ..............................
........................................................................
   1   -253.4793922 -0.253479E+03  0.110E-01    0.90       0.0  T
   2   -253.4794033 -0.111265E-04  0.635E-02    0.90       1.0  T
   3   -253.4792734  0.129943E-03  0.290E-02    0.91       1.0  T
   4   -253.4794154 -0.141983E-03  0.564E-03    0.90       1.5  T
   5   -253.4794168 -0.141447E-05  0.374E-03    0.90       2.2  T
   6   -253.4794186 -0.179013E-05  0.170E-03    0.90       4.9  T
   7   -253.4794190 -0.451794E-06  0.574E-04    0.90      14.4  T
   8   -253.4794190 -0.510377E-08  0.331E-04    0.90      25.0  T
     SCC iter.                  ...        0 min,  0.316 sec
     gradient                   ...        0 min,  0.332 sec
 * total energy  :  -249.4060499 Eh     change       -0.1208211E-02 Eh
   gradient norm :     0.0130809 Eh/α   predicted    -0.1086592E-02 ( -10.07%)
   displ. norm   :     0.7523011 α      lambda       -0.1706694E-02
   maximum displ.:     0.2762865 α      in ANC's #6, #12, #8, ...

........................................................................
.............................. CYCLE   51 ..............................
........................................................................
   1   -253.4874572 -0.253487E+03  0.113E-01    0.90       0.0  T
   2   -253.4874735 -0.162825E-04  0.646E-02    0.90       1.0  T
   3   -253.4873656  0.107856E-03  0.275E-02    0.90       1.0  T
   4   -253.4874856 -0.119972E-03  0.573E-03    0.90       1.4  T
   5   -253.4874862 -0.629099E-06  0.403E-03    0.90       2.1  T
   6   -253.4874886 -0.239509E-05  0.168E-03    0.90       4.9  T
   7   -253.4874891 -0.457349E-06  0.654E-04    0.90      12.7  T
   8   -253.4874891 -0.170964E-07  0.359E-04    0.90      23.1  T
     SCC iter.                  ...        0 min,  0.316 sec
     gradient                   ...        0 min,  0.331 sec
 * total energy  :  -249.4073920 Eh     change       -0.1342078E-02 Eh
   gradient norm :     0.0115328 Eh/α   predicted    -0.1336309E-02 (  -0.43%)
   displ. norm   :     0.8279803 α      lambda       -0.1426084E-02
   maximum displ.:     0.3063509 α      in ANC's #6, #12, #8, ...

........................................................................
.............................. CYCLE   52 ..............................
........................................................................
   1   -253.4829288 -0.253483E+03  0.112E-01    0.90       0.0  T
   2   -253.4829402 -0.113927E-04  0.648E-02    0.90       1.0  T
   3   -253.4827926  0.147671E-03  0.312E-02    0.91       1.0  T
   4   -253.4829537 -0.161118E-03  0.607E-03    0.90       1.4  T
   5   -253.4829547 -0.100846E-05  0.430E-03    0.90       1.9  T
   6   -253.4829574 -0.275693E-05  0.174E-03    0.90       4.8  T
   7   -253.4829579 -0.457330E-06  0.596E-04    0.90      13.9  T
   8   -253.4829579 -0.557841E-08  0.352E-04    0.90      23.5  T
     SCC iter.                  ...        0 min,  0.326 sec
     gradient                   ...        0 min,  0.333 sec
 * total energy  :  -249.4085970 Eh     change       -0.1204994E-02 Eh
   gradient norm :     0.0142370 Eh/α   predicted    -0.1201870E-02 (  -0.26%)
   displ. norm   :     0.6552800 α      lambda       -0.1616732E-02
   maximum displ.:     0.2269927 α      in ANC's #6, #12, #9, ...

........................................................................
.............................. CYCLE   53 ..............................
........................................................................
   1   -253.5063550 -0.253506E+03  0.119E-01    0.91       0.0  T
   2   -253.5063824 -0.274047E-04  0.684E-02    0.89       1.0  T
   3   -253.5061038  0.278555E-03  0.411E-02    0.91       1.0  T
   4   -253.5064073 -0.303474E-03  0.987E-03    0.89       1.0  T
   5   -253.5064241 -0.168045E-04  0.449E-03    0.90       1.8  T
   6   -253.5064261 -0.203782E-05  0.178E-03    0.90       4.7  T
   7   -253.5064264 -0.284046E-06  0.828E-04    0.90      10.0  T
   8   -253.5064265 -0.486630E-07  0.457E-04    0.90      18.1  T
     SCC iter.                  ...        0 min,  0.327 sec
     gradient                   ...        0 min,  0.331 sec
 * total energy  :  -249.4091443 Eh     change       -0.5473985E-03 Eh
   gradient norm :     0.0218890 Eh/α   predicted    -0.1155471E-02 ( 111.08%)
   displ. norm   :     0.5953444 α      lambda       -0.1593805E-02
   maximum displ.:     0.2216063 α      in ANC's #6, #12, #8, ...

........................................................................
.............................. CYCLE   54 ..............................
........................................................................
   1   -253.4891222 -0.253489E+03  0.971E-02    0.89       0.0  T
   2   -253.4891367 -0.144953E-04  0.557E-02    0.90       1.0  T
   3   -253.4890672  0.694779E-04  0.229E-02    0.90       1.0  T
   4   -253.4891471 -0.798757E-04  0.486E-03    0.90       1.7  T
   5   -253.4891477 -0.553395E-06  0.313E-03    0.90       2.6  T
   6   -253.4891487 -0.106877E-05  0.951E-04    0.90       8.7  T
   7   -253.4891488 -0.574584E-07  0.602E-04    0.90      13.8  T
   8   -253.4891488 -0.277225E-07  0.316E-04    0.90      26.2  T
     SCC iter.                  ...        0 min,  0.317 sec
     gradient                   ...        0 min,  0.332 sec
 * total energy  :  -249.4102532 Eh     change       -0.1108880E-02 Eh
   gradient norm :     0.0108809 Eh/α   predicted    -0.1079368E-02 (  -2.66%)
   displ. norm   :     0.6686602 α      lambda       -0.8784224E-03
   maximum displ.:     0.2590226 α      in ANC's #6, #12, #8, ...

........................................................................
.............................. CYCLE   55 ..............................
........................................................................
   1   -253.4846604 -0.253485E+03  0.853E-02    0.90       0.0  T
   2   -253.4846670 -0.658833E-05  0.487E-02    0.90       1.0  T
   3   -253.4846347  0.323056E-04  0.147E-02    0.90       1.0  T
   4   -253.4846687 -0.339982E-04  0.468E-03    0.90       1.8  T
   5   -253.4846704 -0.170003E-05  0.293E-03    0.90       2.8  T
   6   -253.4846718 -0.139530E-05  0.750E-04    0.90      11.0  T
   7   -253.4846718 -0.403735E-07  0.390E-04    0.90      21.2  T
   8   -253.4846718 -0.533427E-08  0.209E-04    0.90      39.5  T
     SCC iter.                  ...        0 min,  0.313 sec
     gradient                   ...        0 min,  0.332 sec
 * total energy  :  -249.4110084 Eh     change       -0.7552186E-03 Eh
   gradient norm :     0.0112425 Eh/α   predicted    -0.6355828E-03 ( -15.84%)
   displ. norm   :     0.6275544 α      lambda       -0.1114499E-02
   maximum displ.:     0.2454510 α      in ANC's #6, #12, #8, ...

........................................................................
.............................. CYCLE   56 ..............................
........................................................................
   1   -253.4898157 -0.253490E+03  0.848E-02    0.89       0.0  T
   2   -253.4898271 -0.114905E-04  0.493E-02    0.89       1.0  T
   3   -253.4896102  0.216949E-03  0.354E-02    0.91       1.0  T
   4   -253.4898509 -0.240738E-03  0.656E-03    0.89       1.3  T
   5   -253.4898574 -0.648612E-05  0.303E-03    0.90       2.7  T
   6   -253.4898584 -0.941420E-06  0.135E-03    0.90       6.2  T
   7   -253.4898585 -0.181652E-06  0.488E-04    0.90      17.0  T
   8   -253.4898586 -0.158142E-07  0.273E-04    0.90      30.3  T
     SCC iter.                  ...        0 min,  0.318 sec
     gradient                   ...        0 min,  0.331 sec
 * total energy  :  -249.4118371 Eh     change       -0.8286073E-03 Eh
   gradient norm :     0.0090698 Eh/α   predicted    -0.7767253E-03 (  -6.26%)
   displ. norm   :     0.7694532 α      lambda       -0.9021583E-03
   maximum displ.:     0.3053837 α      in ANC's #6, #12, #8, ...

........................................................................
.............................. CYCLE   57 ..............................
........................................................................
   1   -253.4897634 -0.253490E+03  0.933E-02    0.90       0.0  T
   2   -253.4897686 -0.523244E-05  0.533E-02    0.89       1.0  T
   3   -253.4896865  0.821517E-04  0.211E-02    0.90       1.0  T
   4   -253.4897735 -0.870197E-04  0.497E-03    0.89       1.7  T
   5   -253.4897756 -0.213022E-05  0.304E-03    0.89       2.7  T
   6   -253.4897769 -0.124783E-05  0.688E-04    0.89      12.0  T
   7   -253.4897769 -0.214310E-07  0.348E-04    0.89      23.8  T
   8   -253.4897769 -0.279385E-08  0.189E-04    0.89      43.7  T
     SCC iter.                  ...        0 min,  0.329 sec
     gradient                   ...        0 min,  0.332 sec
 * total energy  :  -249.4126122 Eh     change       -0.7751675E-03 Eh
   gradient norm :     0.0086397 Eh/α   predicted    -0.7181472E-03 (  -7.36%)
   displ. norm   :     0.7369396 α      lambda       -0.8355921E-03
   maximum displ.:     0.3010999 α      in ANC's #6, #8, #12, ...

........................................................................
.............................. CYCLE   58 ..............................
........................................................................
   1   -253.4952069 -0.253495E+03  0.823E-02    0.89       0.0  T
[...]
                            37 C    0.108
    35   6 C    3.991 --    34 C    1.446    36 C    1.412   108 H    0.969
                            38 C    0.109
    36   6 C    3.987 --    35 C    1.412    37 C    1.406    44 C    1.013
                            20 C    0.105
    37   6 C    3.990 --    38 C    1.452    36 C    1.406   109 H    0.969
                            34 C    0.108
    38   6 C    3.990 --    37 C    1.452    20 C    1.404   110 H    0.967
                            35 C    0.109
    39   6 C    3.989 --    40 C    1.456    21 C    1.399   111 H    0.967
                            42 C    0.109
    40   6 C    3.990 --    39 C    1.456    41 C    1.403   112 H    0.969
                            43 C    0.107
    41   6 C    3.986 --    42 C    1.415    40 C    1.403    45 C    1.013
                            21 C    0.105
    42   6 C    3.991 --    43 C    1.441    41 C    1.415   113 H    0.969
                            39 C    0.109
    43   6 C    3.991 --    42 C    1.441    21 C    1.416   114 H    0.967
                            40 C    0.107
    44   6 C    3.997 --    36 C    1.013    50 C    1.000   115 H    0.974
                           116 H    0.974
    45   6 C    3.997 --    41 C    1.013    51 C    1.000   118 H    0.975
                           117 H    0.973
    46   6 C    3.997 --    31 C    1.013    48 C    1.000   119 H    0.975
                           120 H    0.974
    47   6 C    3.997 --    26 C    1.013    49 C    1.000   122 H    0.974
                           121 H    0.974
    48   6 C    3.996 --    46 C    1.000   125 H    0.988   124 H    0.988
                           123 H    0.986
    49   6 C    3.995 --    47 C    1.000   126 H    0.988   127 H    0.988
                           128 H    0.986
    50   6 C    3.995 --    44 C    1.000   131 H    0.988   129 H    0.988
                           130 H    0.986
    51   6 C    3.996 --    45 C    1.000   132 H    0.989   133 H    0.988
                           134 H    0.986
    52  16 S    2.784 --    19 C    1.188    53 C    1.108    87 O    0.137
    53   6 C    3.938 --    54 C    1.354    77 C    1.307    52 S    1.108
    54   6 C    3.963 --    55 C    1.413    53 C    1.354   135 H    0.961
    55   6 C    3.944 --    54 C    1.413    19 C    1.332    74 S    1.018
    56   6 C    3.949 --    57 C    1.492    11 C    1.302   136 H    0.940
    57   6 C    3.956 --    56 C    1.492    61 C    1.142    58 C    1.052
    58   6 C    3.923 --    66 O    1.748    57 C    1.052    59 C    1.014
    59   6 C    3.976 --    62 C    1.417    60 C    1.303    58 C    1.014
    60   6 C    3.982 --    65 C    1.399    59 C    1.303    61 C    1.081
    61   6 C    3.973 --    67 C    1.491    57 C    1.142    60 C    1.081
    62   6 C    3.977 --    59 C    1.417    63 C    1.387   137 H    0.959
    63   6 C    3.881 --    62 C    1.387    64 C    1.331    73 F    0.988
    64   6 C    3.889 --    65 C    1.391    63 C    1.331    72 F    0.990
    65   6 C    3.972 --    60 C    1.399    64 C    1.391   138 H    0.954
    66   8 O    2.051 --    58 C    1.748
    67   6 C    3.944 --    61 C    1.491    69 C    1.096    68 C    1.093
    68   6 C    3.946 --    71 N    2.766    67 C    1.093
    69   6 C    3.946 --    70 N    2.752    67 C    1.096
    70   7 N    2.966 --    69 C    2.752
    71   7 N    2.971 --    68 C    2.766
    72   9 F    1.130 --    64 C    0.990
    73   9 F    1.125 --    63 C    0.988
    74  16 S    2.161 --    55 C    1.018    75 C    0.967
    75   6 C    3.974 --    76 C    1.028   140 H    0.970   139 H    0.970
                            74 S    0.967
    76   6 C    3.994 --    75 C    1.028   142 H    0.986   143 H    0.986
                           141 H    0.978
    77   6 C    3.948 --    78 C    1.483    53 C    1.307   144 H    0.939
    78   6 C    3.955 --    77 C    1.483    82 C    1.142    79 C    1.071
    79   6 C    3.920 --    87 O    1.713    78 C    1.071    80 C    1.018
    80   6 C    3.975 --    83 C    1.417    81 C    1.300    79 C    1.018
    81   6 C    3.981 --    86 C    1.402    80 C    1.300    82 C    1.079
    82   6 C    3.971 --    88 C    1.492    78 C    1.142    81 C    1.079
    83   6 C    3.976 --    80 C    1.417    84 C    1.385   145 H    0.959
    84   6 C    3.882 --    83 C    1.385    85 C    1.331    93 F    0.989
    85   6 C    3.888 --    86 C    1.388    84 C    1.331    94 F    0.992
    86   6 C    3.971 --    81 C    1.402    85 C    1.388   146 H    0.954
    87   8 O    2.130 --    79 C    1.713    52 S    0.137
    88   6 C    3.943 --    82 C    1.492    90 C    1.096    89 C    1.093
    89   6 C    3.946 --    91 N    2.769    88 C    1.093
    90   6 C    3.946 --    92 N    2.759    88 C    1.096
    91   7 N    2.971 --    89 C    2.769
    92   7 N    2.967 --    90 C    2.759
    93   9 F    1.127 --    84 C    0.989
    94   9 F    1.133 --    85 C    0.992
    95   1 H    0.996 --     3 C    0.963
    96   1 H    0.996 --     6 C    0.963
    97   1 H    0.989 --    10 C    0.936
    98   1 H    0.995 --    16 C    0.954
    99   1 H    0.999 --    24 C    0.967
   100   1 H    0.998 --    25 C    0.969
   101   1 H    0.998 --    27 C    0.969
   102   1 H    0.999 --    28 C    0.967
   103   1 H    0.998 --    29 C    0.967
   104   1 H    0.998 --    30 C    0.969
   105   1 H    0.998 --    32 C    0.969
   106   1 H    0.999 --    33 C    0.967
   107   1 H    0.999 --    34 C    0.967
   108   1 H    0.998 --    35 C    0.969
   109   1 H    0.998 --    37 C    0.969
   110   1 H    0.999 --    38 C    0.967
   111   1 H    0.998 --    39 C    0.967
   112   1 H    0.998 --    40 C    0.969
   113   1 H    0.998 --    42 C    0.969
   114   1 H    0.999 --    43 C    0.967
   115   1 H    0.998 --    44 C    0.974
   116   1 H    0.998 --    44 C    0.974
   117   1 H    0.998 --    45 C    0.973
   118   1 H    0.998 --    45 C    0.975
   119   1 H    0.998 --    46 C    0.975
   120   1 H    0.998 --    46 C    0.974
   121   1 H    0.998 --    47 C    0.974
   122   1 H    0.998 --    47 C    0.974
   123   1 H    0.998 --    48 C    0.986
   124   1 H    0.999 --    48 C    0.988
   125   1 H    0.999 --    48 C    0.988
   126   1 H    0.999 --    49 C    0.988
   127   1 H    0.999 --    49 C    0.988
   128   1 H    0.998 --    49 C    0.986
   129   1 H    0.999 --    50 C    0.988
   130   1 H    0.998 --    50 C    0.986
   131   1 H    0.999 --    50 C    0.988
   132   1 H    0.999 --    51 C    0.989
   133   1 H    0.999 --    51 C    0.988
   134   1 H    0.998 --    51 C    0.986
   135   1 H    0.995 --    54 C    0.961
   136   1 H    0.994 --    56 C    0.940
   137   1 H    0.991 --    62 C    0.959
   138   1 H    0.991 --    65 C    0.954
   139   1 H    0.996 --    75 C    0.970
   140   1 H    0.998 --    75 C    0.970
   141   1 H    0.998 --    76 C    0.978
   142   1 H    0.997 --    76 C    0.986
   143   1 H    0.998 --    76 C    0.986
   144   1 H    0.994 --    77 C    0.939
   145   1 H    0.991 --    83 C    0.959
   146   1 H    0.991 --    86 C    0.954
 ---------------------------------------------------------------------------

Topologies differ in bond orders
Writing corrected topology to xtbtopo.mol

molecular dipole:
                 x           y           z       tot (Debye)
 q only:       -0.756      -1.639      -1.094
   full:       -0.095      -1.122      -1.261       4.297
molecular quadrupole (traceless):
                xx          xy          yy          xz          yz          zz
 q only:      -56.143      75.883      41.568    -130.108      84.784      14.575
  q+dip:      -53.910      76.469      48.092    -140.745      94.483       5.818
   full:      -58.008      73.669      44.157    -145.293     101.874      13.851

           -------------------------------------------------
          |                Geometry Summary                 |
           -------------------------------------------------

      molecular mass/u    :     1305.5501760
   center of mass at/Å    :        0.2670176       0.1219882       0.2165193
  moments of inertia/u·Å² :        0.2149076E+05   0.7345155E+05   0.8345880E+05
rotational constants/cm⁻¹ :        0.7844130E-03   0.2295068E-03   0.2019875E-03

 * 132 selected distances

     #   Z          #   Z                                           value/Å
     1   6 C        2   6 C                                       1.4157946
     2   6 C        3   6 C                                       1.3941385
     3   6 C        4   6 C                                       1.3736389
     4   6 C        5   6 C                                       1.4176165
     1   6 C        6   6 C                                       1.3757303
     5   6 C        6   6 C                                       1.3921960
     2   6 C        9   6 C                                       1.4262402
     8   6 C        9   6 C                                       1.3966025
     8   6 C       10   6 C                                       1.3809851
    10   6 C       11   6 C                                       1.3947168
     9   6 C       12  16 S                                       1.7040061
     5   6 C       15   6 C                                       1.4285090
    14   6 C       15   6 C                                       1.3880157
    14   6 C       16   6 C                                       1.3878774
    16   6 C       17   6 C                                       1.3862827
    15   6 C       18  16 S                                       1.7154268
    17   6 C       18  16 S                                       1.7567104 (max)
    17   6 C       19   6 C                                       1.4168058
    22   6 C       24   6 C                                       1.3875863
    24   6 C       25   6 C                                       1.3826911
    25   6 C       26   6 C                                       1.3881206
    26   6 C       27   6 C                                       1.3889943
    22   6 C       28   6 C                                       1.3890973
    27   6 C       28   6 C                                       1.3817789
    23   6 C       29   6 C                                       1.3902510
    29   6 C       30   6 C                                       1.3806932
    30   6 C       31   6 C                                       1.3897394
    31   6 C       32   6 C                                       1.3875850
    23   6 C       33   6 C                                       1.3866123
    32   6 C       33   6 C                                       1.3838687
    20   6 C       34   6 C                                       1.3873991
    34   6 C       35   6 C                                       1.3827890
    35   6 C       36   6 C                                       1.3882791
    36   6 C       37   6 C                                       1.3891984
    20   6 C       38   6 C                                       1.3892113
    37   6 C       38   6 C                                       1.3816137
    21   6 C       39   6 C                                       1.3903398
    39   6 C       40   6 C                                       1.3807261
    40   6 C       41   6 C                                       1.3897883
    41   6 C       42   6 C                                       1.3877281
    21   6 C       43   6 C                                       1.3867091
    42   6 C       43   6 C                                       1.3839231
    46   6 C       48   6 C                                       1.5302343
    47   6 C       49   6 C                                       1.5300508
    44   6 C       50   6 C                                       1.5301958
    45   6 C       51   6 C                                       1.5302811
    19   6 C       52  16 S                                       1.7329011
    52  16 S       53   6 C                                       1.7485375
    53   6 C       54   6 C                                       1.3952777
    19   6 C       55   6 C                                       1.3989130
    54   6 C       55   6 C                                       1.3847214
    11   6 C       56   6 C                                       1.4015640
    56   6 C       57   6 C                                       1.3747231
    59   6 C       60   6 C                                       1.4026958
    59   6 C       62   6 C                                       1.3807486
    62   6 C       63   6 C                                       1.3850188
    63   6 C       64   6 C                                       1.3949969
    60   6 C       65   6 C                                       1.3866659
    64   6 C       65   6 C                                       1.3868323
    58   6 C       66   8 O                                       1.2138382
    61   6 C       67   6 C                                       1.3711134
    69   6 C       70   7 N                                       1.1489136
    68   6 C       71   7 N                                       1.1477837
    64   6 C       72   9 F                                       1.3380740
    63   6 C       73   9 F                                       1.3389652
    75   6 C       76   6 C                                       1.5144253
    53   6 C       77   6 C                                       1.4003789
    77   6 C       78   6 C                                       1.3741205
    80   6 C       81   6 C                                       1.4049487
    80   6 C       83   6 C                                       1.3805252
    83   6 C       84   6 C                                       1.3855597
    84   6 C       85   6 C                                       1.3950420
    81   6 C       86   6 C                                       1.3859962
    85   6 C       86   6 C                                       1.3874783
    79   6 C       87   8 O                                       1.2176355
    82   6 C       88   6 C                                       1.3701962
    89   6 C       91   7 N                                       1.1476682
    90   6 C       92   7 N                                       1.1484476
    84   6 C       93   9 F                                       1.3383693
    85   6 C       94   9 F                                       1.3373542
     3   6 C       95   1 H                                       1.0789677
     6   6 C       96   1 H                                       1.0789257
    10   6 C       97   1 H                                       1.0737249 (min)
    16   6 C       98   1 H                                       1.0745222
    24   6 C       99   1 H                                       1.0802926
    25   6 C      100   1 H                                       1.0807234
    27   6 C      101   1 H                                       1.0806883
    28   6 C      102   1 H                                       1.0803441
    29   6 C      103   1 H                                       1.0799925
    30   6 C      104   1 H                                       1.0803897
    32   6 C      105   1 H                                       1.0807787
    33   6 C      106   1 H                                       1.0804004
    34   6 C      107   1 H                                       1.0805795
    35   6 C      108   1 H                                       1.0806748
    37   6 C      109   1 H                                       1.0805998
    38   6 C      110   1 H                                       1.0807005
    39   6 C      111   1 H                                       1.0802247
    40   6 C      112   1 H                                       1.0806734
    42   6 C      113   1 H                                       1.0807139
    43   6 C      114   1 H                                       1.0804537
    44   6 C      115   1 H                                       1.0917413
    44   6 C      116   1 H                                       1.0917696
    45   6 C      117   1 H                                       1.0917453
    45   6 C      118   1 H                                       1.0915366
    46   6 C      119   1 H                                       1.0917662
    46   6 C      120   1 H                                       1.0917478
    47   6 C      121   1 H                                       1.0918541
    47   6 C      122   1 H                                       1.0919043
    48   6 C      123   1 H                                       1.0873851
    48   6 C      124   1 H                                       1.0877403
    48   6 C      125   1 H                                       1.0877873
    49   6 C      126   1 H                                       1.0876401
    49   6 C      127   1 H                                       1.0876691
    49   6 C      128   1 H                                       1.0874183
    50   6 C      129   1 H                                       1.0876832
    50   6 C      130   1 H                                       1.0873259
    50   6 C      131   1 H                                       1.0878148
    51   6 C      132   1 H                                       1.0879695
    51   6 C      133   1 H                                       1.0878594
    51   6 C      134   1 H                                       1.0872857
    54   6 C      135   1 H                                       1.0757197
    56   6 C      136   1 H                                       1.0834703
    62   6 C      137   1 H                                       1.0783049
    65   6 C      138   1 H                                       1.0772451
    75   6 C      139   1 H                                       1.0892194
    75   6 C      140   1 H                                       1.0895244
    76   6 C      141   1 H                                       1.0881194
    76   6 C      142   1 H                                       1.0876078
    76   6 C      143   1 H                                       1.0886540
    77   6 C      144   1 H                                       1.0831896
    83   6 C      145   1 H                                       1.0782677
    86   6 C      146   1 H                                       1.0774607

 * 6 distinct bonds (by element types)

   Z      Z             #   av. dist./Å        max./Å        min./Å
   1 H    6 C          52     1.0841692     1.0919043     1.0737249
   6 C    6 C          65     1.4005012     1.5302811     1.3701962
   6 C    7 N           4     1.1482033     1.1489136     1.1476682
   6 C    8 O           2     1.2157368     1.2176355     1.2138382
   6 C    9 F           4     1.3381907     1.3389652     1.3373542
   6 C   16 S           5     1.7315164     1.7567104     1.7040061


optimized geometry written to: xtbopt.mol


           -------------------------------------------------
          | TOTAL ENERGY             -249.425073418308 Eh   |
          | GRADIENT NORM               0.000458799589 Eh/α |
          | HOMO-LUMO GAP               0.906803842480 eV   |
           -------------------------------------------------

------------------------------------------------------------------------
 * finished run on 2021/12/22 at 18:08:10.326     
------------------------------------------------------------------------
 total:
 * wall-time:     0 d,  0 h,  2 min,  9.271 sec
 *  cpu-time:     0 d,  0 h,  2 min,  9.268 sec
 * ratio c/w:     1.000 speedup
 SCF:
 * wall-time:     0 d,  0 h,  0 min,  0.980 sec
 *  cpu-time:     0 d,  0 h,  0 min,  0.980 sec
 * ratio c/w:     1.000 speedup
 ANC optimizer:
 * wall-time:     0 d,  0 h,  2 min,  8.201 sec
 *  cpu-time:     0 d,  0 h,  2 min,  8.198 sec
 * ratio c/w:     1.000 speedup

