      -----------------------------------------------------------      
     |                   =====================                   |     
     |                           x T B                           |     
     |                   =====================                   |     
     |                         S. Grimme                         |     
     |          Mulliken Center for Theoretical Chemistry        |     
     |                    University of Bonn                     |     
      -----------------------------------------------------------      

   * xtb version 6.4.1 (unknown) compiled by 'oda6@login1.crc.pitt.edu' on 2021-06-25

   xtb is free software: you can redistribute it and/or modify it under
   the terms of the GNU Lesser General Public License as published by
   the Free Software Foundation, either version 3 of the License, or
   (at your option) any later version.
   
   xtb is distributed in the hope that it will be useful,
   but WITHOUT ANY WARRANTY; without even the implied warranty of
   MERCHANTABILITY or FITNESS FOR A PARTICULAR PURPOSE.  See the
   GNU Lesser General Public License for more details.
   
   Cite this work as:
   * C. Bannwarth, E. Caldeweyher, S. Ehlert, A. Hansen, P. Pracht,
     J. Seibert, S. Spicher, S. Grimme, WIREs Comput. Mol. Sci., 2020, 11,
     e01493. DOI: 10.1002/wcms.1493
   
   for GFN2-xTB:
   * C. Bannwarth, S. Ehlert and S. Grimme., J. Chem. Theory Comput., 2019,
     15, 1652-1671. DOI: 10.1021/acs.jctc.8b01176
   for GFN1-xTB:
   * S. Grimme, C. Bannwarth, P. Shushkov, J. Chem. Theory Comput., 2017,
     13, 1989-2009. DOI: 10.1021/acs.jctc.7b00118
   for GFN0-xTB:
   * P. Pracht, E. Caldeweyher, S. Ehlert, S. Grimme, ChemRxiv, 2019, preprint.
     DOI: 10.26434/chemrxiv.8326202.v1
   for GFN-FF:
   * S. Spicher and S. Grimme, Angew. Chem. Int. Ed., 2020, 59, 15665-15673.
     DOI: 10.1002/anie.202004239
   
   for DFT-D4:
   * E. Caldeweyher, C. Bannwarth and S. Grimme, J. Chem. Phys., 2017,
     147, 034112. DOI: 10.1063/1.4993215
   * E. Caldeweyher, S. Ehlert, A. Hansen, H. Neugebauer, S. Spicher,
     C. Bannwarth and S. Grimme, J. Chem. Phys., 2019, 150, 154122.
     DOI: 10.1063/1.5090222
   * E. Caldeweyher, J.-M. Mewes, S. Ehlert and S. Grimme, Phys. Chem. Chem. Phys.
     2020, 22, 8499-8512. DOI: 10.1039/D0CP00502A
   
   for sTDA-xTB:
   * S. Grimme and C. Bannwarth, J. Chem. Phys., 2016, 145, 054103.
     DOI: 10.1063/1.4959605
   
   in the mass-spec context:
   * V. Asgeirsson, C. Bauer and S. Grimme, Chem. Sci., 2017, 8, 4879.
     DOI: 10.1039/c7sc00601b
   * J. Koopman and S. Grimme, ACS Omega 2019, 4, 12, 15120-15133.
     DOI: 10.1021/acsomega.9b02011
   
   for metadynamics refer to:
   * S. Grimme, J. Chem. Theory Comput., 2019, 155, 2847-2862
     DOI: 10.1021/acs.jctc.9b00143
   
   for SPH calculations refer to:
   * S. Spicher and S. Grimme, J. Chem. Theory Comput., 2021, 17, 1701-1714
     DOI: 10.1021/acs.jctc.0c01306
   
   with help from (in alphabetical order)
   P. Atkinson, C. Bannwarth, F. Bohle, G. Brandenburg, E. Caldeweyher
   M. Checinski, S. Dohm, S. Ehlert, S. Ehrlich, I. Gerasimov, J. Koopman
   C. Lavigne, S. Lehtola, F. März, M. Müller, F. Musil, H. Neugebauer
   J. Pisarek, C. Plett, P. Pracht, J. Seibert, P. Shushkov, S. Spicher
   M. Stahn, M. Steiner, T. Strunk, J. Stückrath, T. Rose, and J. Unsleber
   
 * started run on 2021/12/22 at 20:57:20.584     

           -------------------------------------------------
          |                Calculation Setup                |
           -------------------------------------------------

          program call               : /ihome/ghutchison/oda6/xtb/xtb-641/bin//xtb QOC6-4H.mol -opt
          hostname                   : smp-n104
          coordinate file            : QOC6-4H.mol
          omp threads                :                     1
          number of atoms            :                   122
          number of electrons        :                   380
          charge                     :                     0
          spin                       :                   0.0
          first test random number   :      0.77990749165981

   ID    Z sym.   atoms
    1    6 C      1-14, 16-20, 22-26, 28-30, 33, 35-40, 42-53, 55-61, 64-68,
                  70, 71, 75-78
    2   16 S      15, 21, 34, 41
    3    8 O      27, 54
    4    7 N      31, 32, 62, 63, 69, 72
    5    9 F      73, 74
    6    1 H      79-122
########################################################################
[WARNING] Please study the warnings concerning your input carefully
-1- prog_main_parseArguments: the use of '-opt' is discouraged, please use '--opt' next time
########################################################################

           -------------------------------------------------
          |                 G F N 2 - x T B                 |
           -------------------------------------------------

        Reference                      10.1021/acs.jctc.8b01176
      * Hamiltonian:
        H0-scaling (s, p, d)           1.850000    2.230000    2.230000
        zeta-weighting                 0.500000
      * Dispersion:
        s8                             2.700000
        a1                             0.520000
        a2                             5.000000
        s9                             5.000000
      * Repulsion:
        kExp                           1.500000    1.000000
        rExp                           1.000000
      * Coulomb:
        alpha                          2.000000
        third order                    shell-resolved
        anisotropic                    true
        a3                             3.000000
        a5                             4.000000
        cn-shift                       1.200000
        cn-exp                         4.000000
        max-rad                        5.000000


          ...................................................
          :                      SETUP                      :
          :.................................................:
          :  # basis functions                 380          :
          :  # atomic orbitals                 376          :
          :  # shells                          204          :
          :  # electrons                       380          :
          :  max. iterations                   250          :
          :  Hamiltonian                  GFN2-xTB          :
          :  restarted?                      false          :
          :  GBSA solvation                  false          :
          :  PC potential                    false          :
          :  electronic temp.          300.0000000     K    :
          :  accuracy                    1.0000000          :
          :  -> integral cutoff          0.2500000E+02      :
          :  -> integral neglect         0.1000000E-07      :
          :  -> SCF convergence          0.1000000E-05 Eh   :
          :  -> wf. convergence          0.1000000E-03 e    :
          :  Broyden damping             0.4000000          :
          ...................................................

 iter      E             dE          RMSdq      gap      omega  full diag
   1   -210.1834621 -0.210183E+03  0.477E+00    1.35       0.0  T
   2   -210.2952885 -0.111826E+00  0.298E+00    1.17       1.0  T
   3   -210.0642557  0.231033E+00  0.210E+00    0.82       1.0  T
   4   -210.4284625 -0.364207E+00  0.653E-01    1.07       1.0  T
   5   -210.4666018 -0.381393E-01  0.191E-01    0.85       1.0  T
   6   -210.4685130 -0.191120E-02  0.912E-02    0.95       1.0  T
   7   -210.4690742 -0.561181E-03  0.439E-02    0.94       1.0  T
   8   -210.4692687 -0.194523E-03  0.170E-02    0.94       1.0  T
   9   -210.4692834 -0.147175E-04  0.821E-03    0.94       1.1  T
  10   -210.4692869 -0.344270E-05  0.330E-03    0.94       2.7  T
  11   -210.4692876 -0.725801E-06  0.162E-03    0.94       5.6  T
  12   -210.4692878 -0.198814E-06  0.705E-04    0.94      12.8  T
  13   -210.4692878 -0.178904E-07  0.396E-04    0.94      22.9  T

   *** convergence criteria satisfied after 13 iterations ***

         #    Occupation            Energy/Eh            Energy/eV
      -------------------------------------------------------------
         1        2.0000           -0.8318858             -22.6368
       ...           ...                  ...                  ...
       184        2.0000           -0.4034521             -10.9785
       185        2.0000           -0.4006650             -10.9026
       186        2.0000           -0.4001516             -10.8887
       187        2.0000           -0.3978112             -10.8250
       188        2.0000           -0.3784783             -10.2989
       189        2.0000           -0.3678851             -10.0107
       190        2.0000           -0.3664739              -9.9723 (HOMO)
       191                         -0.3318048              -9.0289 (LUMO)
       192                         -0.3270205              -8.8987
       193                         -0.3232222              -8.7953
       194                         -0.3206948              -8.7265
       195                         -0.3151281              -8.5751
       ...                                ...                  ...
       376                          1.0779871              29.3335
      -------------------------------------------------------------
                  HL-Gap            0.0346691 Eh            0.9434 eV
             Fermi-level           -0.3490455 Eh           -9.4980 eV

 SCC (total)                   0 d,  0 h,  0 min,  0.512 sec
 SCC setup                      ...        0 min,  0.002 sec (  0.330%)
 Dispersion                     ...        0 min,  0.005 sec (  0.899%)
 classical contributions        ...        0 min,  0.001 sec (  0.105%)
 integral evaluation            ...        0 min,  0.050 sec (  9.834%)
 iterations                     ...        0 min,  0.257 sec ( 50.258%)
 molecular gradient             ...        0 min,  0.196 sec ( 38.218%)
 printout                       ...        0 min,  0.002 sec (  0.347%)

         :::::::::::::::::::::::::::::::::::::::::::::::::::::
         ::                     SUMMARY                     ::
         :::::::::::::::::::::::::::::::::::::::::::::::::::::
         :: total energy            -207.349637736170 Eh    ::
         :: gradient norm              0.263919195797 Eh/a0 ::
         :: HOMO-LUMO gap              0.943394651046 eV    ::
         ::.................................................::
         :: SCC energy              -210.469287796599 Eh    ::
         :: -> isotropic ES            0.132125358004 Eh    ::
         :: -> anisotropic ES          0.021795946449 Eh    ::
         :: -> anisotropic XC          0.146173117690 Eh    ::
         :: -> dispersion             -0.179458491020 Eh    ::
         :: repulsion energy           3.118163515043 Eh    ::
         :: add. restraining           0.000000000000 Eh    ::
         :: total charge               0.000000000017 e     ::
         :::::::::::::::::::::::::::::::::::::::::::::::::::::

      ----------------------------------------------------------- 
     |                   =====================                   |
     |                        A N C O P T                        |
     |                   =====================                   |
     |               Approximate Normal Coordinate               |
     |                Rational Function Optimizer                |
      ----------------------------------------------------------- 

          ...................................................
          :                      SETUP                      :
          :.................................................:
          :   optimization level            normal          :
          :   max. optcycles                   366          :
          :   ANC micro-cycles                  20          :
          :   degrees of freedom               360          :
          :.................................................:
          :   RF solver                   davidson          :
          :   write xtbopt.log                true          :
          :   linear?                        false          :
          :   energy convergence         0.5000000E-05 Eh   :
          :   grad. convergence          0.1000000E-02 Eh/α :
          :   maximium RF displ.         1.0000000          :
          :   Hlow (freq-cutoff)         0.1000000E-01      :
          :   Hmax (freq-cutoff)         5.0000000          :
          :   S6 in model hess.         20.0000000          :
          ...................................................

generating ANC from model Hessian ...
Using Lindh-Hessian (1995)
 Shifting diagonal of input Hessian by   1.000745649218643E-002
 Lowest  eigenvalues of input Hessian
    0.010000    0.000000    0.000000    0.000000    0.000000    0.000000
    0.000000    0.010009    0.010025    0.010037    0.010065    0.010095
    0.010138    0.010167    0.010237    0.010260    0.010288    0.010332
 Highest eigenvalues
    2.143055    2.146453    2.501657    2.503247    2.554889    2.556996
 

........................................................................
.............................. CYCLE    1 ..............................
........................................................................
   1   -210.4692878 -0.210469E+03  0.182E-04    0.94       0.0  T
   2   -210.4692878 -0.102517E-09  0.139E-04    0.94      65.0  T
   3   -210.4692878 -0.155475E-08  0.823E-05    0.94     110.1  T
     SCC iter.                  ...        0 min,  0.058 sec
     gradient                   ...        0 min,  0.194 sec
 * total energy  :  -207.3496377 Eh     change       -0.7906038E-08 Eh
   gradient norm :     0.2639215 Eh/α   predicted     0.0000000E+00 (-100.00%)
   displ. norm   :     0.4646803 α      lambda       -0.7591631E-01
   maximum displ.:     0.1090651 α      in ANC's #113, #94, #90, ...

........................................................................
.............................. CYCLE    2 ..............................
........................................................................
   1   -210.6268459 -0.210627E+03  0.266E-01    0.90       0.0  T
   2   -210.6278549 -0.100894E-02  0.165E-01    0.97       1.0  T
   3   -210.6277650  0.898080E-04  0.927E-02    0.95       1.0  T
   4   -210.6282279 -0.462864E-03  0.341E-02    0.95       1.0  T
   5   -210.6283081 -0.801586E-04  0.159E-02    0.96       1.0  T
   6   -210.6283306 -0.225504E-04  0.588E-03    0.96       1.5  T
   7   -210.6283329 -0.232434E-05  0.246E-03    0.96       3.7  T
   8   -210.6283334 -0.413338E-06  0.114E-03    0.96       7.9  T
   9   -210.6283334 -0.209243E-07  0.731E-04    0.96      12.4  T
  10   -210.6283334 -0.429730E-07  0.267E-04    0.96      33.9  T
     SCC iter.                  ...        0 min,  0.187 sec
     gradient                   ...        0 min,  0.195 sec
 * total energy  :  -207.4040730 Eh     change       -0.5443528E-01 Eh
   gradient norm :     0.1189992 Eh/α   predicted    -0.4621080E-01 ( -15.11%)
   displ. norm   :     0.5046904 α      lambda       -0.3092165E-01
   maximum displ.:     0.1177144 α      in ANC's #77, #64, #102, ...

........................................................................
.............................. CYCLE    3 ..............................
........................................................................
   1   -210.7105526 -0.210711E+03  0.259E-01    0.88       0.0  T
   2   -210.7112880 -0.735392E-03  0.151E-01    0.97       1.0  T
   3   -210.7110094  0.278547E-03  0.101E-01    0.92       1.0  T
   4   -210.7116577 -0.648318E-03  0.391E-02    0.95       1.0  T
   5   -210.7118568 -0.199109E-03  0.160E-02    0.94       1.0  T
   6   -210.7118790 -0.221257E-04  0.548E-03    0.95       1.7  T
   7   -210.7118805 -0.148872E-05  0.257E-03    0.94       3.5  T
   8   -210.7118810 -0.520703E-06  0.111E-03    0.94       8.1  T
   9   -210.7118810 -0.682258E-07  0.625E-04    0.94      14.5  T
  10   -210.7118811 -0.213982E-07  0.233E-04    0.94      38.9  T
     SCC iter.                  ...        0 min,  0.187 sec
     gradient                   ...        0 min,  0.195 sec
 * total energy  :  -207.4227358 Eh     change       -0.1866278E-01 Eh
   gradient norm :     0.0362110 Eh/α   predicted    -0.1939891E-01 (   3.94%)
   displ. norm   :     0.5551060 α      lambda       -0.1094523E-01
   maximum displ.:     0.1710609 α      in ANC's #32, #47, #58, ...

........................................................................
.............................. CYCLE    4 ..............................
........................................................................
   1   -210.7375624 -0.210738E+03  0.262E-01    0.92       0.0  T
   2   -210.7377169 -0.154462E-03  0.150E-01    0.97       1.0  T
   3   -210.7365707  0.114620E-02  0.980E-02    0.92       1.0  T
   4   -210.7378837 -0.131303E-02  0.229E-02    0.96       1.0  T
   5   -210.7379574 -0.736566E-04  0.849E-03    0.96       1.1  T
   6   -210.7379616 -0.422685E-05  0.362E-03    0.96       2.5  T
   7   -210.7379624 -0.806780E-06  0.153E-03    0.96       5.9  T
   8   -210.7379626 -0.186201E-06  0.753E-04    0.96      12.0  T
   9   -210.7379626 -0.439659E-07  0.332E-04    0.96      27.3  T
     SCC iter.                  ...        0 min,  0.170 sec
     gradient                   ...        0 min,  0.197 sec
 * total energy  :  -207.4267766 Eh     change       -0.4040795E-02 Eh
   gradient norm :     0.0394000 Eh/α   predicted    -0.7159021E-02 (  77.17%)
   displ. norm   :     0.5307667 α      lambda       -0.9416433E-02
   maximum displ.:     0.1687972 α      in ANC's #47, #64, #58, ...

........................................................................
.............................. CYCLE    5 ..............................
........................................................................
   1   -210.7521753 -0.210752E+03  0.285E-01    0.94       0.0  T
   2   -210.7522967 -0.121411E-03  0.160E-01    0.98       1.0  T
   3   -210.7507983  0.149847E-02  0.980E-02    0.93       1.0  T
   4   -210.7524868 -0.168851E-02  0.126E-02    0.97       1.0  T
   5   -210.7524966 -0.983501E-05  0.701E-03    0.97       1.3  T
   6   -210.7524994 -0.280878E-05  0.321E-03    0.97       2.8  T
   7   -210.7525003 -0.915903E-06  0.133E-03    0.97       6.8  T
   8   -210.7525005 -0.149646E-06  0.599E-04    0.97      15.1  T
   9   -210.7525005 -0.245941E-07  0.284E-04    0.97      31.9  T
     SCC iter.                  ...        0 min,  0.166 sec
     gradient                   ...        0 min,  0.198 sec
 * total energy  :  -207.4321572 Eh     change       -0.5380572E-02 Eh
   gradient norm :     0.0303403 Eh/α   predicted    -0.6034762E-02 (  12.16%)
   displ. norm   :     0.5110352 α      lambda       -0.5072813E-02
   maximum displ.:     0.1508539 α      in ANC's #48, #19, #44, ...

........................................................................
.............................. CYCLE    6 ..............................
........................................................................
   1   -210.7418390 -0.210742E+03  0.246E-01    0.95       0.0  T
   2   -210.7419186 -0.796428E-04  0.139E-01    0.97       1.0  T
   3   -210.7404239  0.149470E-02  0.995E-02    0.93       1.0  T
   4   -210.7421125 -0.168856E-02  0.105E-02    0.97       1.0  T
   5   -210.7421169 -0.441442E-05  0.624E-03    0.97       1.5  T
   6   -210.7421196 -0.270909E-05  0.282E-03    0.97       3.2  T
   7   -210.7421202 -0.610142E-06  0.120E-03    0.97       7.5  T
   8   -210.7421203 -0.106270E-06  0.591E-04    0.97      15.3  T
   9   -210.7421204 -0.281463E-07  0.252E-04    0.97      35.9  T
     SCC iter.                  ...        0 min,  0.170 sec
     gradient                   ...        0 min,  0.194 sec
 * total energy  :  -207.4337682 Eh     change       -0.1611029E-02 Eh
   gradient norm :     0.0453444 Eh/α   predicted    -0.3198822E-02 (  98.56%)
   displ. norm   :     0.4776810 α      lambda       -0.6098310E-02
   maximum displ.:     0.1589013 α      in ANC's #47, #31, #32, ...

........................................................................
.............................. CYCLE    7 ..............................
........................................................................
   1   -210.7567194 -0.210757E+03  0.200E-01    0.97       0.0  T
   2   -210.7568002 -0.807133E-04  0.113E-01    0.98       1.0  T
   3   -210.7561192  0.680983E-03  0.665E-02    0.96       1.0  T
   4   -210.7568896 -0.770446E-03  0.111E-02    0.98       1.0  T
   5   -210.7569006 -0.109316E-04  0.540E-03    0.98       1.7  T
   6   -210.7569022 -0.167583E-05  0.248E-03    0.98       3.6  T
   7   -210.7569027 -0.461273E-06  0.104E-03    0.98       8.7  T
   8   -210.7569028 -0.921988E-07  0.510E-04    0.98      17.8  T
   9   -210.7569028 -0.161713E-07  0.237E-04    0.98      38.1  T
     SCC iter.                  ...        0 min,  0.169 sec
     gradient                   ...        0 min,  0.196 sec
 * total energy  :  -207.4375053 Eh     change       -0.3737088E-02 Eh
   gradient norm :     0.0192241 Eh/α   predicted    -0.3744910E-02 (   0.21%)
   displ. norm   :     0.5324076 α      lambda       -0.2789824E-02
   maximum displ.:     0.1661254 α      in ANC's #19, #47, #32, ...

........................................................................
.............................. CYCLE    8 ..............................
........................................................................
   1   -210.7588680 -0.210759E+03  0.152E-01    0.96       0.0  T
   2   -210.7588918 -0.237805E-04  0.888E-02    0.97       1.0  T
   3   -210.7581398  0.751962E-03  0.703E-02    0.95       1.0  T
   4   -210.7590025 -0.862727E-03  0.974E-03    0.97       1.0  T
   5   -210.7590080 -0.548338E-05  0.508E-03    0.97       1.8  T
   6   -210.7590096 -0.161039E-05  0.216E-03    0.97       4.2  T
   7   -210.7590099 -0.276833E-06  0.101E-03    0.97       9.0  T
   8   -210.7590100 -0.691723E-07  0.485E-04    0.97      18.7  T
   9   -210.7590100 -0.172355E-07  0.234E-04    0.97      38.7  T
     SCC iter.                  ...        0 min,  0.164 sec
     gradient                   ...        0 min,  0.195 sec
 * total energy  :  -207.4394107 Eh     change       -0.1905412E-02 Eh
   gradient norm :     0.0197416 Eh/α   predicted    -0.1790310E-02 (  -6.04%)
   displ. norm   :     0.6566569 α      lambda       -0.3271292E-02
   maximum displ.:     0.2013554 α      in ANC's #19, #31, #24, ...

........................................................................
.............................. CYCLE    9 ..............................
........................................................................
   1   -210.7671026 -0.210767E+03  0.196E-01    0.95       0.0  T
   2   -210.7671519 -0.493421E-04  0.113E-01    0.96       1.0  T
   3   -210.7660503  0.110157E-02  0.833E-02    0.95       1.0  T
   4   -210.7672923 -0.124194E-02  0.114E-02    0.96       1.0  T
   5   -210.7672999 -0.763474E-05  0.636E-03    0.96       1.4  T
   6   -210.7673029 -0.296010E-05  0.259E-03    0.96       3.5  T
   7   -210.7673032 -0.340174E-06  0.131E-03    0.96       6.9  T
   8   -210.7673033 -0.115595E-06  0.616E-04    0.96      14.7  T
   9   -210.7673033 -0.280429E-07  0.293E-04    0.96      30.9  T
     SCC iter.                  ...        0 min,  0.201 sec
     gradient                   ...        0 min,  0.207 sec
 * total energy  :  -207.4408048 Eh     change       -0.1394129E-02 Eh
   gradient norm :     0.0233194 Eh/α   predicted    -0.2340936E-02 (  67.91%)
   displ. norm   :     0.4309300 α      lambda       -0.2417957E-02
   maximum displ.:     0.1607642 α      in ANC's #19, #15, #32, ...

........................................................................
.............................. CYCLE   10 ..............................
........................................................................
   1   -210.7752593 -0.210775E+03  0.124E-01    0.96       0.0  T
   2   -210.7752811 -0.218000E-04  0.699E-02    0.96       1.0  T
   3   -210.7749697  0.311403E-03  0.439E-02    0.96       1.0  T
   4   -210.7753172 -0.347474E-03  0.622E-03    0.96       1.5  T
   5   -210.7753198 -0.267614E-05  0.357E-03    0.96       2.5  T
   6   -210.7753208 -0.933614E-06  0.147E-03    0.96       6.1  T
   7   -210.7753209 -0.116952E-06  0.723E-04    0.96      12.5  T
   8   -210.7753209 -0.319298E-07  0.307E-04    0.96      29.5  T
     SCC iter.                  ...        0 min,  0.153 sec
     gradient                   ...        0 min,  0.194 sec
 * total energy  :  -207.4423640 Eh     change       -0.1559185E-02 Eh
   gradient norm :     0.0152718 Eh/α   predicted    -0.1433490E-02 (  -8.06%)
   displ. norm   :     0.5349976 α      lambda       -0.1554989E-02
   maximum displ.:     0.1875437 α      in ANC's #19, #15, #24, ...

........................................................................
.............................. CYCLE   11 ..............................
........................................................................
   1   -210.7678155 -0.210768E+03  0.142E-01    0.96       0.0  T
   2   -210.7678523 -0.368319E-04  0.807E-02    0.96       1.0  T
   3   -210.7674651  0.387188E-03  0.492E-02    0.95       1.0  T
   4   -210.7678964 -0.431314E-03  0.689E-03    0.96       1.3  T
   5   -210.7678992 -0.281415E-05  0.379E-03    0.96       2.4  T
   6   -210.7679001 -0.889677E-06  0.167E-03    0.96       5.4  T
   7   -210.7679003 -0.138513E-06  0.772E-04    0.96      11.7  T
   8   -210.7679003 -0.420578E-07  0.332E-04    0.96      27.3  T
     SCC iter.                  ...        0 min,  0.146 sec
     gradient                   ...        0 min,  0.193 sec
 * total energy  :  -207.4431408 Eh     change       -0.7767511E-03 Eh
   gradient norm :     0.0257693 Eh/α   predicted    -0.1000033E-02 (  28.75%)
   displ. norm   :     0.5260237 α      lambda       -0.1692164E-02
   maximum displ.:     0.1851320 α      in ANC's #19, #15, #6, ...

........................................................................
.............................. CYCLE   12 ..............................
........................................................................
   1   -210.7604795 -0.210760E+03  0.151E-01    0.95       0.0  T
   2   -210.7605239 -0.443738E-04  0.851E-02    0.96       1.0  T
   3   -210.7602637  0.260229E-03  0.411E-02    0.95       1.0  T
   4   -210.7605564 -0.292717E-03  0.637E-03    0.96       1.4  T
   5   -210.7605584 -0.202140E-05  0.389E-03    0.96       2.3  T
   6   -210.7605596 -0.123133E-05  0.145E-03    0.96       6.2  T
   7   -210.7605597 -0.728637E-07  0.688E-04    0.96      13.2  T
   8   -210.7605598 -0.378396E-07  0.294E-04    0.96      30.8  T
     SCC iter.                  ...        0 min,  0.149 sec
     gradient                   ...        0 min,  0.194 sec
 * total energy  :  -207.4439476 Eh     change       -0.8068356E-03 Eh
   gradient norm :     0.0257623 Eh/α   predicted    -0.1080202E-02 (  33.88%)
   displ. norm   :     0.3998590 α      lambda       -0.1525402E-02
   maximum displ.:     0.1385666 α      in ANC's #6, #15, #19, ...

........................................................................
.............................. CYCLE   13 ..............................
........................................................................
   1   -210.7767579 -0.210777E+03  0.712E-02    0.96       0.0  T
   2   -210.7767663 -0.845435E-05  0.410E-02    0.96       1.0  T
   3   -210.7766947  0.715931E-04  0.233E-02    0.96       1.0  T
   4   -210.7767742 -0.795164E-04  0.370E-03    0.96       2.4  T
   5   -210.7767753 -0.106916E-05  0.211E-03    0.96       4.3  T
   6   -210.7767757 -0.413079E-06  0.103E-03    0.96       8.8  T
   7   -210.7767758 -0.115478E-06  0.440E-04    0.96      20.6  T
   8   -210.7767759 -0.142248E-07  0.173E-04    0.96      52.2  T
     SCC iter.                  ...        0 min,  0.147 sec
     gradient                   ...        0 min,  0.194 sec
 * total energy  :  -207.4448936 Eh     change       -0.9459834E-03 Eh
   gradient norm :     0.0168085 Eh/α   predicted    -0.8846422E-03 (  -6.48%)
   displ. norm   :     0.5686065 α      lambda       -0.1139649E-02
   maximum displ.:     0.2115388 α      in ANC's #6, #15, #19, ...

........................................................................
.............................. CYCLE   14 ..............................
........................................................................
   1   -210.7733743 -0.210773E+03  0.908E-02    0.95       0.0  T
   2   -210.7733863 -0.119912E-04  0.520E-02    0.95       1.0  T
   3   -210.7732934  0.928980E-04  0.240E-02    0.95       1.0  T
   4   -210.7733950 -0.101642E-03  0.514E-03    0.95       1.8  T
   5   -210.7733973 -0.228462E-05  0.244E-03    0.95       3.7  T
   6   -210.7733975 -0.238186E-06  0.113E-03    0.95       8.0  T
   7   -210.7733977 -0.111909E-06  0.443E-04    0.95      20.4  T
   8   -210.7733977 -0.135354E-07  0.208E-04    0.95      43.5  T
     SCC iter.                  ...        0 min,  0.146 sec
     gradient                   ...        0 min,  0.193 sec
 * total energy  :  -207.4458448 Eh     change       -0.9512058E-03 Eh
   gradient norm :     0.0113516 Eh/α   predicted    -0.7540603E-03 ( -20.73%)
   displ. norm   :     0.7133988 α      lambda       -0.1339138E-02
   maximum displ.:     0.2850295 α      in ANC's #6, #15, #5, ...

........................................................................
.............................. CYCLE   15 ..............................
........................................................................
   1   -210.7691254 -0.210769E+03  0.106E-01    0.95       0.0  T
   2   -210.7691394 -0.140237E-04  0.603E-02    0.95       1.0  T
   3   -210.7691156  0.238712E-04  0.150E-02    0.95       1.0  T
   4   -210.7691453 -0.297848E-04  0.423E-03    0.95       2.1  T
   5   -210.7691460 -0.652572E-06  0.231E-03    0.95       3.9  T
   6   -210.7691464 -0.411283E-06  0.739E-04    0.95      12.3  T
   7   -210.7691464 -0.357234E-07  0.371E-04    0.95      24.4  T
     SCC iter.                  ...        0 min,  0.128 sec
     gradient                   ...        0 min,  0.193 sec
 * total energy  :  -207.4469834 Eh     change       -0.1138635E-02 Eh
   gradient norm :     0.0111924 Eh/α   predicted    -0.1010346E-02 ( -11.27%)
   displ. norm   :     0.7582862 α      lambda       -0.1288660E-02
   maximum displ.:     0.3165644 α      in ANC's #6, #15, #5, ...

........................................................................
.............................. CYCLE   16 ..............................
........................................................................
   1   -210.7635286 -0.210764E+03  0.104E-01    0.94       0.0  T
   2   -210.7635406 -0.120185E-04  0.596E-02    0.94       1.0  T
   3   -210.7635077  0.329078E-04  0.162E-02    0.94       1.0  T
   4   -210.7635447 -0.369820E-04  0.497E-03    0.95       1.8  T
   5   -210.7635466 -0.187403E-05  0.264E-03    0.94       3.4  T
   6   -210.7635471 -0.517626E-06  0.104E-03    0.94       8.7  T
   7   -210.7635472 -0.119150E-06  0.394E-04    0.94      23.0  T
   8   -210.7635472 -0.907744E-08  0.216E-04    0.94      41.9  T
     SCC iter.                  ...        0 min,  0.149 sec
     gradient                   ...        0 min,  0.201 sec
 * total energy  :  -207.4480714 Eh     change       -0.1087976E-02 Eh
   gradient norm :     0.0109666 Eh/α   predicted    -0.1014823E-02 (  -6.72%)
   displ. norm   :     0.7682894 α      lambda       -0.1222819E-02
   maximum displ.:     0.3265408 α      in ANC's #6, #15, #5, ...

........................................................................
.............................. CYCLE   17 ..............................
........................................................................
   1   -210.7618875 -0.210762E+03  0.104E-01    0.95       0.0  T
   2   -210.7618999 -0.124035E-04  0.598E-02    0.95       1.0  T
   3   -210.7618661  0.337810E-04  0.171E-02    0.95       1.0  T
   4   -210.7619060 -0.398399E-04  0.409E-03    0.95       2.2  T
   5   -210.7619068 -0.797831E-06  0.232E-03    0.95       3.9  T
   6   -210.7619071 -0.328071E-06  0.899E-04    0.95      10.1  T
   7   -210.7619072 -0.776667E-07  0.387E-04    0.95      23.4  T
     SCC iter.                  ...        0 min,  0.136 sec
     gradient                   ...        0 min,  0.203 sec
 * total energy  :  -207.4491093 Eh     change       -0.1037881E-02 Eh
   gradient norm :     0.0140735 Eh/α   predicted    -0.9723410E-03 (  -6.31%)
   displ. norm   :     0.7727511 α      lambda       -0.1259884E-02
   maximum displ.:     0.3412774 α      in ANC's #6, #5, #15, ...

........................................................................
.............................. CYCLE   18 ..............................
........................................................................
   1   -210.7652149 -0.210765E+03  0.973E-02    0.95       0.0  T
   2   -210.7652269 -0.120432E-04  0.560E-02    0.95       1.0  T
   3   -210.7651195  0.107406E-03  0.268E-02    0.95       1.0  T
   4   -210.7652347 -0.115171E-03  0.616E-03    0.95       1.5  T
   5   -210.7652394 -0.469883E-05  0.258E-03    0.95       3.5  T
   6   -210.7652398 -0.424039E-06  0.124E-03    0.95       7.3  T
   7   -210.7652399 -0.107326E-06  0.557E-04    0.95      16.3  T
   8   -210.7652399 -0.227204E-07  0.253E-04    0.95      35.7  T
     SCC iter.                  ...        0 min,  0.160 sec
     gradient                   ...        0 min,  0.201 sec
 * total energy  :  -207.4501740 Eh     change       -0.1064683E-02 Eh
   gradient norm :     0.0107435 Eh/α   predicted    -0.1006110E-02 (  -5.50%)
   displ. norm   :     0.7743859 α      lambda       -0.1329396E-02
   maximum displ.:     0.3510732 α      in ANC's #6, #5, #2, ...

........................................................................
.............................. CYCLE   19 ..............................
........................................................................
   1   -210.7678881 -0.210768E+03  0.115E-01    0.95       0.0  T
   2   -210.7679098 -0.217565E-04  0.647E-02    0.95       1.0  T
   3   -210.7677813  0.128565E-03  0.301E-02    0.95       1.0  T
   4   -210.7679193 -0.138032E-03  0.785E-03    0.95       1.2  T
   5   -210.7679271 -0.779573E-05  0.306E-03    0.95       3.0  T
   6   -210.7679276 -0.488561E-06  0.143E-03    0.95       6.3  T
   7   -210.7679277 -0.127401E-06  0.569E-04    0.95      15.9  T
   8   -210.7679277 -0.131270E-07  0.310E-04    0.95      29.2  T
     SCC iter.                  ...        0 min,  0.166 sec
     gradient                   ...        0 min,  0.202 sec
 * total energy  :  -207.4512714 Eh     change       -0.1097457E-02 Eh
   gradient norm :     0.0142177 Eh/α   predicted    -0.1063302E-02 (  -3.11%)
   displ. norm   :     0.7946101 α      lambda       -0.1271835E-02
   maximum displ.:     0.3645029 α      in ANC's #6, #5, #2, ...

........................................................................
.............................. CYCLE   20 ..............................
........................................................................
   1   -210.7722875 -0.210772E+03  0.106E-01    0.95       0.0  T
   2   -210.7723059 -0.183660E-04  0.602E-02    0.95       1.0  T
   3   -210.7722455  0.603748E-04  0.224E-02    0.95       1.0  T
   4   -210.7723083 -0.628259E-04  0.757E-03    0.95       1.2  T
   5   -210.7723158 -0.752438E-05  0.270E-03    0.95       3.4  T
   6   -210.7723162 -0.398255E-06  0.126E-03    0.95       7.2  T
   7   -210.7723164 -0.122352E-06  0.555E-04    0.95      16.3  T
   8   -210.7723164 -0.164239E-07  0.276E-04    0.95      32.8  T
     SCC iter.                  ...        0 min,  0.154 sec
     gradient                   ...        0 min,  0.199 sec
 * total energy  :  -207.4523999 Eh     change       -0.1128526E-02 Eh
   gradient norm :     0.0126953 Eh/α   predicted    -0.1037443E-02 (  -8.07%)
   displ. norm   :     0.8014351 α      lambda       -0.1379678E-02
   maximum displ.:     0.3787242 α      in ANC's #6, #5, #12, ...
 * RMSD in coord.:     0.8329518 α      energy gain  -0.1027622E+00 Eh

generating ANC from model Hessian ...
Using Lindh-Hessian (1995)
 Shifting diagonal of input Hessian by   1.001243298243428E-002
 Lowest  eigenvalues of input Hessian
    0.010000    0.000000    0.000000    0.000000    0.000000    0.000000
    0.000000    0.010020    0.010027    0.010038    0.010063    0.010138
    0.010182    0.010231    0.010277    0.010312    0.010463    0.010558
 Highest eigenvalues
    2.263167    2.271373    2.605186    2.608079    2.647194    2.648495
 

........................................................................
.............................. CYCLE   21 ..............................
........................................................................
   1   -210.7796100 -0.210780E+03  0.113E-01    0.96       0.0  T
   2   -210.7796370 -0.270556E-04  0.640E-02    0.96       1.0  T
   3   -210.7795628  0.742382E-04  0.261E-02    0.96       1.0  T
   4   -210.7796433 -0.805034E-04  0.785E-03    0.96       1.2  T
   5   -210.7796522 -0.894417E-05  0.276E-03    0.96       3.3  T
   6   -210.7796526 -0.424734E-06  0.161E-03    0.96       5.6  T
   7   -210.7796529 -0.233661E-06  0.642E-04    0.96      14.1  T
   8   -210.7796529 -0.262654E-07  0.300E-04    0.96      30.2  T
     SCC iter.                  ...        0 min,  0.156 sec
     gradient                   ...        0 min,  0.193 sec
 * total energy  :  -207.4535393 Eh     change       -0.1139344E-02 Eh
   gradient norm :     0.0145142 Eh/α   predicted     0.0000000E+00 (-100.00%)
   displ. norm   :     0.1503338 α      lambda       -0.5532921E-03
   maximum displ.:     0.0697728 α      in ANC's #5, #6, #12, ...

........................................................................
.............................. CYCLE   22 ..............................
........................................................................
   1   -210.7784999 -0.210778E+03  0.345E-02    0.96       0.0  T
   2   -210.7785035 -0.358394E-05  0.208E-02    0.96       1.0  T
   3   -210.7784739  0.296294E-04  0.151E-02    0.96       1.0  T
   4   -210.7785088 -0.349059E-04  0.321E-03    0.96       2.8  T
   5   -210.7785102 -0.137443E-05  0.131E-03    0.96       6.9  T
   6   -210.7785103 -0.152155E-06  0.667E-04    0.96      13.6  T
   7   -210.7785103 -0.285232E-07  0.280E-04    0.96      32.3  T
     SCC iter.                  ...        0 min,  0.138 sec
     gradient                   ...        0 min,  0.194 sec
 * total energy  :  -207.4539626 Eh     change       -0.4232816E-03 Eh
   gradient norm :     0.0058712 Eh/α   predicted    -0.2829085E-03 ( -33.16%)
   displ. norm   :     0.3920991 α      lambda       -0.8555631E-03
   maximum displ.:     0.1892734 α      in ANC's #5, #6, #11, ...

........................................................................
.............................. CYCLE   23 ..............................
........................................................................
   1   -210.7753680 -0.210775E+03  0.926E-02    0.95       0.0  T
   2   -210.7753811 -0.131424E-04  0.540E-02    0.95       1.0  T
   3   -210.7751708  0.210317E-03  0.375E-02    0.96       1.0  T
   4   -210.7754083 -0.237494E-03  0.607E-03    0.95       1.5  T
   5   -210.7754129 -0.458502E-05  0.262E-03    0.95       3.5  T
   6   -210.7754133 -0.437471E-06  0.139E-03    0.95       6.5  T
   7   -210.7754134 -0.118173E-06  0.568E-04    0.95      16.0  T
   8   -210.7754134 -0.259565E-07  0.267E-04    0.95      33.9  T
     SCC iter.                  ...        0 min,  0.150 sec
     gradient                   ...        0 min,  0.193 sec
 * total energy  :  -207.4544145 Eh     change       -0.4518867E-03 Eh
   gradient norm :     0.0124019 Eh/α   predicted    -0.4936700E-03 (   9.25%)
   displ. norm   :     0.4894751 α      lambda       -0.1016209E-02
   maximum displ.:     0.2158710 α      in ANC's #5, #12, #6, ...

........................................................................
.............................. CYCLE   24 ..............................
........................................................................
   1   -210.7722897 -0.210772E+03  0.114E-01    0.95       0.0  T
   2   -210.7723051 -0.154166E-04  0.654E-02    0.95       1.0  T
   3   -210.7720853  0.219795E-03  0.370E-02    0.95       1.0  T
   4   -210.7723290 -0.243711E-03  0.589E-03    0.95       1.5  T
   5   -210.7723327 -0.366079E-05  0.275E-03    0.95       3.3  T
   6   -210.7723330 -0.308262E-06  0.142E-03    0.95       6.4  T
   7   -210.7723332 -0.143075E-06  0.519E-04    0.95      17.4  T
   8   -210.7723332 -0.204895E-07  0.261E-04    0.95      34.6  T
     SCC iter.                  ...        0 min,  0.151 sec
     gradient                   ...        0 min,  0.192 sec
 * total energy  :  -207.4549033 Eh     change       -0.4888536E-03 Eh
   gradient norm :     0.0197848 Eh/α   predicted    -0.6298396E-03 (  28.84%)
   displ. norm   :     0.4592443 α      lambda       -0.1191123E-02
   maximum displ.:     0.2248281 α      in ANC's #5, #11, #6, ...

........................................................................
.............................. CYCLE   25 ..............................
........................................................................
   1   -210.7721467 -0.210772E+03  0.118E-01    0.95       0.0  T
   2   -210.7721696 -0.228373E-04  0.667E-02    0.95       1.0  T
   3   -210.7720460  0.123528E-03  0.290E-02    0.95       1.0  T
   4   -210.7721865 -0.140442E-03  0.522E-03    0.95       1.7  T
   5   -210.7721894 -0.293176E-05  0.269E-03    0.95       3.4  T
   6   -210.7721898 -0.368255E-06  0.120E-03    0.95       7.5  T
   7   -210.7721899 -0.115439E-06  0.409E-04    0.95      22.1  T
   8   -210.7721899 -0.608395E-08  0.232E-04    0.95      39.0  T
     SCC iter.                  ...        0 min,  0.154 sec
     gradient                   ...        0 min,  0.193 sec
 * total energy  :  -207.4555365 Eh     change       -0.6332093E-03 Eh
   gradient norm :     0.0190799 Eh/α   predicted    -0.7211688E-03 (  13.89%)
   displ. norm   :     0.4206146 α      lambda       -0.1341156E-02
   maximum displ.:     0.2035521 α      in ANC's #5, #11, #6, ...

........................................................................
.............................. CYCLE   26 ..............................
........................................................................
   1   -210.7762465 -0.210776E+03  0.957E-02    0.95       0.0  T
   2   -210.7762608 -0.142528E-04  0.542E-02    0.95       1.0  T
   3   -210.7761790  0.817636E-04  0.235E-02    0.95       1.0  T
   4   -210.7762710 -0.919672E-04  0.463E-03    0.95       2.0  T
   5   -210.7762736 -0.258241E-05  0.226E-03    0.95       4.0  T
   6   -210.7762739 -0.284602E-06  0.108E-03    0.95       8.4  T
   7   -210.7762739 -0.843285E-07  0.394E-04    0.95      23.0  T
   8   -210.7762740 -0.831002E-08  0.204E-04    0.95      44.3  T
     SCC iter.                  ...        0 min,  0.152 sec
     gradient                   ...        0 min,  0.192 sec
 * total energy  :  -207.4564877 Eh     change       -0.9511433E-03 Eh
   gradient norm :     0.0153845 Eh/α   predicted    -0.7892146E-03 ( -17.02%)
   displ. norm   :     0.5855332 α      lambda       -0.2075685E-02
   maximum displ.:     0.2765399 α      in ANC's #5, #11, #6, ...

........................................................................
.............................. CYCLE   27 ..............................
........................................................................
   1   -210.7861861 -0.210786E+03  0.192E-01    0.96       0.0  T
   2   -210.7862556 -0.695183E-04  0.108E-01    0.96       1.0  T
   3   -210.7860924  0.163243E-03  0.349E-02    0.96       1.0  T
   4   -210.7862861 -0.193725E-03  0.767E-03    0.96       1.2  T
   5   -210.7862928 -0.672984E-05  0.396E-03    0.96       2.3  T
   6   -210.7862940 -0.121799E-05  0.172E-03    0.96       5.3  T
   7   -210.7862942 -0.199630E-06  0.724E-04    0.96      12.5  T
   8   -210.7862943 -0.427054E-07  0.305E-04    0.96      29.6  T
     SCC iter.                  ...        0 min,  0.151 sec
     gradient                   ...        0 min,  0.192 sec
 * total energy  :  -207.4565855 Eh     change       -0.9787833E-04 Eh
   gradient norm :     0.0261346 Eh/α   predicted    -0.1393666E-02 (1323.88%)
   displ. norm   :     0.4085454 α      lambda       -0.2094264E-02
   maximum displ.:     0.1826734 α      in ANC's #5, #12, #6, ...

........................................................................
.............................. CYCLE   28 ..............................
........................................................................
   1   -210.7782863 -0.210778E+03  0.129E-01    0.96       0.0  T
   2   -210.7783147 -0.283626E-04  0.723E-02    0.96       1.0  T
   3   -210.7782441  0.705056E-04  0.222E-02    0.96       1.0  T
   4   -210.7783290 -0.848644E-04  0.467E-03    0.96       1.9  T
   5   -210.7783308 -0.179456E-05  0.263E-03    0.96       3.4  T
   6   -210.7783313 -0.481297E-06  0.110E-03    0.96       8.2  T
   7   -210.7783314 -0.100634E-06  0.405E-04    0.96      22.4  T
   8   -210.7783314 -0.114433E-07  0.192E-04    0.96      47.2  T
     SCC iter.                  ...        0 min,  0.149 sec
     gradient                   ...        0 min,  0.190 sec
 * total energy  :  -207.4579404 Eh     change       -0.1354815E-02 Eh
   gradient norm :     0.0144661 Eh/α   predicted    -0.1221915E-02 (  -9.81%)
   displ. norm   :     0.5829702 α      lambda       -0.1022192E-02
   maximum displ.:     0.2987384 α      in ANC's #5, #11, #6, ...

........................................................................
.............................. CYCLE   29 ..............................
........................................................................
   1   -210.7728548 -0.210773E+03  0.984E-02    0.96       0.0  T
   2   -210.7728691 -0.143036E-04  0.567E-02    0.95       1.0  T
   3   -210.7727087  0.160425E-03  0.309E-02    0.96       1.0  T
   4   -210.7728857 -0.177009E-03  0.425E-03    0.95       2.1  T
   5   -210.7728869 -0.119916E-05  0.257E-03    0.96       3.5  T
   6   -210.7728874 -0.531071E-06  0.117E-03    0.96       7.7  T
   7   -210.7728875 -0.794074E-07  0.483E-04    0.96      18.7  T
   8   -210.7728875 -0.198197E-07  0.193E-04    0.96      46.8  T
     SCC iter.                  ...        0 min,  0.146 sec
     gradient                   ...        0 min,  0.192 sec
 * total energy  :  -207.4586543 Eh     change       -0.7139405E-03 Eh
   gradient norm :     0.0157335 Eh/α   predicted    -0.6847946E-03 (  -4.08%)
   displ. norm   :     0.6488021 α      lambda       -0.1070132E-02
   maximum displ.:     0.3416124 α      in ANC's #5, #6, #11, ...

........................................................................
.............................. CYCLE   30 ..............................
........................................................................
   1   -210.7743725 -0.210774E+03  0.995E-02    0.95       0.0  T
   2   -210.7743834 -0.108615E-04  0.575E-02    0.95       1.0  T
   3   -210.7742325  0.150908E-03  0.304E-02    0.96       1.0  T
   4   -210.7743978 -0.165295E-03  0.425E-03    0.95       2.1  T
   5   -210.7743991 -0.134156E-05  0.255E-03    0.95       3.6  T
   6   -210.7743997 -0.544169E-06  0.113E-03    0.95       8.0  T
   7   -210.7743997 -0.665517E-07  0.453E-04    0.95      20.0  T
   8   -210.7743997 -0.156141E-07  0.209E-04    0.95      43.3  T
     SCC iter.                  ...        0 min,  0.145 sec
     gradient                   ...        0 min,  0.191 sec
 * total energy  :  -207.4594683 Eh     change       -0.8139928E-03 Eh
   gradient norm :     0.0116504 Eh/α   predicted    -0.7603001E-03 (  -6.60%)
   displ. norm   :     0.6947877 α      lambda       -0.1063712E-02
   maximum displ.:     0.3715756 α      in ANC's #5, #6, #11, ...

........................................................................
.............................. CYCLE   31 ..............................
........................................................................
   1   -210.7793086 -0.210779E+03  0.857E-02    0.96       0.0  T
   2   -210.7793190 -0.103930E-04  0.506E-02    0.95       1.0  T
   3   -210.7791990  0.119985E-03  0.270E-02    0.96       1.0  T
   4   -210.7793276 -0.128608E-03  0.571E-03    0.95       1.6  T
   5   -210.7793316 -0.397061E-05  0.208E-03    0.95       4.4  T
   6   -210.7793318 -0.168059E-06  0.107E-03    0.95       8.5  T
   7   -210.7793318 -0.710041E-07  0.422E-04    0.95      21.4  T
   8   -210.7793318 -0.947853E-08  0.230E-04    0.95      39.4  T
     SCC iter.                  ...        0 min,  0.145 sec
     gradient                   ...        0 min,  0.191 sec
 * total energy  :  -207.4602907 Eh     change       -0.8224001E-03 Eh
   gradient norm :     0.0118075 Eh/α   predicted    -0.7885942E-03 (  -4.11%)
   displ. norm   :     0.6331582 α      lambda       -0.1031049E-02
   maximum displ.:     0.3575019 α      in ANC's #5, #6, #12, ...

........................................................................
.............................. CYCLE   32 ..............................
........................................................................
   1   -210.7951203 -0.210795E+03  0.824E-02    0.96       0.0  T
   2   -210.7951527 -0.323981E-04  0.507E-02    0.95       1.0  T
   3   -210.7949872  0.165433E-03  0.376E-02    0.96       1.0  T
   4   -210.7951893 -0.202105E-03  0.845E-03    0.95       1.1  T
   5   -210.7951988 -0.944428E-05  0.326E-03    0.96       2.8  T
   6   -210.7952001 -0.128492E-05  0.157E-03    0.96       5.8  T
   7   -210.7952003 -0.224168E-06  0.575E-04    0.96      15.8  T
   8   -210.7952003 -0.184429E-07  0.265E-04    0.96      34.1  T
     SCC iter.                  ...        0 min,  0.147 sec
     gradient                   ...        0 min,  0.190 sec
 * total energy  :  -207.4608484 Eh     change       -0.5576675E-03 Eh
   gradient norm :     0.0218099 Eh/α   predicted    -0.7221995E-03 (  29.50%)
   displ. norm   :     0.6645314 α      lambda       -0.1050381E-02
   maximum displ.:     0.3601166 α      in ANC's #5, #6, #12, ...

........................................................................
.............................. CYCLE   33 ..............................
........................................................................
   1   -210.7801585 -0.210780E+03  0.976E-02    0.95       0.0  T
   2   -210.7801880 -0.295178E-04  0.567E-02    0.95       1.0  T
   3   -210.7801336  0.543668E-04  0.226E-02    0.95       1.0  T
   4   -210.7801942 -0.605703E-04  0.665E-03    0.95       1.4  T
   5   -210.7802000 -0.582974E-05  0.250E-03    0.95       3.6  T
   6   -210.7802005 -0.442662E-06  0.147E-03    0.95       6.2  T
   7   -210.7802006 -0.186488E-06  0.507E-04    0.95      17.9  T
   8   -210.7802007 -0.188489E-07  0.234E-04    0.95      38.8  T
     SCC iter.                  ...        0 min,  0.145 sec
     gradient                   ...        0 min,  0.190 sec
 * total energy  :  -207.4616114 Eh     change       -0.7630558E-03 Eh
   gradient norm :     0.0100555 Eh/α   predicted    -0.7571172E-03 (  -0.78%)
   displ. norm   :     0.6412039 α      lambda       -0.6765543E-03
   maximum displ.:     0.3669264 α      in ANC's #5, #6, #12, ...

........................................................................
.............................. CYCLE   34 ..............................
........................................................................
   1   -210.7789163 -0.210779E+03  0.714E-02    0.95       0.0  T
   2   -210.7789219 -0.557798E-05  0.416E-02    0.95       1.0  T
   3   -210.7788999  0.220625E-04  0.136E-02    0.95       1.0  T
   4   -210.7789244 -0.245110E-04  0.310E-03    0.95       2.9  T
   5   -210.7789253 -0.891132E-06  0.141E-03    0.95       6.4  T
   6   -210.7789254 -0.103815E-06  0.679E-04    0.95      13.3  T
   7   -210.7789254 -0.454934E-07  0.253E-04    0.95      35.9  T
     SCC iter.                  ...        0 min,  0.129 sec
     gradient                   ...        0 min,  0.190 sec
 * total energy  :  -207.4621808 Eh     change       -0.5693637E-03 Eh
   gradient norm :     0.0079118 Eh/α   predicted    -0.4773602E-03 ( -16.16%)
   displ. norm   :     0.6478579 α      lambda       -0.7190218E-03
   maximum displ.:     0.3914913 α      in ANC's #5, #6, #7, ...

........................................................................
.............................. CYCLE   35 ..............................
........................................................................
   1   -210.7832820 -0.210783E+03  0.733E-02    0.95       0.0  T
   2   -210.7832856 -0.357791E-05  0.423E-02    0.95       1.0  T
   3   -210.7832553  0.302971E-04  0.142E-02    0.95       1.0  T
   4   -210.7832880 -0.327122E-04  0.320E-03    0.95       2.8  T
   5   -210.7832887 -0.716289E-06  0.196E-03    0.95       4.6  T
   6   -210.7832891 -0.394816E-06  0.626E-04    0.95      14.5  T
   7   -210.7832891 -0.352314E-07  0.288E-04    0.95      31.4  T
     SCC iter.                  ...        0 min,  0.128 sec
     gradient                   ...        0 min,  0.189 sec
 * total energy  :  -207.4627872 Eh     change       -0.6064037E-03 Eh
   gradient norm :     0.0063788 Eh/α   predicted    -0.5104067E-03 ( -15.83%)
   displ. norm   :     0.7123142 α      lambda       -0.6538400E-03
   maximum displ.:     0.4352013 α      in ANC's #5, #6, #7, ...

........................................................................
.............................. CYCLE   36 ..............................
........................................................................
   1   -210.7837609 -0.210784E+03  0.772E-02    0.95       0.0  T
   2   -210.7837652 -0.424957E-05  0.448E-02    0.95       1.0  T
   3   -210.7837337  0.314915E-04  0.146E-02    0.95       1.0  T
   4   -210.7837675 -0.338399E-04  0.322E-03    0.95       2.8  T
   5   -210.7837682 -0.655062E-06  0.190E-03    0.95       4.8  T
   6   -210.7837685 -0.374969E-06  0.786E-04    0.95      11.5  T
   7   -210.7837686 -0.678843E-07  0.306E-04    0.95      29.6  T
     SCC iter.                  ...        0 min,  0.132 sec
     gradient                   ...        0 min,  0.193 sec
 * total energy  :  -207.4633466 Eh     change       -0.5594113E-03 Eh
   gradient norm :     0.0077590 Eh/α   predicted    -0.4928098E-03 ( -11.91%)
   displ. norm   :     0.6785927 α      lambda       -0.5888534E-03
   maximum displ.:     0.4291184 α      in ANC's #5, #6, #7, ...

........................................................................
.............................. CYCLE   37 ..............................
........................................................................
   1   -210.7867588 -0.210787E+03  0.729E-02    0.95       0.0  T
   2   -210.7867636 -0.485284E-05  0.420E-02    0.95       1.0  T
   3   -210.7867513  0.123686E-04  0.103E-02    0.95       1.0  T
   4   -210.7867650 -0.137548E-04  0.329E-03    0.95       2.8  T
   5   -210.7867657 -0.684027E-06  0.181E-03    0.95       5.0  T
   6   -210.7867660 -0.261218E-06  0.725E-04    0.95      12.5  T
   7   -210.7867660 -0.647210E-07  0.244E-04    0.95      37.1  T
     SCC iter.                  ...        0 min,  0.132 sec
     gradient                   ...        0 min,  0.192 sec
 * total energy  :  -207.4638543 Eh     change       -0.5076659E-03 Eh
   gradient norm :     0.0073377 Eh/α   predicted    -0.4300118E-03 ( -15.30%)
   displ. norm   :     0.6401644 α      lambda       -0.5140434E-03
   maximum displ.:     0.4092494 α      in ANC's #5, #6, #7, ...

........................................................................
.............................. CYCLE   38 ..............................
........................................................................
   1   -210.7842386 -0.210784E+03  0.689E-02    0.95       0.0  T
   2   -210.7842415 -0.287352E-05  0.396E-02    0.95       1.0  T
   3   -210.7842295  0.119450E-04  0.982E-03    0.95       1.0  T
   4   -210.7842429 -0.133344E-04  0.276E-03    0.95       3.3  T
   5   -210.7842430 -0.182449E-06  0.174E-03    0.95       5.2  T
   6   -210.7842434 -0.414122E-06  0.423E-04    0.95      21.4  T
   7   -210.7842435 -0.124981E-07  0.210E-04    0.95      43.1  T
     SCC iter.                  ...        0 min,  0.128 sec
     gradient                   ...        0 min,  0.190 sec
 * total energy  :  -207.4643128 Eh     change       -0.4585059E-03 Eh
   gradient norm :     0.0062177 Eh/α   predicted    -0.3623552E-03 ( -20.97%)
   displ. norm   :     0.6168711 α      lambda       -0.4893048E-03
   maximum displ.:     0.4002354 α      in ANC's #5, #6, #3, ...

........................................................................
.............................. CYCLE   39 ..............................
........................................................................
   1   -210.7861902 -0.210786E+03  0.624E-02    0.95       0.0  T
   2   -210.7861931 -0.282872E-05  0.358E-02    0.95       1.0  T
   3   -210.7861780  0.150959E-04  0.107E-02    0.95       1.0  T
   4   -210.7861947 -0.167682E-04  0.257E-03    0.95       3.5  T
   5   -210.7861949 -0.138156E-06  0.158E-03    0.95       5.7  T
   6   -210.7861952 -0.317736E-06  0.506E-04    0.95      17.9  T
   7   -210.7861952 -0.255400E-07  0.217E-04    0.95      41.7  T
     SCC iter.                  ...        0 min,  0.129 sec
     gradient                   ...        0 min,  0.191 sec
 * total energy  :  -207.4647444 Eh     change       -0.4316417E-03 Eh
   gradient norm :     0.0049032 Eh/α   predicted    -0.3377537E-03 ( -21.75%)
   displ. norm   :     0.6292066 α      lambda       -0.4661758E-03
   maximum displ.:     0.4119209 α      in ANC's #5, #3, #6, ...

........................................................................
.............................. CYCLE   40 ..............................
........................................................................
   1   -210.7836554 -0.210784E+03  0.681E-02    0.95       0.0  T
   2   -210.7836600 -0.459682E-05  0.389E-02    0.95       1.0  T
   3   -210.7836453  0.146705E-04  0.106E-02    0.95       1.0  T
   4   -210.7836621 -0.167816E-04  0.272E-03    0.95       3.3  T
   5   -210.7836624 -0.272458E-06  0.165E-03    0.95       5.5  T
   6   -210.7836627 -0.304115E-06  0.653E-04    0.95      13.9  T
   7   -210.7836627 -0.461077E-07  0.245E-04    0.95      36.9  T
     SCC iter.                  ...        0 min,  0.132 sec
     gradient                   ...        0 min,  0.192 sec
 * total energy  :  -207.4651483 Eh     change       -0.4039134E-03 Eh
   gradient norm :     0.0055981 Eh/α   predicted    -0.3253731E-03 ( -19.44%)
   displ. norm   :     0.6004108 α      lambda       -0.4313126E-03
   maximum displ.:     0.3951681 α      in ANC's #5, #3, #6, ...

........................................................................
.............................. CYCLE   41 ..............................
........................................................................
   1   -210.7846868 -0.210785E+03  0.576E-02    0.95       0.0  T
   2   -210.7846894 -0.268145E-05  0.330E-02    0.95       1.0  T
   3   -210.7846705  0.189026E-04  0.114E-02    0.95       1.0  T
   4   -210.7846915 -0.209724E-04  0.244E-03    0.95       3.7  T
   5   -210.7846917 -0.204690E-06  0.153E-03    0.95       5.9  T
   6   -210.7846920 -0.233922E-06  0.458E-04    0.95      19.8  T
   7   -210.7846920 -0.180083E-07  0.224E-04    0.95      40.4  T
     SCC iter.                  ...        0 min,  0.132 sec
     gradient                   ...        0 min,  0.197 sec
 * total energy  :  -207.4655270 Eh     change       -0.3786649E-03 Eh
   gradient norm :     0.0056515 Eh/α   predicted    -0.2934016E-03 ( -22.52%)
   displ. norm   :     0.6276492 α      lambda       -0.4307460E-03
   maximum displ.:     0.4153419 α      in ANC's #5, #3, #6, ...

........................................................................
.............................. CYCLE   42 ..............................
........................................................................
   1   -210.7854981 -0.210785E+03  0.597E-02    0.95       0.0  T
   2   -210.7855015 -0.338673E-05  0.341E-02    0.95       1.0  T
   3   -210.7854903  0.112044E-04  0.904E-03    0.95       1.0  T
   4   -210.7855034 -0.130458E-04  0.229E-03    0.95       3.9  T
   5   -210.7855035 -0.157589E-06  0.140E-03    0.95       6.5  T
   6   -210.7855037 -0.204518E-06  0.450E-04    0.95      20.1  T
   7   -210.7855038 -0.191084E-07  0.224E-04    0.95      40.3  T
     SCC iter.                  ...        0 min,  0.139 sec
     gradient                   ...        0 min,  0.197 sec
 * total energy  :  -207.4659168 Eh     change       -0.3897713E-03 Eh
   gradient norm :     0.0056789 Eh/α   predicted    -0.3002194E-03 ( -22.98%)
   displ. norm   :     0.6301794 α      lambda       -0.4486324E-03
   maximum displ.:     0.4195806 α      in ANC's #5, #3, #6, ...
 * RMSD in coord.:     1.0180193 α      energy gain  -0.1351681E-01 Eh

generating ANC from model Hessian ...
Using Lindh-Hessian (1995)
 Shifting diagonal of input Hessian by   1.003079723584380E-002
 Lowest  eigenvalues of input Hessian
    0.010000    0.000000    0.000000    0.000000    0.000000    0.000000
    0.000000    0.010037    0.010044    0.010056    0.010090    0.010176
    0.010225    0.010264    0.010302    0.010330    0.010462    0.010688
 Highest eigenvalues
    2.269851    2.274321    2.607432    2.609265    2.642167    2.648612
 

........................................................................
.............................. CYCLE   43 ..............................
........................................................................
   1   -210.7857922 -0.210786E+03  0.624E-02    0.95       0.0  T
   2   -210.7857964 -0.416946E-05  0.355E-02    0.95       1.0  T
   3   -210.7857761  0.202954E-04  0.117E-02    0.95       1.0  T
   4   -210.7857991 -0.229863E-04  0.256E-03    0.95       3.5  T
   5   -210.7857994 -0.319336E-06  0.157E-03    0.95       5.8  T
   6   -210.7857996 -0.224571E-06  0.573E-04    0.95      15.8  T
   7   -210.7857997 -0.312676E-07  0.224E-04    0.95      40.4  T
     SCC iter.                  ...        0 min,  0.137 sec
     gradient                   ...        0 min,  0.191 sec
 * total energy  :  -207.4663223 Eh     change       -0.4055496E-03 Eh
   gradient norm :     0.0063156 Eh/α   predicted     0.0000000E+00 (-100.00%)
   displ. norm   :     0.0877815 α      lambda       -0.1377418E-03
   maximum displ.:     0.0486965 α      in ANC's #5, #3, #4, ...

........................................................................
.............................. CYCLE   44 ..............................
........................................................................
   1   -210.7877147 -0.210788E+03  0.184E-02    0.95       0.0  T
   2   -210.7877155 -0.743323E-06  0.106E-02    0.95       1.0  T
   3   -210.7877131  0.235329E-05  0.445E-03    0.95       2.0  T
   4   -210.7877158 -0.264249E-05  0.102E-03    0.95       8.9  T
   5   -210.7877159 -0.107988E-06  0.486E-04    0.95      18.6  T
   6   -210.7877159 -0.169738E-07  0.225E-04    0.95      40.3  T
     SCC iter.                  ...        0 min,  0.112 sec
     gradient                   ...        0 min,  0.190 sec
 * total energy  :  -207.4664361 Eh     change       -0.1137564E-03 Eh
   gradient norm :     0.0028149 Eh/α   predicted    -0.6940197E-04 ( -38.99%)
   displ. norm   :     0.3451165 α      lambda       -0.4131072E-03
   maximum displ.:     0.1738265 α      in ANC's #5, #3, #30, ...

........................................................................
.............................. CYCLE   45 ..............................
........................................................................
   1   -210.7908294 -0.210791E+03  0.680E-02    0.95       0.0  T
   2   -210.7908365 -0.709602E-05  0.388E-02    0.95       1.0  T
   3   -210.7908258  0.107350E-04  0.977E-03    0.95       1.0  T
   4   -210.7908387 -0.128922E-04  0.291E-03    0.95       3.1  T
   5   -210.7908395 -0.750865E-06  0.156E-03    0.95       5.8  T
   6   -210.7908397 -0.211640E-06  0.642E-04    0.95      14.1  T
   7   -210.7908397 -0.369057E-07  0.290E-04    0.95      31.2  T
     SCC iter.                  ...        0 min,  0.132 sec
     gradient                   ...        0 min,  0.190 sec
 * total energy  :  -207.4665134 Eh     change       -0.7733062E-04 Eh
   gradient norm :     0.0119469 Eh/α   predicted    -0.2311557E-03 ( 198.92%)
   displ. norm   :     0.2594993 α      lambda       -0.5240291E-03
   maximum displ.:     0.1383165 α      in ANC's #5, #3, #4, ...

........................................................................
.............................. CYCLE   46 ..............................
........................................................................
   1   -210.7892369 -0.210789E+03  0.844E-02    0.95       0.0  T
   2   -210.7892496 -0.127088E-04  0.469E-02    0.95       1.0  T
   3   -210.7892450  0.456594E-05  0.831E-03    0.95       1.1  T
   4   -210.7892548 -0.977549E-05  0.230E-03    0.95       3.9  T
   5   -210.7892550 -0.137993E-06  0.128E-03    0.95       7.1  T
   6   -210.7892551 -0.161177E-06  0.487E-04    0.95      18.6  T
   7   -210.7892551 -0.252286E-07  0.190E-04    0.95      47.7  T
     SCC iter.                  ...        0 min,  0.132 sec
     gradient                   ...        0 min,  0.189 sec
 * total energy  :  -207.4667287 Eh     change       -0.2152910E-03 Eh
   gradient norm :     0.0098171 Eh/α   predicted    -0.2796602E-03 (  29.90%)
   displ. norm   :     0.1189234 α      lambda       -0.2820090E-03
   maximum displ.:     0.0582446 α      in ANC's #5, #3, #63, ...

........................................................................
.............................. CYCLE   47 ..............................
........................................................................
   1   -210.7881661 -0.210788E+03  0.556E-02    0.95       0.0  T
   2   -210.7881717 -0.562029E-05  0.310E-02    0.95       1.0  T
   3   -210.7881683  0.337544E-05  0.604E-03    0.95       1.5  T
   4   -210.7881738 -0.550555E-05  0.168E-03    0.95       5.4  T
   5   -210.7881740 -0.235180E-06  0.868E-04    0.95      10.4  T
   6   -210.7881741 -0.430088E-07  0.430E-04    0.95      21.1  T
     SCC iter.                  ...        0 min,  0.114 sec
     gradient                   ...        0 min,  0.191 sec
 * total energy  :  -207.4668384 Eh     change       -0.1096765E-03 Eh
   gradient norm :     0.0062243 Eh/α   predicted    -0.1429997E-03 (  30.38%)
   displ. norm   :     0.1617274 α      lambda       -0.2443002E-03
   maximum displ.:     0.0945326 α      in ANC's #5, #3, #4, ...

........................................................................
.............................. CYCLE   48 ..............................
........................................................................
   1   -210.7885283 -0.210789E+03  0.399E-02    0.95       0.0  T
   2   -210.7885309 -0.263248E-05  0.223E-02    0.95       1.0  T
   3   -210.7885271  0.377640E-05  0.535E-03    0.95       1.7  T
   4   -210.7885320 -0.492906E-05  0.135E-03    0.95       6.7  T
   5   -210.7885322 -0.126126E-06  0.741E-04    0.95      12.2  T
   6   -210.7885322 -0.328091E-07  0.313E-04    0.95      28.9  T
     SCC iter.                  ...        0 min,  0.115 sec
     gradient                   ...        0 min,  0.190 sec
 * total energy  :  -207.4670132 Eh     change       -0.1748150E-03 Eh
   gradient norm :     0.0039775 Eh/α   predicted    -0.1253463E-03 ( -28.30%)
   displ. norm   :     0.4367826 α      lambda       -0.4737686E-03
   maximum displ.:     0.2384600 α      in ANC's #5, #3, #4, ...

........................................................................
.............................. CYCLE   49 ..............................
........................................................................
   1   -210.7873257 -0.210787E+03  0.959E-02    0.95       0.0  T
   2   -210.7873398 -0.141195E-04  0.538E-02    0.95       1.0  T
   3   -210.7873193  0.205225E-04  0.128E-02    0.95       1.0  T
   4   -210.7873463 -0.270565E-04  0.309E-03    0.95       2.9  T
   5   -210.7873468 -0.493756E-06  0.178E-03    0.95       5.1  T
   6   -210.7873470 -0.235876E-06  0.625E-04    0.95      14.5  T
   7   -210.7873471 -0.424778E-07  0.215E-04    0.95      42.1  T
     SCC iter.                  ...        0 min,  0.131 sec
     gradient                   ...        0 min,  0.191 sec
 * total energy  :  -207.4670301 Eh     change       -0.1691942E-04 Eh
   gradient norm :     0.0091917 Eh/α   predicted    -0.2820787E-03 (1567.19%)
   displ. norm   :     0.2645911 α      lambda       -0.5473825E-03
   maximum displ.:     0.1518942 α      in ANC's #5, #3, #4, ...

........................................................................
.............................. CYCLE   50 ..............................
........................................................................
   1   -210.7859365 -0.210786E+03  0.684E-02    0.95       0.0  T
   2   -210.7859447 -0.821752E-05  0.381E-02    0.95       1.0  T
   3   -210.7859452 -0.487067E-06  0.508E-03    0.95       1.8  T
   4   -210.7859480 -0.277353E-05  0.168E-03    0.95       5.4  T
   5   -210.7859480 -0.147800E-07  0.897E-04    0.95      10.1  T
   6   -210.7859481 -0.843903E-07  0.252E-04    0.95      35.9  T
     SCC iter.                  ...        0 min,  0.116 sec
     gradient                   ...        0 min,  0.192 sec
 * total energy  :  -207.4673885 Eh     change       -0.3584225E-03 Eh
   gradient norm :     0.0057749 Eh/α   predicted    -0.2928533E-03 ( -18.29%)
   displ. norm   :     0.3698101 α      lambda       -0.2638493E-03
   maximum displ.:     0.2123608 α      in ANC's #5, #3, #4, ...

........................................................................
.............................. CYCLE   51 ..............................
........................................................................
   1   -210.7852544 -0.210785E+03  0.526E-02    0.95       0.0  T
   2   -210.7852583 -0.395265E-05  0.297E-02    0.95       1.0  T
   3   -210.7852535  0.482294E-05  0.641E-03    0.95       1.4  T
   4   -210.7852601 -0.655208E-05  0.174E-03    0.95       5.2  T
   5   -210.7852601 -0.944102E-07  0.106E-03    0.95       8.5  T
   6   -210.7852602 -0.100338E-06  0.346E-04    0.95      26.2  T
   7   -210.7852603 -0.136346E-07  0.147E-04    0.95      61.6  T
     SCC iter.                  ...        0 min,  0.131 sec
     gradient                   ...        0 min,  0.190 sec
 * total energy  :  -207.4675875 Eh     change       -0.1989747E-03 Eh
   gradient norm :     0.0051152 Eh/α   predicted    -0.1499680E-03 ( -24.63%)
   displ. norm   :     0.5148550 α      lambda       -0.3299019E-03
   maximum displ.:     0.2969718 α      in ANC's #5, #3, #4, ...

........................................................................
.............................. CYCLE   52 ..............................
........................................................................
   1   -210.7866776 -0.210787E+03  0.594E-02    0.95       0.0  T
   2   -210.7866815 -0.387572E-05  0.339E-02    0.95       1.0  T
   3   -210.7866699  0.116167E-04  0.918E-03    0.95       1.0  T
   4   -210.7866836 -0.136986E-04  0.207E-03    0.95       4.4  T
   5   -210.7866837 -0.877300E-07  0.134E-03    0.95       6.8  T
   6   -210.7866838 -0.170413E-06  0.450E-04    0.95      20.1  T
   7   -210.7866839 -0.218641E-07  0.207E-04    0.95      43.7  T
     SCC iter.                  ...        0 min,  0.132 sec
     gradient                   ...        0 min,  0.189 sec
 * total energy  :  -207.4678148 Eh     change       -0.2273259E-03 Eh
   gradient norm :     0.0070750 Eh/α   predicted    -0.2086760E-03 (  -8.20%)
   displ. norm   :     0.5270392 α      lambda       -0.3329669E-03
   maximum displ.:     0.3095360 α      in ANC's #5, #3, #4, ...

........................................................................
.............................. CYCLE   53 ..............................
........................................................................
   1   -210.7873020 -0.210787E+03  0.594E-02    0.95       0.0  T
   2   -210.7873062 -0.411596E-05  0.337E-02    0.95       1.0  T
   3   -210.7872906  0.155434E-04  0.103E-02    0.95       1.0  T
   4   -210.7873086 -0.179969E-04  0.225E-03    0.95       4.0  T
   5   -210.7873087 -0.786799E-07  0.150E-03    0.95       6.0  T
   6   -210.7873089 -0.219267E-06  0.457E-04    0.95      19.8  T
   7   -210.7873089 -0.205820E-07  0.199E-04    0.95      45.5  T
     SCC iter.                  ...        0 min,  0.135 sec
     gradient                   ...        0 min,  0.191 sec
 * total energy  :  -207.4681016 Eh     change       -0.2867881E-03 Eh
   gradient norm :     0.0037711 Eh/α   predicted    -0.2127321E-03 ( -25.82%)
   displ. norm   :     0.6637629 α      lambda       -0.3758182E-03
   maximum displ.:     0.3982299 α      in ANC's #5, #3, #4, ...

........................................................................
.............................. CYCLE   54 ..............................
........................................................................
   1   -210.7875855 -0.210788E+03  0.663E-02    0.95       0.0  T
   2   -210.7875896 -0.408456E-05  0.378E-02    0.95       1.0  T
   3   -210.7875714  0.182175E-04  0.109E-02    0.94       1.0  T
   4   -210.7875921 -0.207313E-04  0.258E-03    0.95       3.5  T
   5   -210.7875922 -0.128555E-06  0.166E-03    0.95       5.5  T
   6   -210.7875925 -0.284284E-06  0.482E-04    0.95      18.8  T
   7   -210.7875925 -0.228021E-07  0.218E-04    0.95      41.5  T
     SCC iter.                  ...        0 min,  0.132 sec
     gradient                   ...        0 min,  0.190 sec
 * total energy  :  -207.4684299 Eh     change       -0.3283334E-03 Eh
   gradient norm :     0.0048245 Eh/α   predicted    -0.2706994E-03 ( -17.55%)
   displ. norm   :     0.7336172 α      lambda       -0.3762461E-03
   maximum displ.:     0.4465944 α      in ANC's #5, #3, #4, ...

........................................................................
.............................. CYCLE   55 ..............................
........................................................................
   1   -210.7875657 -0.210788E+03  0.662E-02    0.94       0.0  T
   2   -210.7875691 -0.340933E-05  0.379E-02    0.94       1.0  T
   3   -210.7875577  0.114235E-04  0.902E-03    0.94       1.0  T
   4   -210.7875707 -0.130449E-04  0.268E-03    0.94       3.4  T
   5   -210.7875710 -0.207300E-06  0.158E-03    0.94       5.7  T
   6   -210.7875713 -0.308548E-06  0.425E-04    0.94      21.3  T
   7   -210.7875713 -0.154560E-07  0.212E-04    0.94      42.7  T
     SCC iter.                  ...        0 min,  0.135 sec
     gradient                   ...        0 min,  0.190 sec
 * total energy  :  -207.4687707 Eh     change       -0.3408067E-03 Eh
   gradient norm :     0.0044726 Eh/α   predicted    -0.2893699E-03 ( -15.09%)
   displ. norm   :     0.7228036 α      lambda       -0.3795927E-03
   maximum displ.:     0.4423829 α      in ANC's #5, #3, #4, ...

........................................................................
.............................. CYCLE   56 ..............................
........................................................................
   1   -210.7885528 -0.210789E+03  0.614E-02    0.94       0.0  T
   2   -210.7885556 -0.273012E-05  0.352E-02    0.94       1.0  T
   3   -210.7885524  0.313286E-05  0.600E-03    0.94       1.5  T
   4   -210.7885564 -0.402047E-05  0.248E-03    0.94       3.7  T
   5   -210.7885567 -0.282014E-06  0.964E-04    0.94       9.4  T
   6   -210.7885568 -0.111853E-06  0.280E-04    0.94      32.4  T
     SCC iter.                  ...        0 min,  0.113 sec
     gradient                   ...        0 min,  0.190 sec
 * total energy  :  -207.4691202 Eh     change       -0.3494318E-03 Eh
   gradient norm :     0.0036118 Eh/α   predicted    -0.2889558E-03 ( -17.31%)
   displ. norm   :     0.7152989 α      lambda       -0.3877055E-03
   maximum displ.:     0.4356367 α      in ANC's #5, #3, #4, ...

........................................................................
.............................. CYCLE   57 ..............................
........................................................................
   1   -210.7880620 -0.210788E+03  0.617E-02    0.94       0.0  T
   2   -210.7880651 -0.311239E-05  0.352E-02    0.94       1.0  T
   3   -210.7880627  0.233019E-05  0.534E-03    0.94       1.7  T
   4   -210.7880658 -0.304223E-05  0.262E-03    0.94       3.5  T
   5   -210.7880662 -0.470498E-06  0.114E-03    0.94       7.9  T
   6   -210.7880664 -0.174151E-06  0.340E-04    0.94      26.6  T
   7   -210.7880664 -0.701201E-08  0.195E-04    0.94      46.5  T
     SCC iter.                  ...        0 min,  0.129 sec
     gradient                   ...        0 min,  0.191 sec
 * total energy  :  -207.4694762 Eh     change       -0.3560314E-03 Eh
   gradient norm :     0.0040033 Eh/α   predicted    -0.2930431E-03 ( -17.69%)
   displ. norm   :     0.7432553 α      lambda       -0.4090436E-03
   maximum displ.:     0.4483701 α      in ANC's #5, #3, #2, ...

........................................................................
.............................. CYCLE   58 ..............................
........................................................................
   1   -210.7903336 -0.210790E+03  0.605E-02    0.94       0.0  T
   2   -210.7903361 -0.245174E-05  0.347E-02    0.94       1.0  T
   3   -210.7903225  0.135854E-04  0.102E-02    0.94       1.0  T
   4   -210.7903375 -0.150463E-04  0.250E-03    0.94       3.6  T
   5   -210.7903376 -0.102679E-06  0.152E-03    0.94       5.9  T
   6   -210.7903379 -0.291655E-06  0.399E-04    0.94      22.7  T
   7   -210.7903379 -0.132349E-07  0.191E-04    0.94      47.5  T
     SCC iter.                  ...        0 min,  0.129 sec
     gradient                   ...        0 min,  0.187 sec
 * total energy  :  -207.4698355 Eh     change       -0.3592563E-03 Eh
   gradient norm :     0.0066086 Eh/α   predicted    -0.3175062E-03 ( -11.62%)
   displ. norm   :     0.7851350 α      lambda       -0.4116137E-03
   maximum displ.:     0.4754263 α      in ANC's #5, #3, #2, ...

........................................................................
.............................. CYCLE   59 ..............................
........................................................................
   1   -210.7869753 -0.210787E+03  0.683E-02    0.94       0.0  T
   2   -210.7869799 -0.462533E-05  0.389E-02    0.95       1.0  T
   3   -210.7869751  0.477125E-05  0.716E-03    0.94       1.3  T
   4   -210.7869815 -0.638730E-05  0.271E-03    0.95       3.3  T
   5   -210.7869818 -0.274462E-06  0.133E-03    0.95       6.8  T
[...]
   116   1 H        0.925     0.039     2.466     2.456
   117   1 H        0.925     0.048     2.344     2.394
   118   1 H        0.924     0.067     2.118     2.276
   119   1 H        0.925     0.051     2.312     2.378
   120   1 H        0.925     0.037     2.495     2.470
   121   1 H        0.925     0.048     2.339     2.392
   122   1 H        0.925     0.050     2.320     2.382

 Mol. C6AA /au·bohr⁶  :     238646.494822
 Mol. C8AA /au·bohr⁸  :    6447156.222479
 Mol. α(0) /au        :        773.253025


Wiberg/Mayer (AO) data.
largest (>0.10) Wiberg bond orders for each atom

 ---------------------------------------------------------------------------
     #   Z sym  total        # sym  WBO       # sym  WBO       # sym  WBO
 ---------------------------------------------------------------------------
     1   6 C    3.977 --     2 C    1.425     6 C    1.408    79 H    0.961
     2   6 C    3.980 --     3 C    1.440     1 C    1.425    80 H    0.970
     3   6 C    3.971 --     2 C    1.440     4 C    1.419    81 H    0.970
     4   6 C    3.981 --     5 C    1.423     3 C    1.419    82 H    0.966
     5   6 C    3.975 --     4 C    1.423     6 C    1.294     7 C    1.022
     6   6 C    3.980 --     1 C    1.408     5 C    1.294     9 C    1.079
     7   6 C    3.919 --    27 O    1.710     8 C    1.066     5 C    1.022
     8   6 C    3.949 --    10 C    1.480     9 C    1.147     7 C    1.066
     9   6 C    3.971 --    28 C    1.482     8 C    1.147     6 C    1.079
    10   6 C    3.950 --     8 C    1.480    11 C    1.319    83 H    0.939
    11   6 C    3.927 --    12 C    1.326    10 C    1.319    15 S    1.109
    12   6 C    3.966 --    13 C    1.458    11 C    1.326    84 H    0.959
    13   6 C    3.951 --    12 C    1.458    14 C    1.294    16 C    0.984
    14   6 C    3.940 --    13 C    1.294    18 C    1.219    15 S    1.215
    15  16 S    2.787 --    14 C    1.215    11 C    1.109    27 O    0.134
    16   6 C    3.987 --    17 C    0.985    13 C    0.984    24 C    0.958
                            23 C    0.957
    17   6 C    3.943 --    19 C    1.389    18 C    1.341    16 C    0.985
    18   6 C    3.927 --    17 C    1.341    14 C    1.219    21 S    1.174
    19   6 C    3.952 --    20 C    1.417    17 C    1.389    85 H    0.944
    20   6 C    3.910 --    19 C    1.417    22 C    1.176    21 S    1.131
    21  16 S    2.634 --    18 C    1.174    20 C    1.131
    22   6 C    3.928 --    64 C    1.352    68 C    1.180    20 C    1.176
    23   6 C    3.994 --    26 C    1.019    86 H    0.977    87 H    0.972
                            16 C    0.957
    24   6 C    3.994 --    25 C    1.019    89 H    0.977    88 H    0.972
                            16 C    0.958
    25   6 C    3.994 --    24 C    1.019    91 H    0.985    90 H    0.985
                            92 H    0.981
    26   6 C    3.994 --    23 C    1.019    93 H    0.985    95 H    0.985
                            94 H    0.984
    27   8 O    2.121 --     7 C    1.710    15 S    0.134
    28   6 C    3.944 --     9 C    1.482    30 C    1.100    29 C    1.096
    29   6 C    3.945 --    32 N    2.762    28 C    1.096
    30   6 C    3.944 --    31 N    2.750    28 C    1.100
    31   7 N    2.962 --    30 C    2.750
    32   7 N    2.967 --    29 C    2.762
    33   6 C    3.913 --    37 C    1.414    66 C    1.183    34 S    1.129
    34  16 S    2.726 --    35 C    1.154    33 C    1.129    69 N    0.143
    35   6 C    3.931 --    36 C    1.341    38 C    1.220    34 S    1.154
    36   6 C    3.945 --    37 C    1.385    35 C    1.341    40 C    0.990
    37   6 C    3.947 --    33 C    1.414    36 C    1.385    96 H    0.956
    38   6 C    3.928 --    39 C    1.312    35 C    1.220    41 S    1.196
    39   6 C    3.952 --    43 C    1.427    38 C    1.312    40 C    0.984
    40   6 C    3.988 --    36 C    0.990    39 C    0.984    59 C    0.963
                            58 C    0.948
    41  16 S    2.601 --    38 C    1.196    42 C    1.079
    42   6 C    3.907 --    43 C    1.367    44 C    1.296    41 S    1.079
    43   6 C    3.956 --    39 C    1.427    42 C    1.367    97 H    0.937
    44   6 C    3.951 --    45 C    1.501    42 C    1.296    98 H    0.942
    45   6 C    3.946 --    44 C    1.501    46 C    1.140    49 C    1.044
    46   6 C    3.972 --    55 C    1.487    45 C    1.140    47 C    1.081
    47   6 C    3.981 --    50 C    1.404    48 C    1.296    46 C    1.081
    48   6 C    3.977 --    53 C    1.421    47 C    1.296    49 C    1.020
    49   6 C    3.921 --    54 O    1.743    45 C    1.044    48 C    1.020
    50   6 C    3.977 --    51 C    1.428    47 C    1.404    99 H    0.961
    51   6 C    3.980 --    52 C    1.437    50 C    1.428   100 H    0.970
    52   6 C    3.972 --    51 C    1.437    53 C    1.422   101 H    0.970
    53   6 C    3.982 --    52 C    1.422    48 C    1.421   102 H    0.966
    54   8 O    2.046 --    49 C    1.743
    55   6 C    3.946 --    46 C    1.487    56 C    1.097    57 C    1.096
    56   6 C    3.945 --    62 N    2.752    55 C    1.097
    57   6 C    3.944 --    63 N    2.762    55 C    1.096
    58   6 C    3.993 --    61 C    1.019   103 H    0.978   104 H    0.974
                            40 C    0.948
    59   6 C    3.994 --    60 C    1.020   106 H    0.974   105 H    0.972
                            40 C    0.963
    60   6 C    3.996 --    59 C    1.020   107 H    0.987   109 H    0.987
                           108 H    0.986
    61   6 C    3.993 --    58 C    1.019   111 H    0.985   112 H    0.984
                           110 H    0.984
    62   7 N    2.963 --    56 C    2.752
    63   7 N    2.968 --    57 C    2.762
    64   6 C    3.863 --    22 C    1.352    65 C    1.324    73 F    0.974
    65   6 C    3.864 --    66 C    1.347    64 C    1.324    74 F    0.974
    66   6 C    3.933 --    65 C    1.347    67 C    1.183    33 C    1.183
    67   6 C    3.975 --    69 N    1.319    68 C    1.237    66 C    1.183
    68   6 C    3.974 --    72 N    1.318    67 C    1.237    22 C    1.180
    69   7 N    3.196 --    70 C    1.490    67 C    1.319    34 S    0.143
    70   6 C    3.953 --    69 N    1.490    71 C    1.235    77 C    1.014
    71   6 C    3.957 --    72 N    1.504    70 C    1.235    75 C    1.011
    72   7 N    3.076 --    71 C    1.504    68 C    1.318
    73   9 F    1.138 --    64 C    0.974
    74   9 F    1.112 --    65 C    0.974
    75   6 C    3.992 --    71 C    1.011    76 C    0.993   114 H    0.971
                           113 H    0.968
    76   6 C    3.990 --    75 C    0.993   115 H    0.987   116 H    0.986
                           117 H    0.984
    77   6 C    3.992 --    70 C    1.014    78 C    0.991   119 H    0.968
                           118 H    0.968
    78   6 C    3.989 --    77 C    0.991   121 H    0.988   120 H    0.987
                           122 H    0.984
    79   1 H    0.996 --     1 C    0.961
    80   1 H    0.997 --     2 C    0.970
    81   1 H    0.997 --     3 C    0.970
    82   1 H    0.996 --     4 C    0.966
    83   1 H    0.995 --    10 C    0.939
    84   1 H    0.996 --    12 C    0.959
    85   1 H    0.993 --    19 C    0.944
    86   1 H    0.999 --    23 C    0.977
    87   1 H    0.997 --    23 C    0.972
    88   1 H    0.997 --    24 C    0.972
    89   1 H    0.999 --    24 C    0.977
    90   1 H    0.998 --    25 C    0.985
    91   1 H    0.997 --    25 C    0.985
    92   1 H    0.998 --    25 C    0.981
    93   1 H    0.997 --    26 C    0.985
    94   1 H    0.998 --    26 C    0.984
    95   1 H    0.998 --    26 C    0.985
    96   1 H    0.995 --    37 C    0.956
    97   1 H    0.989 --    43 C    0.937
    98   1 H    0.995 --    44 C    0.942
    99   1 H    0.996 --    50 C    0.961
   100   1 H    0.997 --    51 C    0.970
   101   1 H    0.997 --    52 C    0.970
   102   1 H    0.996 --    53 C    0.966
   103   1 H    0.998 --    58 C    0.978
   104   1 H    0.997 --    58 C    0.974
   105   1 H    0.997 --    59 C    0.972
   106   1 H    0.997 --    59 C    0.974
   107   1 H    0.999 --    60 C    0.987
   108   1 H    0.998 --    60 C    0.986
   109   1 H    0.999 --    60 C    0.987
   110   1 H    0.997 --    61 C    0.984
   111   1 H    0.998 --    61 C    0.985
   112   1 H    0.998 --    61 C    0.984
   113   1 H    0.996 --    75 C    0.968
   114   1 H    0.996 --    75 C    0.971
   115   1 H    0.998 --    76 C    0.987
   116   1 H    0.998 --    76 C    0.986
   117   1 H    0.996 --    76 C    0.984
   118   1 H    0.995 --    77 C    0.968
   119   1 H    0.996 --    77 C    0.968
   120   1 H    0.999 --    78 C    0.987
   121   1 H    0.998 --    78 C    0.988
   122   1 H    0.996 --    78 C    0.984
 ---------------------------------------------------------------------------

Topologies differ in bond orders
Writing corrected topology to xtbtopo.mol

molecular dipole:
                 x           y           z       tot (Debye)
 q only:       -0.827      -0.726       0.008
   full:       -0.516      -0.762      -0.765       3.043
molecular quadrupole (traceless):
                xx          xy          yy          xz          yz          zz
 q only:      -36.398     102.931     -25.485     -51.125      -2.354      61.883
  q+dip:      -44.971     109.244     -22.233     -55.638     -10.697      67.204
   full:      -41.492     118.689     -18.957     -50.329      -6.379      60.449

           -------------------------------------------------
          |                Geometry Summary                 |
           -------------------------------------------------

      molecular mass/u    :     1095.3314757
   center of mass at/Å    :        0.1894411      -0.0418425      -0.3518399
  moments of inertia/u·Å² :        0.1087905E+05   0.8338784E+05   0.8778670E+05
rotational constants/cm⁻¹ :        0.1549551E-02   0.2021594E-03   0.1920295E-03

 * 111 selected distances

     #   Z          #   Z                                           value/Å
     1   6 C        2   6 C                                       1.3895504
     2   6 C        3   6 C                                       1.3869287
     3   6 C        4   6 C                                       1.3881541
     4   6 C        5   6 C                                       1.3804380
     1   6 C        6   6 C                                       1.3856452
     5   6 C        6   6 C                                       1.4058532
     8   6 C       10   6 C                                       1.3741423
    10   6 C       11   6 C                                       1.3989106
    11   6 C       12   6 C                                       1.4062296
    12   6 C       13   6 C                                       1.3740629
    13   6 C       14   6 C                                       1.4075150
    11   6 C       15  16 S                                       1.7581783 (max)
    14   6 C       15  16 S                                       1.7086364
    14   6 C       18   6 C                                       1.4094605
    17   6 C       18   6 C                                       1.3985408
    17   6 C       19   6 C                                       1.3853655
    19   6 C       20   6 C                                       1.3889526
    18   6 C       21  16 S                                       1.7090955
    20   6 C       21  16 S                                       1.7562979
    20   6 C       22   6 C                                       1.4329001
    16   6 C       23   6 C                                       1.5412195
    16   6 C       24   6 C                                       1.5413821
    24   6 C       25   6 C                                       1.5228652
    23   6 C       26   6 C                                       1.5226844
     7   6 C       27   8 O                                       1.2188337
     9   6 C       28   6 C                                       1.3717756
    30   6 C       31   7 N                                       1.1493514
    29   6 C       32   7 N                                       1.1482645
    33   6 C       34  16 S                                       1.7500310
    34  16 S       35   6 C                                       1.7209586
    35   6 C       36   6 C                                       1.3983994
    33   6 C       37   6 C                                       1.3899584
    36   6 C       37   6 C                                       1.3857827
    35   6 C       38   6 C                                       1.4094850
    38   6 C       39   6 C                                       1.4047589
    38   6 C       41  16 S                                       1.7058209
    39   6 C       43   6 C                                       1.3783511
    42   6 C       43   6 C                                       1.3952395
    42   6 C       44   6 C                                       1.4022733
    44   6 C       45   6 C                                       1.3733091
    47   6 C       48   6 C                                       1.4040313
    47   6 C       50   6 C                                       1.3860973
    50   6 C       51   6 C                                       1.3890114
    51   6 C       52   6 C                                       1.3872986
    48   6 C       53   6 C                                       1.3808834
    52   6 C       53   6 C                                       1.3876213
    49   6 C       54   8 O                                       1.2154189
    46   6 C       55   6 C                                       1.3712753
    40   6 C       59   6 C                                       1.5358833
    59   6 C       60   6 C                                       1.5242876
    58   6 C       61   6 C                                       1.5226781
    56   6 C       62   7 N                                       1.1490916
    57   6 C       63   7 N                                       1.1482802
    22   6 C       64   6 C                                       1.3927053
    64   6 C       65   6 C                                       1.3933390
    33   6 C       66   6 C                                       1.4287325
    65   6 C       66   6 C                                       1.3897338
    66   6 C       67   6 C                                       1.4275275
    22   6 C       68   6 C                                       1.4329854
    67   6 C       68   6 C                                       1.4182996
    67   6 C       69   7 N                                       1.3369223
    69   7 N       70   6 C                                       1.3097477
    70   6 C       71   6 C                                       1.4198765
    68   6 C       72   7 N                                       1.3419864
    71   6 C       72   7 N                                       1.3113756
    75   6 C       76   6 C                                       1.5310710
    77   6 C       78   6 C                                       1.5314139
     1   6 C       79   1 H                                       1.0775225
     2   6 C       80   1 H                                       1.0797240
     3   6 C       81   1 H                                       1.0796021
     4   6 C       82   1 H                                       1.0791847
    10   6 C       83   1 H                                       1.0833823
    12   6 C       84   1 H                                       1.0756950
    19   6 C       85   1 H                                       1.0722062 (min)
    23   6 C       86   1 H                                       1.0930051
    23   6 C       87   1 H                                       1.0910343
    24   6 C       88   1 H                                       1.0908107
    24   6 C       89   1 H                                       1.0931280
    25   6 C       90   1 H                                       1.0864950
    25   6 C       91   1 H                                       1.0879582
    25   6 C       92   1 H                                       1.0857920
    26   6 C       93   1 H                                       1.0877562
    26   6 C       94   1 H                                       1.0861783
    26   6 C       95   1 H                                       1.0864538
    37   6 C       96   1 H                                       1.0732009
    43   6 C       97   1 H                                       1.0741110
    44   6 C       98   1 H                                       1.0840175
    50   6 C       99   1 H                                       1.0774660
    51   6 C      100   1 H                                       1.0797498
    52   6 C      101   1 H                                       1.0796644
    53   6 C      102   1 H                                       1.0792582
    58   6 C      103   1 H                                       1.0931092
    58   6 C      104   1 H                                       1.0917788
    59   6 C      105   1 H                                       1.0903476
    59   6 C      106   1 H                                       1.0913861
    60   6 C      107   1 H                                       1.0879735
    60   6 C      108   1 H                                       1.0872007
    60   6 C      109   1 H                                       1.0875177
    61   6 C      110   1 H                                       1.0876479
    61   6 C      111   1 H                                       1.0863314
    61   6 C      112   1 H                                       1.0865889
    75   6 C      113   1 H                                       1.0896842
    75   6 C      114   1 H                                       1.0907440
    76   6 C      115   1 H                                       1.0871869
    76   6 C      116   1 H                                       1.0876275
    76   6 C      117   1 H                                       1.0868521
    77   6 C      118   1 H                                       1.0903892
    77   6 C      119   1 H                                       1.0892275
    78   6 C      120   1 H                                       1.0881994
    78   6 C      121   1 H                                       1.0869434
    78   6 C      122   1 H                                       1.0866342

 * 5 distinct bonds (by element types)

   Z      Z             #   av. dist./Å        max./Å        min./Å
   1 H    6 C          44     1.0853811     1.0931280     1.0722062
   6 C    6 C          50     1.4200977     1.5413821     1.3712753
   6 C    7 N           8     1.2368774     1.3419864     1.1482645
   6 C    8 O           2     1.2171263     1.2188337     1.2154189
   6 C   16 S           7     1.7298598     1.7581783     1.7058209


optimized geometry written to: xtbopt.mol


           -------------------------------------------------
          | TOTAL ENERGY             -207.478472878232 Eh   |
          | GRADIENT NORM               0.000213476187 Eh/α |
          | HOMO-LUMO GAP               0.973224716845 eV   |
           -------------------------------------------------

------------------------------------------------------------------------
 * finished run on 2021/12/22 at 20:58:52.524     
------------------------------------------------------------------------
 total:
 * wall-time:     0 d,  0 h,  1 min, 31.940 sec
 *  cpu-time:     0 d,  0 h,  1 min, 31.937 sec
 * ratio c/w:     1.000 speedup
 SCF:
 * wall-time:     0 d,  0 h,  0 min,  0.514 sec
 *  cpu-time:     0 d,  0 h,  0 min,  0.514 sec
 * ratio c/w:     1.000 speedup
 ANC optimizer:
 * wall-time:     0 d,  0 h,  1 min, 31.364 sec
 *  cpu-time:     0 d,  0 h,  1 min, 31.362 sec
 * ratio c/w:     1.000 speedup

