      -----------------------------------------------------------      
     |                   =====================                   |     
     |                           x T B                           |     
     |                   =====================                   |     
     |                         S. Grimme                         |     
     |          Mulliken Center for Theoretical Chemistry        |     
     |                    University of Bonn                     |     
      -----------------------------------------------------------      

   * xtb version 6.4.1 (unknown) compiled by 'oda6@login1.crc.pitt.edu' on 2021-06-25

   xtb is free software: you can redistribute it and/or modify it under
   the terms of the GNU Lesser General Public License as published by
   the Free Software Foundation, either version 3 of the License, or
   (at your option) any later version.
   
   xtb is distributed in the hope that it will be useful,
   but WITHOUT ANY WARRANTY; without even the implied warranty of
   MERCHANTABILITY or FITNESS FOR A PARTICULAR PURPOSE.  See the
   GNU Lesser General Public License for more details.
   
   Cite this work as:
   * C. Bannwarth, E. Caldeweyher, S. Ehlert, A. Hansen, P. Pracht,
     J. Seibert, S. Spicher, S. Grimme, WIREs Comput. Mol. Sci., 2020, 11,
     e01493. DOI: 10.1002/wcms.1493
   
   for GFN2-xTB:
   * C. Bannwarth, S. Ehlert and S. Grimme., J. Chem. Theory Comput., 2019,
     15, 1652-1671. DOI: 10.1021/acs.jctc.8b01176
   for GFN1-xTB:
   * S. Grimme, C. Bannwarth, P. Shushkov, J. Chem. Theory Comput., 2017,
     13, 1989-2009. DOI: 10.1021/acs.jctc.7b00118
   for GFN0-xTB:
   * P. Pracht, E. Caldeweyher, S. Ehlert, S. Grimme, ChemRxiv, 2019, preprint.
     DOI: 10.26434/chemrxiv.8326202.v1
   for GFN-FF:
   * S. Spicher and S. Grimme, Angew. Chem. Int. Ed., 2020, 59, 15665-15673.
     DOI: 10.1002/anie.202004239
   
   for DFT-D4:
   * E. Caldeweyher, C. Bannwarth and S. Grimme, J. Chem. Phys., 2017,
     147, 034112. DOI: 10.1063/1.4993215
   * E. Caldeweyher, S. Ehlert, A. Hansen, H. Neugebauer, S. Spicher,
     C. Bannwarth and S. Grimme, J. Chem. Phys., 2019, 150, 154122.
     DOI: 10.1063/1.5090222
   * E. Caldeweyher, J.-M. Mewes, S. Ehlert and S. Grimme, Phys. Chem. Chem. Phys.
     2020, 22, 8499-8512. DOI: 10.1039/D0CP00502A
   
   for sTDA-xTB:
   * S. Grimme and C. Bannwarth, J. Chem. Phys., 2016, 145, 054103.
     DOI: 10.1063/1.4959605
   
   in the mass-spec context:
   * V. Asgeirsson, C. Bauer and S. Grimme, Chem. Sci., 2017, 8, 4879.
     DOI: 10.1039/c7sc00601b
   * J. Koopman and S. Grimme, ACS Omega 2019, 4, 12, 15120-15133.
     DOI: 10.1021/acsomega.9b02011
   
   for metadynamics refer to:
   * S. Grimme, J. Chem. Theory Comput., 2019, 155, 2847-2862
     DOI: 10.1021/acs.jctc.9b00143
   
   for SPH calculations refer to:
   * S. Spicher and S. Grimme, J. Chem. Theory Comput., 2021, 17, 1701-1714
     DOI: 10.1021/acs.jctc.0c01306
   
   with help from (in alphabetical order)
   P. Atkinson, C. Bannwarth, F. Bohle, G. Brandenburg, E. Caldeweyher
   M. Checinski, S. Dohm, S. Ehlert, S. Ehrlich, I. Gerasimov, J. Koopman
   C. Lavigne, S. Lehtola, F. März, M. Müller, F. Musil, H. Neugebauer
   J. Pisarek, C. Plett, P. Pracht, J. Seibert, P. Shushkov, S. Spicher
   M. Stahn, M. Steiner, T. Strunk, J. Stückrath, T. Rose, and J. Unsleber
   
 * started run on 2021/12/22 at 21:19:53.448     

           -------------------------------------------------
          |                Calculation Setup                |
           -------------------------------------------------

          program call               : /ihome/ghutchison/oda6/xtb/xtb-641/bin//xtb SJ-IC.mol -opt
          hostname                   : smp-n104
          coordinate file            : SJ-IC.mol
          omp threads                :                     1
          number of atoms            :                   140
          number of electrons        :                   410
          charge                     :                     0
          spin                       :                   0.0
          first test random number   :      0.96936497716048

   ID    Z sym.   atoms
    1    6 C      1, 2, 4-50, 52-61, 63-65, 68-77, 79-81, 84-86
    2   16 S      3, 51
    3    8 O      62, 78
    4    7 N      66, 67, 82, 83
    5    1 H      87-140
########################################################################
[WARNING] Please study the warnings concerning your input carefully
-1- prog_main_parseArguments: the use of '-opt' is discouraged, please use '--opt' next time
########################################################################

           -------------------------------------------------
          |                 G F N 2 - x T B                 |
           -------------------------------------------------

        Reference                      10.1021/acs.jctc.8b01176
      * Hamiltonian:
        H0-scaling (s, p, d)           1.850000    2.230000    2.230000
        zeta-weighting                 0.500000
      * Dispersion:
        s8                             2.700000
        a1                             0.520000
        a2                             5.000000
        s9                             5.000000
      * Repulsion:
        kExp                           1.500000    1.000000
        rExp                           1.000000
      * Coulomb:
        alpha                          2.000000
        third order                    shell-resolved
        anisotropic                    true
        a3                             3.000000
        a5                             4.000000
        cn-shift                       1.200000
        cn-exp                         4.000000
        max-rad                        5.000000


          ...................................................
          :                      SETUP                      :
          :.................................................:
          :  # basis functions                 410          :
          :  # atomic orbitals                 408          :
          :  # shells                          228          :
          :  # electrons                       410          :
          :  max. iterations                   250          :
          :  Hamiltonian                  GFN2-xTB          :
          :  restarted?                      false          :
          :  GBSA solvation                  false          :
          :  PC potential                    false          :
          :  electronic temp.          300.0000000     K    :
          :  accuracy                    1.0000000          :
          :  -> integral cutoff          0.2500000E+02      :
          :  -> integral neglect         0.1000000E-07      :
          :  -> SCF convergence          0.1000000E-05 Eh   :
          :  -> wf. convergence          0.1000000E-03 e    :
          :  Broyden damping             0.4000000          :
          ...................................................

 iter      E             dE          RMSdq      gap      omega  full diag
   1   -224.0812451 -0.224081E+03  0.473E+00    1.39       0.0  T
   2   -224.1752939 -0.940488E-01  0.289E+00    1.25       1.0  T
   3   -223.7966532  0.378641E+00  0.216E+00    0.88       1.0  T
   4   -224.3058171 -0.509164E+00  0.553E-01    1.15       1.0  T
   5   -224.3351779 -0.293609E-01  0.162E-01    1.00       1.0  T
   6   -224.3366185 -0.144053E-02  0.895E-02    1.11       1.0  T
   7   -224.3375019 -0.883404E-03  0.416E-02    1.06       1.0  T
   8   -224.3376912 -0.189350E-03  0.164E-02    1.08       1.0  T
   9   -224.3377092 -0.179956E-04  0.741E-03    1.07       1.1  T
  10   -224.3377130 -0.377697E-05  0.270E-03    1.07       3.1  T
  11   -224.3377135 -0.456382E-06  0.133E-03    1.07       6.4  T
  12   -224.3377137 -0.191897E-06  0.549E-04    1.07      15.4  T
  13   -224.3377137 -0.100747E-07  0.352E-04    1.07      24.0  T

   *** convergence criteria satisfied after 13 iterations ***

         #    Occupation            Energy/Eh            Energy/eV
      -------------------------------------------------------------
         1        2.0000           -0.7479949             -20.3540
       ...           ...                  ...                  ...
       199        2.0000           -0.3971217             -10.8062
       200        2.0000           -0.3922018             -10.6724
       201        2.0000           -0.3915989             -10.6559
       202        2.0000           -0.3897328             -10.6052
       203        2.0000           -0.3864188             -10.5150
       204        2.0000           -0.3844252             -10.4607
       205        2.0000           -0.3672432              -9.9932 (HOMO)
       206                         -0.3277739              -8.9192 (LUMO)
       207                         -0.3259390              -8.8693
       208                         -0.3192792              -8.6880
       209                         -0.3175736              -8.6416
       210                         -0.2836635              -7.7189
       ...                                ...                  ...
       408                          1.0861290              29.5551
      -------------------------------------------------------------
                  HL-Gap            0.0394693 Eh            1.0740 eV
             Fermi-level           -0.3475728 Eh           -9.4579 eV

 SCC (total)                   0 d,  0 h,  0 min,  0.629 sec
 SCC setup                      ...        0 min,  0.002 sec (  0.324%)
 Dispersion                     ...        0 min,  0.007 sec (  1.083%)
 classical contributions        ...        0 min,  0.001 sec (  0.113%)
 integral evaluation            ...        0 min,  0.058 sec (  9.217%)
 iterations                     ...        0 min,  0.308 sec ( 48.995%)
 molecular gradient             ...        0 min,  0.251 sec ( 39.898%)
 printout                       ...        0 min,  0.002 sec (  0.362%)

         :::::::::::::::::::::::::::::::::::::::::::::::::::::
         ::                     SUMMARY                     ::
         :::::::::::::::::::::::::::::::::::::::::::::::::::::
         :: total energy            -220.569550042814 Eh    ::
         :: gradient norm              0.255704204418 Eh/a0 ::
         :: HOMO-LUMO gap              1.074014781147 eV    ::
         ::.................................................::
         :: SCC energy              -224.337713661066 Eh    ::
         :: -> isotropic ES            0.097580433909 Eh    ::
         :: -> anisotropic ES          0.019796972670 Eh    ::
         :: -> anisotropic XC          0.175960886293 Eh    ::
         :: -> dispersion             -0.200867446997 Eh    ::
         :: repulsion energy           3.763847602233 Eh    ::
         :: add. restraining           0.000000000000 Eh    ::
         :: total charge              -0.000000000276 e     ::
         :::::::::::::::::::::::::::::::::::::::::::::::::::::

      ----------------------------------------------------------- 
     |                   =====================                   |
     |                        A N C O P T                        |
     |                   =====================                   |
     |               Approximate Normal Coordinate               |
     |                Rational Function Optimizer                |
      ----------------------------------------------------------- 

          ...................................................
          :                      SETUP                      :
          :.................................................:
          :   optimization level            normal          :
          :   max. optcycles                   420          :
          :   ANC micro-cycles                  20          :
          :   degrees of freedom               414          :
          :.................................................:
          :   RF solver                   davidson          :
          :   write xtbopt.log                true          :
          :   linear?                        false          :
          :   energy convergence         0.5000000E-05 Eh   :
          :   grad. convergence          0.1000000E-02 Eh/α :
          :   maximium RF displ.         1.0000000          :
          :   Hlow (freq-cutoff)         0.1000000E-01      :
          :   Hmax (freq-cutoff)         5.0000000          :
          :   S6 in model hess.         20.0000000          :
          ...................................................

generating ANC from model Hessian ...
Using Lindh-Hessian (1995)
 Shifting diagonal of input Hessian by   1.010593195096216E-002
 Lowest  eigenvalues of input Hessian
    0.010000    0.010037    0.000000    0.000000    0.000000    0.000000
    0.000000    0.000000    0.010114    0.010132    0.010146    0.010161
    0.010173    0.010200    0.010225    0.010229    0.010243    0.010283
 Highest eigenvalues
    2.113475    2.148047    2.503486    2.511378    2.553030    2.565049
 

........................................................................
.............................. CYCLE    1 ..............................
........................................................................
   1   -224.3377137 -0.224338E+03  0.141E-04    1.07       0.0  T
   2   -224.3377137  0.212850E-09  0.122E-04    1.07      69.2  T
   3   -224.3377137 -0.178568E-08  0.578E-05    1.07     146.3  T
     SCC iter.                  ...        0 min,  0.072 sec
     gradient                   ...        0 min,  0.253 sec
 * total energy  :  -220.5695501 Eh     change       -0.1121796E-07 Eh
   gradient norm :     0.2557079 Eh/α   predicted     0.0000000E+00 (-100.00%)
   displ. norm   :     0.4466488 α      lambda       -0.7043838E-01
   maximum displ.:     0.0940646 α      in ANC's #216, #251, #151, ...

........................................................................
.............................. CYCLE    2 ..............................
........................................................................
   1   -224.5286729 -0.224529E+03  0.249E-01    0.98       0.0  T
   2   -224.5295438 -0.870933E-03  0.150E-01    1.10       1.0  T
   3   -224.5291502  0.393593E-03  0.111E-01    1.01       1.0  T
   4   -224.5301416 -0.991417E-03  0.482E-02    1.07       1.0  T
   5   -224.5304908 -0.349208E-03  0.146E-02    1.06       1.0  T
   6   -224.5305066 -0.157674E-04  0.639E-03    1.06       1.3  T
   7   -224.5305094 -0.283411E-05  0.277E-03    1.06       3.1  T
   8   -224.5305101 -0.679265E-06  0.122E-03    1.06       6.9  T
   9   -224.5305102 -0.682070E-07  0.761E-04    1.06      11.1  T
  10   -224.5305102 -0.330056E-07  0.290E-04    1.06      29.1  T
     SCC iter.                  ...        0 min,  0.233 sec
     gradient                   ...        0 min,  0.256 sec
 * total energy  :  -220.6202069 Eh     change       -0.5065685E-01 Eh
   gradient norm :     0.1185925 Eh/α   predicted    -0.4229662E-01 ( -16.50%)
   displ. norm   :     0.4582300 α      lambda       -0.2881119E-01
   maximum displ.:     0.1070324 α      in ANC's #88, #151, #141, ...

........................................................................
.............................. CYCLE    3 ..............................
........................................................................
   1   -224.6306728 -0.224631E+03  0.230E-01    0.94       0.0  T
   2   -224.6307605 -0.877390E-04  0.146E-01    1.05       1.0  T
   3   -224.6310535 -0.292974E-03  0.120E-01    0.98       1.0  T
   4   -224.6325918 -0.153831E-02  0.451E-02    1.01       1.0  T
   5   -224.6328353 -0.243507E-03  0.151E-02    1.01       1.0  T
   6   -224.6328549 -0.196015E-04  0.587E-03    1.01       1.4  T
   7   -224.6328574 -0.245419E-05  0.278E-03    1.01       3.0  T
   8   -224.6328580 -0.619702E-06  0.141E-03    1.01       6.0  T
   9   -224.6328582 -0.247678E-06  0.618E-04    1.01      13.7  T
  10   -224.6328582 -0.991014E-08  0.278E-04    1.01      30.4  T
     SCC iter.                  ...        0 min,  0.228 sec
     gradient                   ...        0 min,  0.252 sec
 * total energy  :  -220.6373510 Eh     change       -0.1714410E-01 Eh
   gradient norm :     0.0381797 Eh/α   predicted    -0.1743042E-01 (   1.67%)
   displ. norm   :     0.5099559 α      lambda       -0.9137407E-02
   maximum displ.:     0.1377158 α      in ANC's #18, #88, #37, ...

........................................................................
.............................. CYCLE    4 ..............................
........................................................................
   1   -224.6470781 -0.224647E+03  0.271E-01    0.96       0.0  T
   2   -224.6469707  0.107405E-03  0.157E-01    1.00       1.0  T
   3   -224.6426262  0.434454E-02  0.153E-01    0.94       1.0  T
   4   -224.6476341 -0.500788E-02  0.204E-02    0.98       1.0  T
   5   -224.6476892 -0.551185E-04  0.847E-03    0.98       1.0  T
   6   -224.6476949 -0.567585E-05  0.396E-03    0.98       2.1  T
   7   -224.6476956 -0.760794E-06  0.198E-03    0.98       4.3  T
   8   -224.6476962 -0.544347E-06  0.734E-04    0.98      11.5  T
   9   -224.6476962 -0.508114E-07  0.333E-04    0.98      25.4  T
     SCC iter.                  ...        0 min,  0.204 sec
     gradient                   ...        0 min,  0.252 sec
 * total energy  :  -220.6391415 Eh     change       -0.1790511E-02 Eh
   gradient norm :     0.0453429 Eh/α   predicted    -0.5756856E-02 ( 221.52%)
   displ. norm   :     0.4438097 α      lambda       -0.9492770E-02
   maximum displ.:     0.1478918 α      in ANC's #18, #1, #75, ...

........................................................................
.............................. CYCLE    5 ..............................
........................................................................
   1   -224.6667030 -0.224667E+03  0.252E-01    0.97       0.0  T
   2   -224.6667942 -0.911882E-04  0.142E-01    0.98       1.0  T
   3   -224.6649777  0.181655E-02  0.964E-02    0.96       1.0  T
   4   -224.6669698 -0.199217E-02  0.124E-02    0.98       1.0  T
   5   -224.6669871 -0.172296E-04  0.695E-03    0.98       1.2  T
   6   -224.6669923 -0.520131E-05  0.284E-03    0.98       3.0  T
   7   -224.6669927 -0.445569E-06  0.134E-03    0.98       6.3  T
   8   -224.6669930 -0.247660E-06  0.488E-04    0.98      17.3  T
   9   -224.6669930 -0.202836E-07  0.241E-04    0.98      35.0  T
     SCC iter.                  ...        0 min,  0.207 sec
     gradient                   ...        0 min,  0.251 sec
 * total energy  :  -220.6434900 Eh     change       -0.4348527E-02 Eh
   gradient norm :     0.0316919 Eh/α   predicted    -0.5681273E-02 (  30.65%)
   displ. norm   :     0.3403571 α      lambda       -0.3054401E-02
   maximum displ.:     0.0898653 α      in ANC's #46, #31, #52, ...

........................................................................
.............................. CYCLE    6 ..............................
........................................................................
   1   -224.6582418 -0.224658E+03  0.210E-01    0.99       0.0  T
   2   -224.6583331 -0.912506E-04  0.117E-01    0.99       1.0  T
   3   -224.6581702  0.162910E-03  0.397E-02    0.99       1.0  T
   4   -224.6583812 -0.211038E-03  0.647E-03    0.99       1.3  T
   5   -224.6583834 -0.221744E-05  0.368E-03    0.99       2.3  T
   6   -224.6583841 -0.653696E-06  0.188E-03    0.99       4.5  T
   7   -224.6583846 -0.484401E-06  0.882E-04    0.99       9.6  T
   8   -224.6583847 -0.123455E-06  0.279E-04    0.99      30.3  T
     SCC iter.                  ...        0 min,  0.184 sec
     gradient                   ...        0 min,  0.251 sec
 * total energy  :  -220.6440396 Eh     change       -0.5495880E-03 Eh
   gradient norm :     0.0258867 Eh/α   predicted    -0.1704119E-02 ( 210.07%)
   displ. norm   :     0.3555198 α      lambda       -0.3854442E-02
   maximum displ.:     0.1264656 α      in ANC's #50, #1, #31, ...

........................................................................
.............................. CYCLE    7 ..............................
........................................................................
   1   -224.6605949 -0.224661E+03  0.179E-01    1.01       0.0  T
   2   -224.6606677 -0.727250E-04  0.100E-01    1.00       1.0  T
   3   -224.6603087  0.358953E-03  0.485E-02    1.01       1.0  T
   4   -224.6607140 -0.405273E-03  0.941E-03    1.00       1.0  T
   5   -224.6607258 -0.117859E-04  0.425E-03    1.00       2.0  T
   6   -224.6607273 -0.156994E-05  0.190E-03    1.00       4.5  T
   7   -224.6607276 -0.316839E-06  0.907E-04    1.00       9.3  T
   8   -224.6607277 -0.954385E-07  0.325E-04    1.00      26.0  T
     SCC iter.                  ...        0 min,  0.191 sec
     gradient                   ...        0 min,  0.251 sec
 * total energy  :  -220.6458281 Eh     change       -0.1788479E-02 Eh
   gradient norm :     0.0187201 Eh/α   predicted    -0.2170814E-02 (  21.38%)
   displ. norm   :     0.3683827 α      lambda       -0.2072819E-02
   maximum displ.:     0.1224883 α      in ANC's #41, #50, #16, ...

........................................................................
.............................. CYCLE    8 ..............................
........................................................................
   1   -224.6626080 -0.224663E+03  0.170E-01    0.99       0.0  T
   2   -224.6626384 -0.303757E-04  0.958E-02    1.00       1.0  T
   3   -224.6618928  0.745620E-03  0.620E-02    0.98       1.0  T
   4   -224.6627078 -0.815004E-03  0.843E-03    1.00       1.0  T
   5   -224.6627164 -0.857506E-05  0.426E-03    1.00       2.0  T
   6   -224.6627180 -0.163229E-05  0.188E-03    1.00       4.5  T
   7   -224.6627182 -0.160408E-06  0.103E-03    1.00       8.2  T
   8   -224.6627183 -0.158424E-06  0.341E-04    1.00      24.8  T
   9   -224.6627183 -0.100329E-07  0.166E-04    1.00      51.0  T
     SCC iter.                  ...        0 min,  0.203 sec
     gradient                   ...        0 min,  0.250 sec
 * total energy  :  -220.6464224 Eh     change       -0.5943472E-03 Eh
   gradient norm :     0.0237070 Eh/α   predicted    -0.1177059E-02 (  98.04%)
   displ. norm   :     0.3976326 α      lambda       -0.2534235E-02
   maximum displ.:     0.1430536 α      in ANC's #31, #16, #55, ...

........................................................................
.............................. CYCLE    9 ..............................
........................................................................
   1   -224.6781486 -0.224678E+03  0.177E-01    0.98       0.0  T
   2   -224.6781997 -0.511290E-04  0.996E-02    0.99       1.0  T
   3   -224.6776192  0.580567E-03  0.572E-02    0.98       1.0  T
   4   -224.6782533 -0.634177E-03  0.991E-03    0.99       1.0  T
   5   -224.6782667 -0.133423E-04  0.488E-03    0.99       1.7  T
   6   -224.6782694 -0.266896E-05  0.198E-03    0.99       4.3  T
   7   -224.6782696 -0.222317E-06  0.953E-04    0.99       8.9  T
   8   -224.6782697 -0.102452E-06  0.354E-04    0.99      23.9  T
     SCC iter.                  ...        0 min,  0.184 sec
     gradient                   ...        0 min,  0.258 sec
 * total energy  :  -220.6472782 Eh     change       -0.8557706E-03 Eh
   gradient norm :     0.0298793 Eh/α   predicted    -0.1467465E-02 (  71.48%)
   displ. norm   :     0.2926935 α      lambda       -0.1721305E-02
   maximum displ.:     0.0933657 α      in ANC's #31, #16, #28, ...

........................................................................
.............................. CYCLE   10 ..............................
........................................................................
   1   -224.6768204 -0.224677E+03  0.674E-02    1.00       0.0  T
   2   -224.6768628 -0.423813E-04  0.402E-02    1.00       1.0  T
   3   -224.6767620  0.100764E-03  0.274E-02    1.00       1.0  T
   4   -224.6768694 -0.107339E-03  0.959E-03    0.99       1.0  T
   5   -224.6768860 -0.166539E-04  0.341E-03    1.00       2.5  T
   6   -224.6768878 -0.177460E-05  0.114E-03    1.00       7.4  T
   7   -224.6768879 -0.794908E-07  0.622E-04    1.00      13.6  T
   8   -224.6768879 -0.280413E-07  0.229E-04    1.00      37.0  T
     SCC iter.                  ...        0 min,  0.188 sec
     gradient                   ...        0 min,  0.259 sec
 * total energy  :  -220.6483601 Eh     change       -0.1081899E-02 Eh
   gradient norm :     0.0098224 Eh/α   predicted    -0.9343806E-03 ( -13.64%)
   displ. norm   :     0.5070543 α      lambda       -0.1223007E-02
   maximum displ.:     0.1724172 α      in ANC's #16, #31, #21, ...

........................................................................
.............................. CYCLE   11 ..............................
........................................................................
   1   -224.6695705 -0.224670E+03  0.123E-01    1.00       0.0  T
   2   -224.6695915 -0.210371E-04  0.696E-02    1.00       1.0  T
   3   -224.6694742  0.117305E-03  0.287E-02    1.01       1.0  T
   4   -224.6696046 -0.130350E-03  0.609E-03    1.00       1.4  T
   5   -224.6696090 -0.443892E-05  0.306E-03    1.00       2.8  T
   6   -224.6696098 -0.754878E-06  0.127E-03    1.00       6.7  T
   7   -224.6696099 -0.161524E-06  0.541E-04    1.00      15.6  T
   8   -224.6696100 -0.373398E-07  0.222E-04    1.00      38.0  T
     SCC iter.                  ...        0 min,  0.186 sec
     gradient                   ...        0 min,  0.258 sec
 * total energy  :  -220.6490747 Eh     change       -0.7145315E-03 Eh
   gradient norm :     0.0172863 Eh/α   predicted    -0.7687283E-03 (   7.58%)
   displ. norm   :     0.6471290 α      lambda       -0.1816403E-02
   maximum displ.:     0.2177680 α      in ANC's #16, #31, #41, ...

........................................................................
.............................. CYCLE   12 ..............................
........................................................................
   1   -224.6660096 -0.224666E+03  0.162E-01    1.01       0.0  T
   2   -224.6660480 -0.384376E-04  0.916E-02    1.01       1.0  T
   3   -224.6659020  0.146047E-03  0.304E-02    1.01       1.0  T
   4   -224.6660628 -0.160871E-03  0.770E-03    1.01       1.1  T
   5   -224.6660702 -0.740230E-05  0.392E-03    1.01       2.2  T
   6   -224.6660717 -0.146406E-05  0.157E-03    1.01       5.4  T
   7   -224.6660719 -0.177270E-06  0.604E-04    1.01      14.0  T
   8   -224.6660719 -0.421900E-07  0.242E-04    1.01      35.0  T
     SCC iter.                  ...        0 min,  0.195 sec
     gradient                   ...        0 min,  0.258 sec
 * total energy  :  -220.6498858 Eh     change       -0.8111858E-03 Eh
   gradient norm :     0.0195891 Eh/α   predicted    -0.1288540E-02 (  58.85%)
   displ. norm   :     0.4079944 α      lambda       -0.1140843E-02
   maximum displ.:     0.1553399 α      in ANC's #16, #3, #21, ...

........................................................................
.............................. CYCLE   13 ..............................
........................................................................
   1   -224.6760156 -0.224676E+03  0.790E-02    1.00       0.0  T
   2   -224.6760327 -0.170424E-04  0.456E-02    1.01       1.0  T
   3   -224.6759598  0.729224E-04  0.219E-02    1.00       1.0  T
   4   -224.6760373 -0.775377E-04  0.570E-03    1.01       1.5  T
   5   -224.6760421 -0.482707E-05  0.256E-03    1.01       3.3  T
   6   -224.6760429 -0.799549E-06  0.105E-03    1.01       8.0  T
   7   -224.6760430 -0.765126E-07  0.512E-04    1.01      16.5  T
   8   -224.6760430 -0.321177E-07  0.178E-04    1.01      47.5  T
     SCC iter.                  ...        0 min,  0.184 sec
     gradient                   ...        0 min,  0.251 sec
 * total energy  :  -220.6506891 Eh     change       -0.8032343E-03 Eh
   gradient norm :     0.0119928 Eh/α   predicted    -0.6653564E-03 ( -17.17%)
   displ. norm   :     0.5590218 α      lambda       -0.9432496E-03
   maximum displ.:     0.2106439 α      in ANC's #16, #3, #1, ...

........................................................................
.............................. CYCLE   14 ..............................
........................................................................
   1   -224.6774982 -0.224677E+03  0.107E-01    1.00       0.0  T
   2   -224.6775111 -0.128981E-04  0.613E-02    1.00       1.0  T
   3   -224.6774730  0.381411E-04  0.169E-02    1.00       1.0  T
   4   -224.6775173 -0.442989E-04  0.388E-03    1.00       2.2  T
   5   -224.6775181 -0.808799E-06  0.247E-03    1.00       3.4  T
   6   -224.6775186 -0.543787E-06  0.930E-04    1.00       9.1  T
   7   -224.6775187 -0.851376E-07  0.386E-04    1.00      21.9  T
     SCC iter.                  ...        0 min,  0.162 sec
     gradient                   ...        0 min,  0.252 sec
 * total energy  :  -220.6514062 Eh     change       -0.7171681E-03 Eh
   gradient norm :     0.0068728 Eh/α   predicted    -0.6190118E-03 ( -13.69%)
   displ. norm   :     0.6435638 α      lambda       -0.8178540E-03
   maximum displ.:     0.2415617 α      in ANC's #16, #3, #7, ...

........................................................................
.............................. CYCLE   15 ..............................
........................................................................
   1   -224.6807270 -0.224681E+03  0.101E-01    1.01       0.0  T
   2   -224.6807304 -0.341558E-05  0.589E-02    1.00       1.0  T
   3   -224.6806234  0.106931E-03  0.227E-02    1.01       1.0  T
   4   -224.6807374 -0.113919E-03  0.357E-03    1.00       2.4  T
   5   -224.6807387 -0.129989E-05  0.174E-03    1.00       4.9  T
   6   -224.6807387 -0.697981E-07  0.961E-04    1.00       8.8  T
   7   -224.6807389 -0.139007E-06  0.307E-04    1.00      27.6  T
     SCC iter.                  ...        0 min,  0.160 sec
     gradient                   ...        0 min,  0.252 sec
 * total energy  :  -220.6520994 Eh     change       -0.6931848E-03 Eh
   gradient norm :     0.0091120 Eh/α   predicted    -0.5782950E-03 ( -16.57%)
   displ. norm   :     0.7187881 α      lambda       -0.9161580E-03
   maximum displ.:     0.2626831 α      in ANC's #3, #16, #1, ...

........................................................................
.............................. CYCLE   16 ..............................
........................................................................
   1   -224.6821613 -0.224682E+03  0.122E-01    1.01       0.0  T
   2   -224.6821695 -0.822629E-05  0.705E-02    1.00       1.0  T
   3   -224.6820052  0.164279E-03  0.283E-02    1.01       1.0  T
   4   -224.6821827 -0.177508E-03  0.396E-03    1.01       2.1  T
   5   -224.6821834 -0.639207E-06  0.245E-03    1.01       3.4  T
   6   -224.6821837 -0.329219E-06  0.116E-03    1.01       7.3  T
   7   -224.6821839 -0.203700E-06  0.425E-04    1.01      19.9  T
   8   -224.6821839 -0.195566E-07  0.208E-04    1.01      40.7  T
     SCC iter.                  ...        0 min,  0.187 sec
     gradient                   ...        0 min,  0.258 sec
 * total energy  :  -220.6528712 Eh     change       -0.7717882E-03 Eh
   gradient norm :     0.0086370 Eh/α   predicted    -0.6947499E-03 (  -9.98%)
   displ. norm   :     0.7514362 α      lambda       -0.9435597E-03
   maximum displ.:     0.2839931 α      in ANC's #3, #16, #7, ...

........................................................................
.............................. CYCLE   17 ..............................
........................................................................
   1   -224.6798974 -0.224680E+03  0.118E-01    1.01       0.0  T
   2   -224.6799027 -0.532652E-05  0.688E-02    1.01       1.0  T
   3   -224.6797474  0.155331E-03  0.270E-02    1.02       1.0  T
   4   -224.6799124 -0.165067E-03  0.441E-03    1.01       1.9  T
   5   -224.6799145 -0.202057E-05  0.205E-03    1.01       4.1  T
   6   -224.6799146 -0.132840E-06  0.109E-03    1.01       7.7  T
   7   -224.6799147 -0.140750E-06  0.451E-04    1.01      18.8  T
   8   -224.6799148 -0.242482E-07  0.197E-04    1.01      42.9  T
     SCC iter.                  ...        0 min,  0.187 sec
     gradient                   ...        0 min,  0.253 sec
 * total energy  :  -220.6536541 Eh     change       -0.7828623E-03 Eh
   gradient norm :     0.0084027 Eh/α   predicted    -0.7381720E-03 (  -5.71%)
   displ. norm   :     0.7351365 α      lambda       -0.9599864E-03
   maximum displ.:     0.2903915 α      in ANC's #3, #7, #16, ...

........................................................................
.............................. CYCLE   18 ..............................
........................................................................
   1   -224.6870356 -0.224687E+03  0.115E-01    1.01       0.0  T
   2   -224.6870402 -0.465660E-05  0.668E-02    1.01       1.0  T
   3   -224.6868525  0.187740E-03  0.301E-02    1.02       1.0  T
   4   -224.6870527 -0.200266E-03  0.420E-03    1.01       2.0  T
   5   -224.6870542 -0.146294E-05  0.223E-03    1.01       3.8  T
   6   -224.6870545 -0.263162E-06  0.113E-03    1.01       7.5  T
   7   -224.6870546 -0.143196E-06  0.459E-04    1.01      18.4  T
   8   -224.6870546 -0.266725E-07  0.215E-04    1.01      39.3  T
     SCC iter.                  ...        0 min,  0.182 sec
     gradient                   ...        0 min,  0.250 sec
 * total energy  :  -220.6543951 Eh     change       -0.7409796E-03 Eh
   gradient norm :     0.0127849 Eh/α   predicted    -0.7393930E-03 (  -0.21%)
   displ. norm   :     0.7482953 α      lambda       -0.9904321E-03
   maximum displ.:     0.2939244 α      in ANC's #3, #1, #7, ...

........................................................................
.............................. CYCLE   19 ..............................
........................................................................
   1   -224.6743906 -0.224674E+03  0.115E-01    1.01       0.0  T
   2   -224.6744016 -0.109863E-04  0.671E-02    1.01       1.0  T
   3   -224.6743635  0.381523E-04  0.170E-02    1.01       1.0  T
   4   -224.6744056 -0.421824E-04  0.392E-03    1.01       2.2  T
   5   -224.6744071 -0.147805E-05  0.214E-03    1.01       4.0  T
   6   -224.6744076 -0.448563E-06  0.102E-03    1.01       8.3  T
   7   -224.6744077 -0.962213E-07  0.449E-04    1.01      18.8  T
   8   -224.6744077 -0.258223E-07  0.175E-04    1.01      48.2  T
     SCC iter.                  ...        0 min,  0.180 sec
     gradient                   ...        0 min,  0.251 sec
 * total energy  :  -220.6551283 Eh     change       -0.7332089E-03 Eh
   gradient norm :     0.0132445 Eh/α   predicted    -0.7725071E-03 (   5.36%)
   displ. norm   :     0.6562947 α      lambda       -0.8676983E-03
   maximum displ.:     0.2741011 α      in ANC's #3, #7, #1, ...

........................................................................
.............................. CYCLE   20 ..............................
........................................................................
   1   -224.6770424 -0.224677E+03  0.931E-02    1.01       0.0  T
   2   -224.6770504 -0.797114E-05  0.544E-02    1.01       1.0  T
   3   -224.6770348  0.156301E-04  0.102E-02    1.01       1.0  T
   4   -224.6770521 -0.172935E-04  0.277E-03    1.01       3.0  T
   5   -224.6770530 -0.944237E-06  0.128E-03    1.01       6.6  T
   6   -224.6770531 -0.126683E-06  0.661E-04    1.01      12.8  T
   7   -224.6770532 -0.254942E-07  0.329E-04    1.01      25.7  T
     SCC iter.                  ...        0 min,  0.163 sec
     gradient                   ...        0 min,  0.254 sec
 * total energy  :  -220.6557964 Eh     change       -0.6681382E-03 Eh
   gradient norm :     0.0136975 Eh/α   predicted    -0.6207206E-03 (  -7.10%)
   displ. norm   :     0.6984138 α      lambda       -0.8552009E-03
   maximum displ.:     0.2991853 α      in ANC's #3, #7, #5, ...
 * RMSD in coord.:     0.6903093 α      energy gain  -0.8624636E-01 Eh

generating ANC from model Hessian ...
Using Lindh-Hessian (1995)
 Shifting diagonal of input Hessian by   9.991378977544801E-003
 Lowest  eigenvalues of input Hessian
    0.000000    0.000000    0.000000    0.000000    0.000000    0.000000
    0.010000    0.010006    0.010014    0.010021    0.010037    0.010061
    0.010103    0.010128    0.010144    0.010210    0.010257    0.010319
 Highest eigenvalues
    2.269351    2.272204    2.604574    2.606690    2.647371    2.655688
 

........................................................................
.............................. CYCLE   21 ..............................
........................................................................
   1   -224.6783140 -0.224678E+03  0.980E-02    1.01       0.0  T
   2   -224.6783185 -0.446972E-05  0.574E-02    1.01       1.0  T
   3   -224.6782759  0.426097E-04  0.159E-02    1.01       1.0  T
   4   -224.6783216 -0.457677E-04  0.281E-03    1.01       3.0  T
   5   -224.6783224 -0.784069E-06  0.155E-03    1.01       5.5  T
   6   -224.6783226 -0.209368E-06  0.795E-04    1.01      10.6  T
   7   -224.6783227 -0.774761E-07  0.346E-04    1.01      24.4  T
     SCC iter.                  ...        0 min,  0.161 sec
     gradient                   ...        0 min,  0.253 sec
 * total energy  :  -220.6564845 Eh     change       -0.6880764E-03 Eh
   gradient norm :     0.0101925 Eh/α   predicted     0.0000000E+00 (-100.00%)
   displ. norm   :     0.1570005 α      lambda       -0.4780298E-03
   maximum displ.:     0.0793674 α      in ANC's #2, #16, #30, ...

........................................................................
.............................. CYCLE   22 ..............................
........................................................................
   1   -224.6803959 -0.224680E+03  0.958E-02    1.01       0.0  T
   2   -224.6804112 -0.153216E-04  0.531E-02    1.01       1.0  T
   3   -224.6803910  0.201677E-04  0.121E-02    1.01       1.0  T
   4   -224.6804184 -0.273722E-04  0.267E-03    1.01       3.2  T
   5   -224.6804187 -0.285467E-06  0.160E-03    1.01       5.3  T
   6   -224.6804189 -0.213306E-06  0.526E-04    1.01      16.1  T
   7   -224.6804189 -0.373840E-07  0.198E-04    1.01      42.7  T
     SCC iter.                  ...        0 min,  0.164 sec
     gradient                   ...        0 min,  0.253 sec
 * total energy  :  -220.6566294 Eh     change       -0.1448808E-03 Eh
   gradient norm :     0.0083728 Eh/α   predicted    -0.2449155E-03 (  69.05%)
   displ. norm   :     0.2437618 α      lambda       -0.7518333E-03
   maximum displ.:     0.1322832 α      in ANC's #2, #17, #46, ...

........................................................................
.............................. CYCLE   23 ..............................
........................................................................
   1   -224.6873396 -0.224687E+03  0.756E-02    1.01       0.0  T
   2   -224.6873456 -0.598592E-05  0.434E-02    1.01       1.0  T
   3   -224.6873062  0.394601E-04  0.158E-02    1.01       1.0  T
   4   -224.6873500 -0.437954E-04  0.300E-03    1.01       2.8  T
   5   -224.6873506 -0.643385E-06  0.166E-03    1.01       5.1  T
   6   -224.6873507 -0.105298E-06  0.802E-04    1.01      10.5  T
   7   -224.6873508 -0.991811E-07  0.283E-04    1.01      29.9  T
     SCC iter.                  ...        0 min,  0.164 sec
     gradient                   ...        0 min,  0.252 sec
 * total energy  :  -220.6569833 Eh     change       -0.3539005E-03 Eh
   gradient norm :     0.0155906 Eh/α   predicted    -0.3982570E-03 (  12.53%)
   displ. norm   :     0.1975141 α      lambda       -0.4181857E-03
   maximum displ.:     0.1114776 α      in ANC's #2, #3, #46, ...

........................................................................
.............................. CYCLE   24 ..............................
........................................................................
   1   -224.6870083 -0.224687E+03  0.708E-02    1.01       0.0  T
   2   -224.6870147 -0.636471E-05  0.399E-02    1.02       1.0  T
   3   -224.6869686  0.460454E-04  0.158E-02    1.01       1.0  T
   4   -224.6870201 -0.515254E-04  0.209E-03    1.01       4.0  T
   5   -224.6870202 -0.929055E-07  0.134E-03    1.01       6.3  T
   6   -224.6870204 -0.141229E-06  0.517E-04    1.01      16.4  T
   7   -224.6870204 -0.198290E-07  0.289E-04    1.01      29.2  T
     SCC iter.                  ...        0 min,  0.176 sec
     gradient                   ...        0 min,  0.254 sec
 * total energy  :  -220.6571867 Eh     change       -0.2034542E-03 Eh
   gradient norm :     0.0083782 Eh/α   predicted    -0.2172503E-03 (   6.78%)
   displ. norm   :     0.3147460 α      lambda       -0.6255069E-03
   maximum displ.:     0.1929537 α      in ANC's #2, #3, #17, ...

........................................................................
.............................. CYCLE   25 ..............................
........................................................................
   1   -224.6824889 -0.224682E+03  0.825E-02    1.01       0.0  T
   2   -224.6824942 -0.522649E-05  0.474E-02    1.02       1.0  T
   3   -224.6823631  0.131009E-03  0.257E-02    1.01       1.0  T
   4   -224.6825050 -0.141816E-03  0.350E-03    1.01       2.4  T
   5   -224.6825059 -0.929553E-06  0.190E-03    1.01       4.5  T
   6   -224.6825061 -0.174263E-06  0.859E-04    1.01       9.8  T
   7   -224.6825062 -0.803741E-07  0.438E-04    1.01      19.3  T
     SCC iter.                  ...        0 min,  0.163 sec
     gradient                   ...        0 min,  0.253 sec
 * total energy  :  -220.6574989 Eh     change       -0.3122084E-03 Eh
   gradient norm :     0.0146999 Eh/α   predicted    -0.3437378E-03 (  10.10%)
   displ. norm   :     0.3093909 α      lambda       -0.4989799E-03
   maximum displ.:     0.1886594 α      in ANC's #2, #3, #17, ...

........................................................................
.............................. CYCLE   26 ..............................
........................................................................
   1   -224.6815200 -0.224682E+03  0.774E-02    1.01       0.0  T
   2   -224.6815266 -0.665070E-05  0.442E-02    1.01       1.0  T
   3   -224.6814601  0.665346E-04  0.181E-02    1.01       1.0  T
   4   -224.6815330 -0.729418E-04  0.270E-03    1.01       3.1  T
   5   -224.6815334 -0.402191E-06  0.156E-03    1.01       5.4  T
   6   -224.6815335 -0.116945E-06  0.731E-04    1.01      11.6  T
   7   -224.6815336 -0.619533E-07  0.317E-04    1.01      26.7  T
     SCC iter.                  ...        0 min,  0.167 sec
     gradient                   ...        0 min,  0.252 sec
 * total energy  :  -220.6577729 Eh     change       -0.2739810E-03 Eh
   gradient norm :     0.0129287 Eh/α   predicted    -0.2733719E-03 (  -0.22%)
   displ. norm   :     0.3356350 α      lambda       -0.4581102E-03
   maximum displ.:     0.2129763 α      in ANC's #2, #3, #17, ...

........................................................................
.............................. CYCLE   27 ..............................
........................................................................
   1   -224.6825837 -0.224683E+03  0.699E-02    1.01       0.0  T
   2   -224.6825889 -0.517717E-05  0.401E-02    1.01       1.0  T
   3   -224.6825568  0.320622E-04  0.129E-02    1.01       1.0  T
   4   -224.6825919 -0.350591E-04  0.289E-03    1.01       2.9  T
   5   -224.6825928 -0.899470E-06  0.147E-03    1.01       5.8  T
   6   -224.6825929 -0.907805E-07  0.697E-04    1.01      12.1  T
   7   -224.6825930 -0.669600E-07  0.237E-04    1.01      35.7  T
     SCC iter.                  ...        0 min,  0.162 sec
     gradient                   ...        0 min,  0.251 sec
 * total energy  :  -220.6581000 Eh     change       -0.3270587E-03 Eh
   gradient norm :     0.0071187 Eh/α   predicted    -0.2548631E-03 ( -22.07%)
   displ. norm   :     0.3868496 α      lambda       -0.3673093E-03
   maximum displ.:     0.2456806 α      in ANC's #2, #3, #1, ...

........................................................................
.............................. CYCLE   28 ..............................
........................................................................
   1   -224.6861003 -0.224686E+03  0.614E-02    1.01       0.0  T
   2   -224.6861028 -0.251982E-05  0.357E-02    1.01       1.0  T
   3   -224.6860966  0.616572E-05  0.625E-03    1.01       1.4  T
   4   -224.6861037 -0.702382E-05  0.195E-03    1.01       4.3  T
   5   -224.6861040 -0.375576E-06  0.105E-03    1.01       8.1  T
   6   -224.6861041 -0.806916E-07  0.416E-04    1.01      20.3  T
   7   -224.6861041 -0.162810E-07  0.166E-04    1.01      50.9  T
     SCC iter.                  ...        0 min,  0.161 sec
     gradient                   ...        0 min,  0.251 sec
 * total energy  :  -220.6584186 Eh     change       -0.3186104E-03 Eh
   gradient norm :     0.0080151 Eh/α   predicted    -0.2111421E-03 ( -33.73%)
   displ. norm   :     0.5403351 α      lambda       -0.4759856E-03
   maximum displ.:     0.3390941 α      in ANC's #2, #3, #1, ...

........................................................................
.............................. CYCLE   29 ..............................
........................................................................
   1   -224.6882109 -0.224688E+03  0.845E-02    1.01       0.0  T
   2   -224.6882153 -0.448089E-05  0.489E-02    1.01       1.0  T
   3   -224.6882010  0.143825E-04  0.980E-03    1.01       1.0  T
   4   -224.6882173 -0.163553E-04  0.264E-03    1.01       3.2  T
   5   -224.6882178 -0.455457E-06  0.160E-03    1.01       5.3  T
   6   -224.6882180 -0.239776E-06  0.663E-04    1.01      12.8  T
   7   -224.6882181 -0.638354E-07  0.240E-04    1.01      35.2  T
     SCC iter.                  ...        0 min,  0.161 sec
     gradient                   ...        0 min,  0.255 sec
 * total energy  :  -220.6588367 Eh     change       -0.4180825E-03 Eh
   gradient norm :     0.0055023 Eh/α   predicted    -0.3074831E-03 ( -26.45%)
   displ. norm   :     0.6461139 α      lambda       -0.5605000E-03
   maximum displ.:     0.4060432 α      in ANC's #2, #3, #1, ...

........................................................................
.............................. CYCLE   30 ..............................
........................................................................
   1   -224.6895815 -0.224690E+03  0.952E-02    1.02       0.0  T
   2   -224.6895863 -0.478990E-05  0.554E-02    1.01       1.0  T
   3   -224.6895597  0.266162E-04  0.121E-02    1.02       1.0  T
   4   -224.6895885 -0.287769E-04  0.303E-03    1.01       2.8  T
   5   -224.6895894 -0.935984E-06  0.164E-03    1.02       5.1  T
   6   -224.6895897 -0.226152E-06  0.654E-04    1.02      12.9  T
   7   -224.6895897 -0.479206E-07  0.289E-04    1.02      29.2  T
     SCC iter.                  ...        0 min,  0.172 sec
     gradient                   ...        0 min,  0.260 sec
 * total energy  :  -220.6592868 Eh     change       -0.4501086E-03 Eh
   gradient norm :     0.0090375 Eh/α   predicted    -0.3972459E-03 ( -11.74%)
   displ. norm   :     0.6334068 α      lambda       -0.5532926E-03
   maximum displ.:     0.4002010 α      in ANC's #2, #3, #1, ...

........................................................................
.............................. CYCLE   31 ..............................
........................................................................
   1   -224.6865029 -0.224687E+03  0.101E-01    1.02       0.0  T
   2   -224.6865103 -0.740320E-05  0.579E-02    1.02       1.0  T
   3   -224.6864821  0.282491E-04  0.122E-02    1.02       1.0  T
   4   -224.6865138 -0.317143E-04  0.337E-03    1.02       2.5  T
   5   -224.6865147 -0.927109E-06  0.185E-03    1.02       4.6  T
   6   -224.6865149 -0.227743E-06  0.686E-04    1.02      12.3  T
   7   -224.6865150 -0.694845E-07  0.258E-04    1.02      32.7  T
     SCC iter.                  ...        0 min,  0.170 sec
     gradient                   ...        0 min,  0.258 sec
 * total energy  :  -220.6597712 Eh     change       -0.4844440E-03 Eh
   gradient norm :     0.0057189 Eh/α   predicted    -0.3876439E-03 ( -19.98%)
   displ. norm   :     0.6263384 α      lambda       -0.5075605E-03
   maximum displ.:     0.4016272 α      in ANC's #2, #3, #1, ...

........................................................................
.............................. CYCLE   32 ..............................
........................................................................
   1   -224.6863128 -0.224686E+03  0.927E-02    1.02       0.0  T
   2   -224.6863177 -0.495341E-05  0.536E-02    1.02       1.0  T
   3   -224.6862783  0.394544E-04  0.138E-02    1.02       1.0  T
   4   -224.6863215 -0.431618E-04  0.298E-03    1.02       2.8  T
   5   -224.6863221 -0.671531E-06  0.161E-03    1.02       5.2  T
   6   -224.6863222 -0.111633E-06  0.634E-04    1.02      13.3  T
   7   -224.6863223 -0.699347E-07  0.212E-04    1.02      39.8  T
     SCC iter.                  ...        0 min,  0.161 sec
     gradient                   ...        0 min,  0.251 sec
 * total energy  :  -220.6602296 Eh     change       -0.4584192E-03 Eh
   gradient norm :     0.0058634 Eh/α   predicted    -0.3533386E-03 ( -22.92%)
   displ. norm   :     0.6460947 α      lambda       -0.5111502E-03
   maximum displ.:     0.4197614 α      in ANC's #2, #3, #1, ...

........................................................................
.............................. CYCLE   33 ..............................
........................................................................
   1   -224.6857278 -0.224686E+03  0.930E-02    1.02       0.0  T
   2   -224.6857328 -0.499606E-05  0.538E-02    1.02       1.0  T
   3   -224.6857073  0.254953E-04  0.114E-02    1.02       1.0  T
   4   -224.6857356 -0.282949E-04  0.289E-03    1.02       2.9  T
   5   -224.6857362 -0.637866E-06  0.168E-03    1.02       5.0  T
   6   -224.6857364 -0.208715E-06  0.556E-04    1.02      15.2  T
   7   -224.6857365 -0.482948E-07  0.221E-04    1.02      38.3  T
     SCC iter.                  ...        0 min,  0.160 sec
     gradient                   ...        0 min,  0.251 sec
 * total energy  :  -220.6606918 Eh     change       -0.4621462E-03 Eh
   gradient norm :     0.0047272 Eh/α   predicted    -0.3622625E-03 ( -21.61%)
   displ. norm   :     0.6752854 α      lambda       -0.5097543E-03
   maximum displ.:     0.4428147 α      in ANC's #2, #3, #1, ...

........................................................................
.............................. CYCLE   34 ..............................
........................................................................
   1   -224.6863676 -0.224686E+03  0.967E-02    1.02       0.0  T
   2   -224.6863731 -0.547205E-05  0.560E-02    1.02       1.0  T
   3   -224.6863570  0.161230E-04  0.975E-03    1.03       1.0  T
   4   -224.6863754 -0.184605E-04  0.291E-03    1.02       2.9  T
   5   -224.6863760 -0.607166E-06  0.179E-03    1.02       4.7  T
   6   -224.6863763 -0.307377E-06  0.564E-04    1.02      15.0  T
   7   -224.6863764 -0.476106E-07  0.217E-04    1.02      39.0  T
     SCC iter.                  ...        0 min,  0.160 sec
     gradient                   ...        0 min,  0.253 sec
 * total energy  :  -220.6611520 Eh     change       -0.4602283E-03 Eh
   gradient norm :     0.0043084 Eh/α   predicted    -0.3711056E-03 ( -19.36%)
   displ. norm   :     0.6986189 α      lambda       -0.5044895E-03
   maximum displ.:     0.4622853 α      in ANC's #2, #3, #1, ...

........................................................................
.............................. CYCLE   35 ..............................
........................................................................
   1   -224.6853900 -0.224685E+03  0.961E-02    1.02       0.0  T
   2   -224.6853953 -0.533171E-05  0.556E-02    1.02       1.0  T
   3   -224.6853877  0.764377E-05  0.789E-03    1.02       1.1  T
   4   -224.6853974 -0.971282E-05  0.266E-03    1.02       3.2  T
   5   -224.6853976 -0.201319E-06  0.174E-03    1.02       4.8  T
   6   -224.6853980 -0.401734E-06  0.481E-04    1.02      17.6  T
   7   -224.6853980 -0.322249E-07  0.209E-04    1.02      40.5  T
     SCC iter.                  ...        0 min,  0.166 sec
     gradient                   ...        0 min,  0.251 sec
 * total energy  :  -220.6616164 Eh     change       -0.4644462E-03 Eh
   gradient norm :     0.0048461 Eh/α   predicted    -0.3753607E-03 ( -19.18%)
   displ. norm   :     0.7246868 α      lambda       -0.5285175E-03
   maximum displ.:     0.4830705 α      in ANC's #2, #3, #1, ...

........................................................................
.............................. CYCLE   36 ..............................
........................................................................
   1   -224.6859040 -0.224686E+03  0.964E-02    1.02       0.0  T
   2   -224.6859093 -0.527592E-05  0.559E-02    1.02       1.0  T
   3   -224.6858971  0.121506E-04  0.919E-03    1.02       1.0  T
   4   -224.6859116 -0.145088E-04  0.267E-03    1.02       3.2  T
   5   -224.6859119 -0.276068E-06  0.166E-03    1.02       5.1  T
   6   -224.6859122 -0.305961E-06  0.496E-04    1.02      17.1  T
   7   -224.6859122 -0.334635E-07  0.205E-04    1.02      41.2  T
     SCC iter.                  ...        0 min,  0.165 sec
     gradient                   ...        0 min,  0.252 sec
 * total energy  :  -220.6621117 Eh     change       -0.4952748E-03 Eh
   gradient norm :     0.0058740 Eh/α   predicted    -0.4030425E-03 ( -18.62%)
   displ. norm   :     0.7695677 α      lambda       -0.5907223E-03
   maximum displ.:     0.5132901 α      in ANC's #2, #3, #1, ...

........................................................................
.............................. CYCLE   37 ..............................
........................................................................
   1   -224.6872250 -0.224687E+03  0.992E-02    1.02       0.0  T
   2   -224.6872299 -0.482353E-05  0.576E-02    1.02       1.0  T
   3   -224.6871932  0.366962E-04  0.143E-02    1.02       1.0  T
   4   -224.6872337 -0.405290E-04  0.272E-03    1.02       3.1  T
   5   -224.6872339 -0.208630E-06  0.177E-03    1.02       4.8  T
   6   -224.6872342 -0.318127E-06  0.523E-04    1.02      16.2  T
   7   -224.6872343 -0.308713E-07  0.224E-04    1.02      37.8  T
     SCC iter.                  ...        0 min,  0.158 sec
     gradient                   ...        0 min,  0.252 sec
 * total energy  :  -220.6626524 Eh     change       -0.5406288E-03 Eh
   gradient norm :     0.0067017 Eh/α   predicted    -0.4702867E-03 ( -13.01%)
   displ. norm   :     0.8360141 α      lambda       -0.6815842E-03
   maximum displ.:     0.5665495 α      in ANC's #2, #1, #3, ...

........................................................................
.............................. CYCLE   38 ..............................
........................................................................
   1   -224.6863156 -0.224686E+03  0.114E-01    1.02       0.0  T
   2   -224.6863258 -0.101352E-04  0.655E-02    1.02       1.0  T
   3   -224.6862842  0.415308E-04  0.155E-02    1.02       1.0  T
   4   -224.6863315 -0.472643E-04  0.373E-03    1.02       2.3  T
   5   -224.6863321 -0.616374E-06  0.234E-03    1.02       3.6  T
   6   -224.6863326 -0.484495E-06  0.731E-04    1.02      11.6  T
   7   -224.6863327 -0.714626E-07  0.263E-04    1.02      32.2  T
     SCC iter.                  ...        0 min,  0.164 sec
     gradient                   ...        0 min,  0.254 sec
 * total energy  :  -220.6632459 Eh     change       -0.5935338E-03 Eh
   gradient norm :     0.0084787 Eh/α   predicted    -0.5789793E-03 (  -2.45%)
   displ. norm   :     0.8406806 α      lambda       -0.6482160E-03
   maximum displ.:     0.5701469 α      in ANC's #2, #1, #3, ...

........................................................................
.............................. CYCLE   39 ..............................
........................................................................
   1   -224.6904368 -0.224690E+03  0.101E-01    1.02       0.0  T
   2   -224.6904409 -0.411315E-05  0.590E-02    1.02       1.0  T
   3   -224.6903837  0.571785E-04  0.172E-02    1.02       1.0  T
   4   -224.6904456 -0.619038E-04  0.286E-03    1.02       3.0  T
   5   -224.6904462 -0.514975E-06  0.173E-03    1.02       4.9  T
   6   -224.6904464 -0.204691E-06  0.710E-04    1.02      11.9  T
   7   -224.6904464 -0.703427E-07  0.249E-04    1.02      34.0  T
     SCC iter.                  ...        0 min,  0.159 sec
     gradient                   ...        0 min,  0.250 sec
 * total energy  :  -220.6638046 Eh     change       -0.5587007E-03 Eh
   gradient norm :     0.0097052 Eh/α   predicted    -0.5531752E-03 (  -0.99%)
   displ. norm   :     0.8280422 α      lambda       -0.6373022E-03
   maximum displ.:     0.5664623 α      in ANC's #2, #1, #3, ...

........................................................................
.............................. CYCLE   40 ..............................
........................................................................
   1   -224.6876708 -0.224688E+03  0.115E-01    1.02       0.0  T
   2   -224.6876822 -0.114181E-04  0.661E-02    1.02       1.0  T
   3   -224.6876296  0.525665E-04  0.178E-02    1.02       1.0  T
   4   -224.6876891 -0.595148E-04  0.375E-03    1.02       2.3  T
   5   -224.6876894 -0.327500E-06  0.257E-03    1.02       3.3  T
   6   -224.6876903 -0.823581E-06  0.683E-04    1.02      12.4  T
   7   -224.6876903 -0.512730E-07  0.290E-04    1.02      29.2  T
     SCC iter.                  ...        0 min,  0.160 sec
     gradient                   ...        0 min,  0.252 sec
 * total energy  :  -220.6643142 Eh     change       -0.5096265E-03 Eh
   gradient norm :     0.0105900 Eh/α   predicted    -0.5371386E-03 (   5.40%)
   displ. norm   :     0.7932942 α      lambda       -0.5575885E-03
   maximum displ.:     0.5451412 α      in ANC's #2, #1, #3, ...

........................................................................
.............................. CYCLE   41 ..............................
........................................................................
   1   -224.6898898 -0.224690E+03  0.966E-02    1.02       0.0  T
   2   -224.6898951 -0.527600E-05  0.560E-02    1.02       1.0  T
   3   -224.6898663  0.288171E-04  0.130E-02    1.02       1.0  T
   4   -224.6898986 -0.322962E-04  0.258E-03    1.02       3.3  T
   5   -224.6898986 -0.251211E-07  0.189E-03    1.02       4.5  T
   6   -224.6898990 -0.435462E-06  0.652E-04    1.02      13.0  T
   7   -224.6898991 -0.538971E-07  0.261E-04    1.02      32.4  T
     SCC iter.                  ...        0 min,  0.161 sec
     gradient                   ...        0 min,  0.252 sec
 * total energy  :  -220.6648078 Eh     change       -0.4935563E-03 Eh
   gradient norm :     0.0074296 Eh/α   predicted    -0.4542503E-03 (  -7.96%)
   displ. norm   :     0.7777871 α      lambda       -0.6039024E-03
   maximum displ.:     0.5309398 α      in ANC's #2, #1, #3, ...

........................................................................
.............................. CYCLE   42 ..............................
........................................................................
   1   -224.6972679 -0.224697E+03  0.984E-02    1.03       0.0  T
   2   -224.6972760 -0.813277E-05  0.567E-02    1.03       1.0  T
   3   -224.6972585  0.175127E-04  0.117E-02    1.03       1.0  T
   4   -224.6972798 -0.213067E-04  0.277E-03    1.03       3.0  T
   5   -224.6972801 -0.261845E-06  0.150E-03    1.03       5.6  T
   6   -224.6972802 -0.145042E-06  0.713E-04    1.03      11.8  T
   7   -224.6972803 -0.649480E-07  0.283E-04    1.03      29.9  T
     SCC iter.                  ...        0 min,  0.160 sec
     gradient                   ...        0 min,  0.252 sec
 * total energy  :  -220.6652931 Eh     change       -0.4853257E-03 Eh
   gradient norm :     0.0095098 Eh/α   predicted    -0.4846209E-03 (  -0.15%)
   displ. norm   :     0.8196247 α      lambda       -0.6233215E-03
   maximum displ.:     0.5596827 α      in ANC's #2, #1, #3, ...
 * RMSD in coord.:     1.0115831 α      energy gain  -0.9496692E-02 Eh

generating ANC from model Hessian ...
Using Lindh-Hessian (1995)
 Shifting diagonal of input Hessian by   1.000856297654529E-002
 Lowest  eigenvalues of input Hessian
    0.010000    0.000000    0.000000    0.000000    0.000000    0.000000
    0.000000    0.010013    0.010020    0.010039    0.010046    0.010081
    0.010119    0.010148    0.010172    0.010237    0.010295    0.010321
 Highest eigenvalues
    2.266903    2.272165    2.608453    2.612917    2.646535    2.652336
 

........................................................................
.............................. CYCLE   43 ..............................
........................................................................
   1   -224.6914235 -0.224691E+03  0.101E-01    1.03       0.0  T
   2   -224.6914301 -0.669249E-05  0.588E-02    1.03       1.0  T
   3   -224.6914105  0.196802E-04  0.115E-02    1.03       1.0  T
   4   -224.6914330 -0.224987E-04  0.293E-03    1.03       2.9  T
   5   -224.6914334 -0.430549E-06  0.183E-03    1.03       4.6  T
   6   -224.6914338 -0.368793E-06  0.769E-04    1.03      11.0  T
   7   -224.6914338 -0.796185E-07  0.275E-04    1.03      30.8  T
     SCC iter.                  ...        0 min,  0.159 sec
     gradient                   ...        0 min,  0.251 sec
 * total energy  :  -220.6658141 Eh     change       -0.5209887E-03 Eh
   gradient norm :     0.0089973 Eh/α   predicted     0.0000000E+00 (-100.00%)
   displ. norm   :     0.1096012 α      lambda       -0.2322190E-03
   maximum displ.:     0.0496001 α      in ANC's #3, #15, #1, ...

........................................................................
.............................. CYCLE   44 ..............................
........................................................................
   1   -224.6925929 -0.224693E+03  0.818E-02    1.03       0.0  T
   2   -224.6926041 -0.111856E-04  0.451E-02    1.03       1.0  T
   3   -224.6926019  0.225471E-05  0.677E-03    1.03       1.2  T
   4   -224.6926085 -0.661192E-05  0.195E-03    1.03       4.3  T
   5   -224.6926085 -0.291087E-07  0.136E-03    1.03       6.2  T
   6   -224.6926088 -0.275637E-06  0.339E-04    1.03      24.9  T
   7   -224.6926088 -0.132001E-07  0.134E-04    1.03      63.3  T
     SCC iter.                  ...        0 min,  0.163 sec
     gradient                   ...        0 min,  0.250 sec
 * total energy  :  -220.6658372 Eh     change       -0.2313402E-04 Eh
   gradient norm :     0.0071361 Eh/α   predicted    -0.1175070E-03 ( 407.94%)
   displ. norm   :     0.1305928 α      lambda       -0.3534463E-03
   maximum displ.:     0.0661951 α      in ANC's #3, #2, #33, ...

........................................................................
.............................. CYCLE   45 ..............................
........................................................................
   1   -224.6966265 -0.224697E+03  0.454E-02    1.03       0.0  T
   2   -224.6966292 -0.265259E-05  0.256E-02    1.03       1.0  T
   3   -224.6966238  0.538092E-05  0.643E-03    1.03       1.3  T
   4   -224.6966304 -0.660771E-05  0.159E-03    1.03       5.3  T
   5   -224.6966305 -0.125820E-06  0.990E-04    1.03       8.5  T
   6   -224.6966306 -0.733372E-07  0.402E-04    1.03      21.0  T
     SCC iter.                  ...        0 min,  0.140 sec
     gradient                   ...        0 min,  0.250 sec
 * total energy  :  -220.6659875 Eh     change       -0.1503166E-03 Eh
   gradient norm :     0.0106173 Eh/α   predicted    -0.1797390E-03 (  19.57%)
   displ. norm   :     0.1085563 α      lambda       -0.1785199E-03
   maximum displ.:     0.0555062 α      in ANC's #3, #2, #1, ...

........................................................................
.............................. CYCLE   46 ..............................
........................................................................
   1   -224.6958508 -0.224696E+03  0.449E-02    1.03       0.0  T
   2   -224.6958544 -0.363374E-05  0.250E-02    1.03       1.0  T
   3   -224.6958494  0.504676E-05  0.617E-03    1.03       1.4  T
   4   -224.6958560 -0.663119E-05  0.124E-03    1.03       6.8  T
   5   -224.6958560 -0.374191E-07  0.860E-04    1.03       9.8  T
   6   -224.6958561 -0.797572E-07  0.286E-04    1.03      29.5  T
     SCC iter.                  ...        0 min,  0.145 sec
     gradient                   ...        0 min,  0.251 sec
 * total energy  :  -220.6660638 Eh     change       -0.7628747E-04 Eh
   gradient norm :     0.0043941 Eh/α   predicted    -0.9031219E-04 (  18.38%)
   displ. norm   :     0.1846056 α      lambda       -0.2449873E-03
   maximum displ.:     0.1120179 α      in ANC's #3, #2, #1, ...

........................................................................
.............................. CYCLE   47 ..............................
........................................................................
   1   -224.6934987 -0.224693E+03  0.539E-02    1.03       0.0  T
   2   -224.6935032 -0.452040E-05  0.303E-02    1.03       1.0  T
   3   -224.6934990  0.428529E-05  0.667E-03    1.03       1.3  T
   4   -224.6935052 -0.619984E-05  0.152E-03    1.03       5.5  T
   5   -224.6935052 -0.387882E-08  0.106E-03    1.03       8.0  T
   6   -224.6935053 -0.130361E-06  0.396E-04    1.03      21.3  T
   7   -224.6935053 -0.223519E-07  0.157E-04    1.03      54.0  T
     SCC iter.                  ...        0 min,  0.162 sec
     gradient                   ...        0 min,  0.252 sec
 * total energy  :  -220.6661666 Eh     change       -0.1027785E-03 Eh
   gradient norm :     0.0120860 Eh/α   predicted    -0.1266727E-03 (  23.25%)
   displ. norm   :     0.2424513 α      lambda       -0.2882219E-03
   maximum displ.:     0.1334423 α      in ANC's #3, #2, #1, ...

........................................................................
.............................. CYCLE   48 ..............................
........................................................................
   1   -224.6910648 -0.224691E+03  0.690E-02    1.02       0.0  T
   2   -224.6910705 -0.572563E-05  0.386E-02    1.03       1.0  T
   3   -224.6910685  0.204158E-05  0.503E-03    1.02       1.7  T
   4   -224.6910725 -0.404337E-05  0.195E-03    1.03       4.3  T
   5   -224.6910727 -0.247032E-06  0.109E-03    1.03       7.7  T
   6   -224.6910729 -0.140966E-06  0.358E-04    1.03      23.6  T
   7   -224.6910729 -0.141258E-07  0.157E-04    1.03      53.7  T
     SCC iter.                  ...        0 min,  0.166 sec
     gradient                   ...        0 min,  0.252 sec
 * total energy  :  -220.6663011 Eh     change       -0.1344808E-03 Eh
   gradient norm :     0.0110256 Eh/α   predicted    -0.1525830E-03 (  13.46%)
   displ. norm   :     0.2943338 α      lambda       -0.2816951E-03
   maximum displ.:     0.1718817 α      in ANC's #3, #2, #1, ...

........................................................................
.............................. CYCLE   49 ..............................
........................................................................
   1   -224.6897856 -0.224690E+03  0.560E-02    1.02       0.0  T
   2   -224.6897894 -0.375986E-05  0.318E-02    1.02       1.0  T
   3   -224.6897843  0.511087E-05  0.695E-03    1.02       1.2  T
   4   -224.6897910 -0.675180E-05  0.175E-03    1.02       4.8  T
   5   -224.6897910  0.143523E-07  0.125E-03    1.02       6.8  T
   6   -224.6897912 -0.201087E-06  0.354E-04    1.02      23.9  T
   7   -224.6897912 -0.140251E-07  0.144E-04    1.02      58.9  T
     SCC iter.                  ...        0 min,  0.162 sec
     gradient                   ...        0 min,  0.250 sec
 * total energy  :  -220.6665081 Eh     change       -0.2070218E-03 Eh
   gradient norm :     0.0050734 Eh/α   predicted    -0.1530503E-03 ( -26.07%)
   displ. norm   :     0.4000990 α      lambda       -0.2429873E-03
   maximum displ.:     0.2344058 α      in ANC's #3, #2, #1, ...

........................................................................
.............................. CYCLE   50 ..............................
........................................................................
   1   -224.6901670 -0.224690E+03  0.613E-02    1.03       0.0  T
   2   -224.6901697 -0.271423E-05  0.353E-02    1.03       1.0  T
   3   -224.6901589  0.107665E-04  0.806E-03    1.03       1.0  T
   4   -224.6901712 -0.122669E-04  0.185E-03    1.03       4.6  T
   5   -224.6901713 -0.114335E-06  0.120E-03    1.03       7.1  T
   6   -224.6901715 -0.149383E-06  0.297E-04    1.03      28.4  T
   7   -224.6901715 -0.104044E-07  0.137E-04    1.03      61.7  T
     SCC iter.                  ...        0 min,  0.165 sec
     gradient                   ...        0 min,  0.259 sec
 * total energy  :  -220.6667152 Eh     change       -0.2070508E-03 Eh
   gradient norm :     0.0064532 Eh/α   predicted    -0.1409435E-03 ( -31.93%)
   displ. norm   :     0.5010538 α      lambda       -0.2899940E-03
   maximum displ.:     0.2945239 α      in ANC's #3, #2, #1, ...

........................................................................
.............................. CYCLE   51 ..............................
........................................................................
   1   -224.6906546 -0.224691E+03  0.805E-02    1.03       0.0  T
   2   -224.6906603 -0.569841E-05  0.460E-02    1.03       1.0  T
   3   -224.6906500  0.103125E-04  0.814E-03    1.03       1.0  T
   4   -224.6906629 -0.128504E-04  0.237E-03    1.03       3.6  T
   5   -224.6906631 -0.218508E-06  0.129E-03    1.03       6.5  T
   6   -224.6906633 -0.174050E-06  0.367E-04    1.03      23.0  T
   7   -224.6906633 -0.177484E-07  0.156E-04    1.03      54.2  T
     SCC iter.                  ...        0 min,  0.167 sec
     gradient                   ...        0 min,  0.259 sec
 * total energy  :  -220.6669605 Eh     change       -0.2453425E-03 Eh
   gradient norm :     0.0054039 Eh/α   predicted    -0.1814036E-03 ( -26.06%)
   displ. norm   :     0.5927836 α      lambda       -0.3762534E-03
   maximum displ.:     0.3494093 α      in ANC's #3, #2, #1, ...

........................................................................
.............................. CYCLE   52 ..............................
........................................................................
   1   -224.6935371 -0.224694E+03  0.776E-02    1.03       0.0  T
   2   -224.6935401 -0.298245E-05  0.450E-02    1.03       1.0  T
   3   -224.6935221  0.180356E-04  0.964E-03    1.03       1.0  T
   4   -224.6935419 -0.197741E-04  0.211E-03    1.03       4.0  T
   5   -224.6935422 -0.318571E-06  0.115E-03    1.03       7.3  T
   6   -224.6935423 -0.953939E-07  0.462E-04    1.03      18.3  T
   7   -224.6935423 -0.246486E-07  0.192E-04    1.03      44.0  T
     SCC iter.                  ...        0 min,  0.166 sec
     gradient                   ...        0 min,  0.254 sec
 * total energy  :  -220.6672843 Eh     change       -0.3238121E-03 Eh
   gradient norm :     0.0053410 Eh/α   predicted    -0.2542355E-03 ( -21.49%)
   displ. norm   :     0.6764952 α      lambda       -0.4088777E-03
   maximum displ.:     0.4011695 α      in ANC's #3, #2, #1, ...

........................................................................
.............................. CYCLE   53 ..............................
........................................................................
   1   -224.6942880 -0.224694E+03  0.881E-02    1.03       0.0  T
   2   -224.6942928 -0.484377E-05  0.510E-02    1.03       1.0  T
   3   -224.6942895  0.331556E-05  0.612E-03    1.03       1.4  T
   4   -224.6942947 -0.522888E-05  0.217E-03    1.03       3.9  T
   5   -224.6942948 -0.841621E-07  0.131E-03    1.03       6.4  T
   6   -224.6942950 -0.214905E-06  0.445E-04    1.03      19.0  T
   7   -224.6942950 -0.278661E-07  0.160E-04    1.03      52.7  T
     SCC iter.                  ...        0 min,  0.161 sec
     gradient                   ...        0 min,  0.246 sec
 * total energy  :  -220.6676663 Eh     change       -0.3820119E-03 Eh
   gradient norm :     0.0059209 Eh/α   predicted    -0.2980008E-03 ( -21.99%)
   displ. norm   :     0.7494538 α      lambda       -0.4924776E-03
   maximum displ.:     0.4471393 α      in ANC's #3, #2, #1, ...

........................................................................
.............................. CYCLE   54 ..............................
........................................................................
   1   -224.6951076 -0.224695E+03  0.973E-02    1.03       0.0  T
   2   -224.6951139 -0.620818E-05  0.562E-02    1.03       1.0  T
   3   -224.6950937  0.201643E-04  0.116E-02    1.03       1.0  T
   4   -224.6951171 -0.234316E-04  0.282E-03    1.03       3.0  T
   5   -224.6951172 -0.958770E-07  0.207E-03    1.03       4.1  T
   6   -224.6951178 -0.596677E-06  0.457E-04    1.03      18.5  T
   7   -224.6951178 -0.215408E-07  0.200E-04    1.03      42.3  T
     SCC iter.                  ...        0 min,  0.162 sec
     gradient                   ...        0 min,  0.248 sec
 * total energy  :  -220.6681224 Eh     change       -0.4560569E-03 Eh
   gradient norm :     0.0053985 Eh/α   predicted    -0.3845555E-03 ( -15.68%)
   displ. norm   :     0.8070842 α      lambda       -0.5261592E-03
   maximum displ.:     0.4818153 α      in ANC's #3, #2, #1, ...

........................................................................
.............................. CYCLE   55 ..............................
........................................................................
   1   -224.6945471 -0.224695E+03  0.102E-01    1.03       0.0  T
   2   -224.6945528 -0.575788E-05  0.590E-02    1.03       1.0  T
   3   -224.6945033  0.494954E-04  0.163E-02    1.03       1.0  T
   4   -224.6945576 -0.542700E-04  0.315E-03    1.03       2.7  T
   5   -224.6945581 -0.465753E-06  0.205E-03    1.03       4.1  T
   6   -224.6945585 -0.425047E-06  0.537E-04    1.03      15.7  T
   7   -224.6945585 -0.318074E-07  0.240E-04    1.03      35.3  T
     SCC iter.                  ...        0 min,  0.161 sec
     gradient                   ...        0 min,  0.249 sec
 * total energy  :  -220.6686057 Eh     change       -0.4833542E-03 Eh
   gradient norm :     0.0043073 Eh/α   predicted    -0.4344478E-03 ( -10.12%)
   displ. norm   :     0.8263674 α      lambda       -0.5182128E-03
   maximum displ.:     0.4958485 α      in ANC's #3, #2, #1, ...

........................................................................
.............................. CYCLE   56 ..............................
........................................................................
   1   -224.6937671 -0.224694E+03  0.105E-01    1.03       0.0  T
   2   -224.6937738 -0.671132E-05  0.606E-02    1.03       1.0  T
   3   -224.6937157  0.580874E-04  0.176E-02    1.03       1.0  T
   4   -224.6937793 -0.636025E-04  0.345E-03    1.03       2.5  T
   5   -224.6937800 -0.653129E-06  0.220E-03    1.03       3.8  T
   6   -224.6937804 -0.451794E-06  0.615E-04    1.03      13.7  T
   7   -224.6937805 -0.435035E-07  0.247E-04    1.03      34.3  T
     SCC iter.                  ...        0 min,  0.157 sec
     gradient                   ...        0 min,  0.247 sec
 * total energy  :  -220.6690705 Eh     change       -0.4647224E-03 Eh
   gradient norm :     0.0054709 Eh/α   predicted    -0.4360489E-03 (  -6.17%)
   displ. norm   :     0.8320609 α      lambda       -0.4987443E-03
   maximum displ.:     0.4935294 α      in ANC's #3, #2, #1, ...

........................................................................
.............................. CYCLE   57 ..............................
........................................................................
   1   -224.6932097 -0.224693E+03  0.958E-02    1.03       0.0  T
   2   -224.6932139 -0.418568E-05  0.558E-02    1.03       1.0  T
   3   -224.6931646  0.493414E-04  0.159E-02    1.03       1.0  T
   4   -224.6932181 -0.535363E-04  0.266E-03    1.03       3.2  T
   5   -224.6932184 -0.282668E-06  0.176E-03    1.03       4.8  T
   6   -224.6932187 -0.318245E-06  0.607E-04    1.03      13.9  T
   7   -224.6932187 -0.411591E-07  0.257E-04    1.03      32.8  T
     SCC iter.                  ...        0 min,  0.158 sec
     gradient                   ...        0 min,  0.251 sec
 * total energy  :  -220.6694969 Eh     change       -0.4264214E-03 Eh
   gradient norm :     0.0080339 Eh/α   predicted    -0.4220263E-03 (  -1.03%)
   displ. norm   :     0.8204087 α      lambda       -0.4838240E-03
   maximum displ.:     0.4912373 α      in ANC's #3, #2, #1, ...

........................................................................
.............................. CYCLE   58 ..............................
........................................................................
   1   -224.6912832 -0.224691E+03  0.102E-01    1.03       0.0  T
   2   -224.6912919 -0.872550E-05  0.585E-02    1.03       1.0  T
   3   -224.6912794  0.124414E-04  0.101E-02    1.03       1.0  T
   4   -224.6912955 -0.160349E-04  0.310E-03    1.03       2.7  T
   5   -224.6912956 -0.134025E-06  0.214E-03    1.03       4.0  T
   6   -224.6912963 -0.646783E-06  0.547E-04    1.03      15.4  T
   7   -224.6912963 -0.373234E-07  0.214E-04    1.03      39.4  T
     SCC iter.                  ...        0 min,  0.164 sec
     gradient                   ...        0 min,  0.252 sec
 * total energy  :  -220.6699225 Eh     change       -0.4256190E-03 Eh
   gradient norm :     0.0075607 Eh/α   predicted    -0.4047401E-03 (  -4.91%)
   displ. norm   :     0.7541613 α      lambda       -0.4694038E-03
   maximum displ.:     0.4413894 α      in ANC's #3, #2, #1, ...

........................................................................
.............................. CYCLE   59 ..............................
........................................................................
   1   -224.6967965 -0.224697E+03  0.817E-02    1.03       0.0  T
   2   -224.6968003 -0.382790E-05  0.473E-02    1.03       1.0  T
   3   -224.6967769  0.234831E-04  0.125E-02    1.03       1.0  T
   4   -224.6968031 -0.262840E-04  0.221E-03    1.03       3.8  T
   5   -224.6968031  0.543991E-07  0.171E-03    1.03       4.9  T
   6   -224.6968035 -0.403417E-06  0.459E-04    1.03      18.4  T
   7   -224.6968035 -0.268990E-07  0.184E-04    1.03      46.0  T
     SCC iter.                  ...        0 min,  0.158 sec
     gradient                   ...        0 min,  0.254 sec
 * total energy  :  -220.6703314 Eh     change       -0.4089306E-03 Eh
   gradient norm :     0.0077589 Eh/α   predicted    -0.3681948E-03 (  -9.96%)
   displ. norm   :     0.8400121 α      lambda       -0.5390094E-03
   maximum displ.:     0.4892635 α      in ANC's #3, #2, #1, ...

........................................................................
.............................. CYCLE   60 ..............................
........................................................................
   1   -224.6925274 -0.224693E+03  0.105E-01    1.03       0.0  T
   2   -224.6925387 -0.112887E-04  0.601E-02    1.03       1.0  T
   3   -224.6925184  0.203059E-04  0.112E-02    1.03       1.0  T
[...]
                            29 C    0.108
    27   6 C    3.991 --    26 C    1.445    28 C    1.412    96 H    0.969
                            30 C    0.109
    28   6 C    3.987 --    27 C    1.412    29 C    1.406    43 C    1.013
                            17 C    0.106
    29   6 C    3.990 --    30 C    1.452    28 C    1.406    97 H    0.969
                            26 C    0.108
    30   6 C    3.990 --    29 C    1.452    17 C    1.403    98 H    0.967
                            27 C    0.109
    31   6 C    3.990 --    32 C    1.452    20 C    1.403    99 H    0.967
                            34 C    0.109
    32   6 C    3.991 --    31 C    1.452    33 C    1.406   100 H    0.969
                            35 C    0.108
    33   6 C    3.987 --    34 C    1.413    32 C    1.406    47 C    1.013
                            20 C    0.106
    34   6 C    3.991 --    35 C    1.445    33 C    1.413   101 H    0.969
                            31 C    0.109
    35   6 C    3.991 --    34 C    1.445    20 C    1.414   102 H    0.967
                            32 C    0.108
    36   6 C    3.990 --    37 C    1.456    19 C    1.400   103 H    0.968
                            39 C    0.109
    37   6 C    3.990 --    36 C    1.456    38 C    1.403   104 H    0.969
                            40 C    0.107
    38   6 C    3.985 --    39 C    1.415    37 C    1.403    45 C    1.013
                            19 C    0.105
    39   6 C    3.991 --    40 C    1.441    38 C    1.415   105 H    0.969
                            36 C    0.109
    40   6 C    3.991 --    39 C    1.441    19 C    1.416   106 H    0.966
                            37 C    0.107
    41   6 C    3.997 --    23 C    1.013    42 C    1.000   108 H    0.974
                           107 H    0.974
    42   6 C    3.996 --    41 C    1.000   110 H    0.988   109 H    0.988
                           111 H    0.986
    43   6 C    3.997 --    28 C    1.013    44 C    1.000   113 H    0.974
                           112 H    0.974
    44   6 C    3.996 --    43 C    1.000   115 H    0.988   114 H    0.988
                           116 H    0.986
    45   6 C    3.997 --    38 C    1.013    46 C    1.000   117 H    0.974
                           118 H    0.974
    46   6 C    3.996 --    45 C    1.000   121 H    0.988   119 H    0.988
                           120 H    0.986
    47   6 C    3.997 --    33 C    1.013    48 C    1.000   123 H    0.975
                           122 H    0.973
    48   6 C    3.996 --    47 C    1.000   124 H    0.989   125 H    0.988
                           126 H    0.986
    49   6 C    3.949 --    50 C    1.401    15 C    1.385   127 H    0.958
    50   6 C    3.922 --    49 C    1.401    86 C    1.252    51 S    1.104
    51  16 S    2.584 --    16 C    1.182    50 C    1.104
    52   6 C    3.946 --    53 C    1.517    84 C    1.283   128 H    0.948
    53   6 C    3.923 --    52 C    1.517    54 C    1.146    57 C    1.035
    54   6 C    3.973 --    63 C    1.484    53 C    1.146    55 C    1.081
    55   6 C    3.981 --    58 C    1.405    56 C    1.296    54 C    1.081
    56   6 C    3.976 --    61 C    1.421    55 C    1.296    57 C    1.021
    57   6 C    3.922 --    62 O    1.758    53 C    1.035    56 C    1.021
    58   6 C    3.978 --    59 C    1.428    55 C    1.405   129 H    0.961
    59   6 C    3.981 --    60 C    1.437    58 C    1.428   130 H    0.970
    60   6 C    3.971 --    59 C    1.437    61 C    1.422   131 H    0.970
    61   6 C    3.983 --    60 C    1.422    56 C    1.421   132 H    0.966
    62   8 O    2.043 --    57 C    1.758
    63   6 C    3.942 --    54 C    1.484    65 C    1.098    64 C    1.097
    64   6 C    3.945 --    66 N    2.762    63 C    1.097
    65   6 C    3.945 --    67 N    2.755    63 C    1.098
    66   7 N    2.966 --    64 C    2.762
    67   7 N    2.968 --    65 C    2.755
    68   6 C    3.947 --    69 C    1.519    85 C    1.281   133 H    0.949
    69   6 C    3.923 --    68 C    1.519    70 C    1.145    73 C    1.034
    70   6 C    3.974 --    79 C    1.485    69 C    1.145    71 C    1.081
    71   6 C    3.981 --    74 C    1.405    72 C    1.296    70 C    1.081
    72   6 C    3.976 --    77 C    1.421    71 C    1.296    73 C    1.021
    73   6 C    3.922 --    78 O    1.758    69 C    1.034    72 C    1.021
    74   6 C    3.978 --    75 C    1.428    71 C    1.405   134 H    0.961
    75   6 C    3.981 --    76 C    1.437    74 C    1.428   135 H    0.970
    76   6 C    3.971 --    75 C    1.437    77 C    1.422   136 H    0.970
    77   6 C    3.983 --    76 C    1.422    72 C    1.421   137 H    0.966
    78   8 O    2.044 --    73 C    1.758
    79   6 C    3.942 --    70 C    1.485    81 C    1.098    80 C    1.097
    80   6 C    3.945 --    82 N    2.762    79 C    1.097
    81   6 C    3.945 --    83 N    2.756    79 C    1.098
    82   7 N    2.967 --    80 C    2.762
    83   7 N    2.968 --    81 C    2.756
    84   6 C    3.957 --     1 C    1.553    52 C    1.283   138 H    0.950
    85   6 C    3.957 --    86 C    1.556    68 C    1.281   139 H    0.950
    86   6 C    3.944 --    85 C    1.556    50 C    1.252   140 H    0.960
    87   1 H    0.996 --     1 C    0.960
    88   1 H    0.996 --     6 C    0.958
    89   1 H    0.997 --    10 C    0.963
    90   1 H    0.997 --    13 C    0.963
    91   1 H    0.999 --    21 C    0.966
    92   1 H    0.998 --    22 C    0.969
    93   1 H    0.998 --    24 C    0.969
    94   1 H    0.998 --    25 C    0.968
    95   1 H    0.999 --    26 C    0.967
    96   1 H    0.998 --    27 C    0.969
    97   1 H    0.998 --    29 C    0.969
    98   1 H    0.999 --    30 C    0.967
    99   1 H    0.999 --    31 C    0.967
   100   1 H    0.998 --    32 C    0.969
   101   1 H    0.998 --    34 C    0.969
   102   1 H    0.999 --    35 C    0.967
   103   1 H    0.998 --    36 C    0.968
   104   1 H    0.998 --    37 C    0.969
   105   1 H    0.998 --    39 C    0.969
   106   1 H    0.999 --    40 C    0.966
   107   1 H    0.998 --    41 C    0.974
   108   1 H    0.998 --    41 C    0.974
   109   1 H    0.999 --    42 C    0.988
   110   1 H    0.999 --    42 C    0.988
   111   1 H    0.998 --    42 C    0.986
   112   1 H    0.998 --    43 C    0.974
   113   1 H    0.998 --    43 C    0.974
   114   1 H    0.999 --    44 C    0.988
   115   1 H    0.999 --    44 C    0.988
   116   1 H    0.998 --    44 C    0.986
   117   1 H    0.998 --    45 C    0.974
   118   1 H    0.998 --    45 C    0.974
   119   1 H    0.999 --    46 C    0.988
   120   1 H    0.998 --    46 C    0.986
   121   1 H    0.999 --    46 C    0.988
   122   1 H    0.998 --    47 C    0.973
   123   1 H    0.998 --    47 C    0.975
   124   1 H    0.999 --    48 C    0.989
   125   1 H    0.999 --    48 C    0.988
   126   1 H    0.998 --    48 C    0.986
   127   1 H    0.996 --    49 C    0.958
   128   1 H    0.996 --    52 C    0.948
   129   1 H    0.996 --    58 C    0.961
   130   1 H    0.997 --    59 C    0.970
   131   1 H    0.997 --    60 C    0.970
   132   1 H    0.996 --    61 C    0.966
   133   1 H    0.996 --    68 C    0.949
   134   1 H    0.996 --    74 C    0.961
   135   1 H    0.997 --    75 C    0.970
   136   1 H    0.997 --    76 C    0.970
   137   1 H    0.996 --    77 C    0.966
   138   1 H    0.993 --    84 C    0.950
   139   1 H    0.993 --    85 C    0.950
   140   1 H    0.996 --    86 C    0.960
 ---------------------------------------------------------------------------

Topologies differ in bond orders
Writing corrected topology to xtbtopo.mol

molecular dipole:
                 x           y           z       tot (Debye)
 q only:        0.314       0.237      -0.803
   full:        0.187       0.109      -0.622       1.674
molecular quadrupole (traceless):
                xx          xy          yy          xz          yz          zz
 q only:       28.445     108.537    -105.553      21.776     -20.730      77.107
  q+dip:       24.937     134.563    -116.172      29.576     -12.228      91.235
   full:       20.241     137.401    -114.865      23.216     -13.791      94.624

           -------------------------------------------------
          |                Geometry Summary                 |
           -------------------------------------------------

      molecular mass/u    :     1143.4213982
   center of mass at/Å    :        0.3712902      -0.1871459       0.5324652
  moments of inertia/u·Å² :        0.1772620E+05   0.6774555E+05   0.6797370E+05
rotational constants/cm⁻¹ :        0.9510011E-03   0.2488375E-03   0.2480023E-03

 * 128 selected distances

     #   Z          #   Z                                           value/Å
     1   6 C        2   6 C                                       1.4103322
     2   6 C        3  16 S                                       1.7587028 (max)
     3  16 S        4   6 C                                       1.7104982
     4   6 C        5   6 C                                       1.3921185
     2   6 C        6   6 C                                       1.3915117
     5   6 C        6   6 C                                       1.3854417
     4   6 C        7   6 C                                       1.4266498
     7   6 C        8   6 C                                       1.4163714
     7   6 C       10   6 C                                       1.3933760
    10   6 C       11   6 C                                       1.3742480
    11   6 C       12   6 C                                       1.4164945
     8   6 C       13   6 C                                       1.3745157
    12   6 C       13   6 C                                       1.3934435
    12   6 C       16   6 C                                       1.4269577
    15   6 C       16   6 C                                       1.3920904
    18   6 C       21   6 C                                       1.3867028
    21   6 C       22   6 C                                       1.3837161
    22   6 C       23   6 C                                       1.3876407
    23   6 C       24   6 C                                       1.3895786
    18   6 C       25   6 C                                       1.3899618
    24   6 C       25   6 C                                       1.3808646
    17   6 C       26   6 C                                       1.3874343
    26   6 C       27   6 C                                       1.3828933
    27   6 C       28   6 C                                       1.3881399
    28   6 C       29   6 C                                       1.3890222
    17   6 C       30   6 C                                       1.3896508
    29   6 C       30   6 C                                       1.3815102
    20   6 C       31   6 C                                       1.3896455
    31   6 C       32   6 C                                       1.3814692
    32   6 C       33   6 C                                       1.3890931
    33   6 C       34   6 C                                       1.3880960
    20   6 C       35   6 C                                       1.3874066
    34   6 C       35   6 C                                       1.3829540
    19   6 C       36   6 C                                       1.3899736
    36   6 C       37   6 C                                       1.3808681
    37   6 C       38   6 C                                       1.3896139
    38   6 C       39   6 C                                       1.3876190
    19   6 C       40   6 C                                       1.3867217
    39   6 C       40   6 C                                       1.3837098
    41   6 C       42   6 C                                       1.5301319
    43   6 C       44   6 C                                       1.5301617
    45   6 C       46   6 C                                       1.5302094
    47   6 C       48   6 C                                       1.5300897
    15   6 C       49   6 C                                       1.3854001
    49   6 C       50   6 C                                       1.3912199
    16   6 C       51  16 S                                       1.7108477
    50   6 C       51  16 S                                       1.7585791
    52   6 C       53   6 C                                       1.3705021
    55   6 C       56   6 C                                       1.4054841
    55   6 C       58   6 C                                       1.3862126
    58   6 C       59   6 C                                       1.3889022
    59   6 C       60   6 C                                       1.3873439
    56   6 C       61   6 C                                       1.3810039
    60   6 C       61   6 C                                       1.3876233
    57   6 C       62   8 O                                       1.2148972
    54   6 C       63   6 C                                       1.3714706
    64   6 C       66   7 N                                       1.1482714
    65   6 C       67   7 N                                       1.1488863
    68   6 C       69   6 C                                       1.3702575
    71   6 C       72   6 C                                       1.4055006
    71   6 C       74   6 C                                       1.3861721
    74   6 C       75   6 C                                       1.3888941
    75   6 C       76   6 C                                       1.3873579
    72   6 C       77   6 C                                       1.3810034
    76   6 C       77   6 C                                       1.3876392
    73   6 C       78   8 O                                       1.2146925
    70   6 C       79   6 C                                       1.3712609
    80   6 C       82   7 N                                       1.1482579
    81   6 C       83   7 N                                       1.1488240
     1   6 C       84   6 C                                       1.3640187
    52   6 C       84   6 C                                       1.4072467
    68   6 C       85   6 C                                       1.4075626
    50   6 C       86   6 C                                       1.4107703
    85   6 C       86   6 C                                       1.3637305
     1   6 C       87   1 H                                       1.0835808
     6   6 C       88   1 H                                       1.0741281
    10   6 C       89   1 H                                       1.0790966
    13   6 C       90   1 H                                       1.0790816
    21   6 C       91   1 H                                       1.0802410
    22   6 C       92   1 H                                       1.0807966
    24   6 C       93   1 H                                       1.0805670
    25   6 C       94   1 H                                       1.0801588
    26   6 C       95   1 H                                       1.0804372
    27   6 C       96   1 H                                       1.0806613
    29   6 C       97   1 H                                       1.0807558
    30   6 C       98   1 H                                       1.0807436
    31   6 C       99   1 H                                       1.0807559
    32   6 C      100   1 H                                       1.0807559
    34   6 C      101   1 H                                       1.0806426
    35   6 C      102   1 H                                       1.0804692
    36   6 C      103   1 H                                       1.0801748
    37   6 C      104   1 H                                       1.0805651
    39   6 C      105   1 H                                       1.0807957
    40   6 C      106   1 H                                       1.0802512
    41   6 C      107   1 H                                       1.0917874
    41   6 C      108   1 H                                       1.0918657
    42   6 C      109   1 H                                       1.0877005
    42   6 C      110   1 H                                       1.0877665
    42   6 C      111   1 H                                       1.0874400
    43   6 C      112   1 H                                       1.0918940
    43   6 C      113   1 H                                       1.0917744
    44   6 C      114   1 H                                       1.0877560
    44   6 C      115   1 H                                       1.0876871
    44   6 C      116   1 H                                       1.0874524
    45   6 C      117   1 H                                       1.0918526
    45   6 C      118   1 H                                       1.0918037
    46   6 C      119   1 H                                       1.0877083
    46   6 C      120   1 H                                       1.0874339
    46   6 C      121   1 H                                       1.0877973
    47   6 C      122   1 H                                       1.0919226
    47   6 C      123   1 H                                       1.0916560
    48   6 C      124   1 H                                       1.0878118
    48   6 C      125   1 H                                       1.0877483
    48   6 C      126   1 H                                       1.0874186
    49   6 C      127   1 H                                       1.0741122 (min)
    52   6 C      128   1 H                                       1.0825838
    58   6 C      129   1 H                                       1.0775471
    59   6 C      130   1 H                                       1.0797495
    60   6 C      131   1 H                                       1.0796899
    61   6 C      132   1 H                                       1.0792888
    68   6 C      133   1 H                                       1.0826997
    74   6 C      134   1 H                                       1.0775835
    75   6 C      135   1 H                                       1.0797491
    76   6 C      136   1 H                                       1.0796767
    77   6 C      137   1 H                                       1.0792739
    84   6 C      138   1 H                                       1.0785095
    85   6 C      139   1 H                                       1.0785508
    86   6 C      140   1 H                                       1.0835093

 * 5 distinct bonds (by element types)

   Z      Z             #   av. dist./Å        max./Å        min./Å
   1 H    6 C          54     1.0833974     1.0919226     1.0741122
   6 C    6 C          64     1.3980470     1.5302094     1.3637305
   6 C    7 N           4     1.1485599     1.1488863     1.1482579
   6 C    8 O           2     1.2147949     1.2148972     1.2146925
   6 C   16 S           4     1.7346570     1.7587028     1.7104982


optimized geometry written to: xtbopt.mol


           -------------------------------------------------
          | TOTAL ENERGY             -220.694430684213 Eh   |
          | GRADIENT NORM               0.000232809489 Eh/α |
          | HOMO-LUMO GAP               1.078657483478 eV   |
           -------------------------------------------------

------------------------------------------------------------------------
 * finished run on 2021/12/22 at 21:23:15.825     
------------------------------------------------------------------------
 total:
 * wall-time:     0 d,  0 h,  3 min, 22.377 sec
 *  cpu-time:     0 d,  0 h,  3 min, 22.372 sec
 * ratio c/w:     1.000 speedup
 SCF:
 * wall-time:     0 d,  0 h,  0 min,  0.631 sec
 *  cpu-time:     0 d,  0 h,  0 min,  0.631 sec
 * ratio c/w:     1.000 speedup
 ANC optimizer:
 * wall-time:     0 d,  0 h,  3 min, 21.675 sec
 *  cpu-time:     0 d,  0 h,  3 min, 21.671 sec
 * ratio c/w:     1.000 speedup

