      -----------------------------------------------------------      
     |                   =====================                   |     
     |                           x T B                           |     
     |                   =====================                   |     
     |                         S. Grimme                         |     
     |          Mulliken Center for Theoretical Chemistry        |     
     |                    University of Bonn                     |     
      -----------------------------------------------------------      

   * xtb version 6.4.1 (unknown) compiled by 'oda6@login1.crc.pitt.edu' on 2021-06-25

   xtb is free software: you can redistribute it and/or modify it under
   the terms of the GNU Lesser General Public License as published by
   the Free Software Foundation, either version 3 of the License, or
   (at your option) any later version.
   
   xtb is distributed in the hope that it will be useful,
   but WITHOUT ANY WARRANTY; without even the implied warranty of
   MERCHANTABILITY or FITNESS FOR A PARTICULAR PURPOSE.  See the
   GNU Lesser General Public License for more details.
   
   Cite this work as:
   * C. Bannwarth, E. Caldeweyher, S. Ehlert, A. Hansen, P. Pracht,
     J. Seibert, S. Spicher, S. Grimme, WIREs Comput. Mol. Sci., 2020, 11,
     e01493. DOI: 10.1002/wcms.1493
   
   for GFN2-xTB:
   * C. Bannwarth, S. Ehlert and S. Grimme., J. Chem. Theory Comput., 2019,
     15, 1652-1671. DOI: 10.1021/acs.jctc.8b01176
   for GFN1-xTB:
   * S. Grimme, C. Bannwarth, P. Shushkov, J. Chem. Theory Comput., 2017,
     13, 1989-2009. DOI: 10.1021/acs.jctc.7b00118
   for GFN0-xTB:
   * P. Pracht, E. Caldeweyher, S. Ehlert, S. Grimme, ChemRxiv, 2019, preprint.
     DOI: 10.26434/chemrxiv.8326202.v1
   for GFN-FF:
   * S. Spicher and S. Grimme, Angew. Chem. Int. Ed., 2020, 59, 15665-15673.
     DOI: 10.1002/anie.202004239
   
   for DFT-D4:
   * E. Caldeweyher, C. Bannwarth and S. Grimme, J. Chem. Phys., 2017,
     147, 034112. DOI: 10.1063/1.4993215
   * E. Caldeweyher, S. Ehlert, A. Hansen, H. Neugebauer, S. Spicher,
     C. Bannwarth and S. Grimme, J. Chem. Phys., 2019, 150, 154122.
     DOI: 10.1063/1.5090222
   * E. Caldeweyher, J.-M. Mewes, S. Ehlert and S. Grimme, Phys. Chem. Chem. Phys.
     2020, 22, 8499-8512. DOI: 10.1039/D0CP00502A
   
   for sTDA-xTB:
   * S. Grimme and C. Bannwarth, J. Chem. Phys., 2016, 145, 054103.
     DOI: 10.1063/1.4959605
   
   in the mass-spec context:
   * V. Asgeirsson, C. Bauer and S. Grimme, Chem. Sci., 2017, 8, 4879.
     DOI: 10.1039/c7sc00601b
   * J. Koopman and S. Grimme, ACS Omega 2019, 4, 12, 15120-15133.
     DOI: 10.1021/acsomega.9b02011
   
   for metadynamics refer to:
   * S. Grimme, J. Chem. Theory Comput., 2019, 155, 2847-2862
     DOI: 10.1021/acs.jctc.9b00143
   
   for SPH calculations refer to:
   * S. Spicher and S. Grimme, J. Chem. Theory Comput., 2021, 17, 1701-1714
     DOI: 10.1021/acs.jctc.0c01306
   
   with help from (in alphabetical order)
   P. Atkinson, C. Bannwarth, F. Bohle, G. Brandenburg, E. Caldeweyher
   M. Checinski, S. Dohm, S. Ehlert, S. Ehrlich, I. Gerasimov, J. Koopman
   C. Lavigne, S. Lehtola, F. März, M. Müller, F. Musil, H. Neugebauer
   J. Pisarek, C. Plett, P. Pracht, J. Seibert, P. Shushkov, S. Spicher
   M. Stahn, M. Steiner, T. Strunk, J. Stückrath, T. Rose, and J. Unsleber
   
 * started run on 2021/12/22 at 16:03:45.049     

           -------------------------------------------------
          |                Calculation Setup                |
           -------------------------------------------------

          program call               : /ihome/ghutchison/oda6/xtb/xtb-641/bin//xtb TPIC.mol -opt
          hostname                   : smp-n104
          coordinate file            : TPIC.mol
          omp threads                :                     1
          number of atoms            :                   145
          number of electrons        :                   430
          charge                     :                     0
          spin                       :                   0.0
          first test random number   :      0.56764506979372

   ID    Z sym.   atoms
    1    6 C      1-10, 12-14, 17, 19-31, 33-35, 38-49, 52-55, 57-90
    2    8 O      11, 32
    3    7 N      15, 16, 36, 37, 51
    4   16 S      18, 50, 56
    5    1 H      91-145
########################################################################
[WARNING] Please study the warnings concerning your input carefully
-1- prog_main_parseArguments: the use of '-opt' is discouraged, please use '--opt' next time
########################################################################

           -------------------------------------------------
          |                 G F N 2 - x T B                 |
           -------------------------------------------------

        Reference                      10.1021/acs.jctc.8b01176
      * Hamiltonian:
        H0-scaling (s, p, d)           1.850000    2.230000    2.230000
        zeta-weighting                 0.500000
      * Dispersion:
        s8                             2.700000
        a1                             0.520000
        a2                             5.000000
        s9                             5.000000
      * Repulsion:
        kExp                           1.500000    1.000000
        rExp                           1.000000
      * Coulomb:
        alpha                          2.000000
        third order                    shell-resolved
        anisotropic                    true
        a3                             3.000000
        a5                             4.000000
        cn-shift                       1.200000
        cn-exp                         4.000000
        max-rad                        5.000000


          ...................................................
          :                      SETUP                      :
          :.................................................:
          :  # basis functions                 433          :
          :  # atomic orbitals                 430          :
          :  # shells                          238          :
          :  # electrons                       430          :
          :  max. iterations                   250          :
          :  Hamiltonian                  GFN2-xTB          :
          :  restarted?                      false          :
          :  GBSA solvation                  false          :
          :  PC potential                    false          :
          :  electronic temp.          300.0000000     K    :
          :  accuracy                    1.0000000          :
          :  -> integral cutoff          0.2500000E+02      :
          :  -> integral neglect         0.1000000E-07      :
          :  -> SCF convergence          0.1000000E-05 Eh   :
          :  -> wf. convergence          0.1000000E-03 e    :
          :  Broyden damping             0.4000000          :
          ...................................................

 iter      E             dE          RMSdq      gap      omega  full diag
   1   -235.2344702 -0.235234E+03  0.467E+00    1.35       0.0  T
   2   -235.3684105 -0.133940E+00  0.282E+00    1.17       1.0  T
   3   -235.0553675  0.313043E+00  0.206E+00    0.94       1.0  T
   4   -235.4825370 -0.427169E+00  0.609E-01    1.21       1.0  T
   5   -235.5212385 -0.387015E-01  0.178E-01    1.00       1.0  T
   6   -235.5232775 -0.203901E-02  0.987E-02    1.13       1.0  T
   7   -235.5244096 -0.113214E-02  0.406E-02    1.08       1.0  T
   8   -235.5245909 -0.181312E-03  0.171E-02    1.09       1.0  T
   9   -235.5246087 -0.177358E-04  0.780E-03    1.09       1.1  T
  10   -235.5246135 -0.483006E-05  0.294E-03    1.09       2.8  T
  11   -235.5246139 -0.354797E-06  0.136E-03    1.09       6.1  T
  12   -235.5246141 -0.205495E-06  0.589E-04    1.09      14.1  T
  13   -235.5246141 -0.225376E-07  0.284E-04    1.09      29.2  T

   *** convergence criteria satisfied after 13 iterations ***

         #    Occupation            Energy/Eh            Energy/eV
      -------------------------------------------------------------
         1        2.0000           -0.7479238             -20.3520
       ...           ...                  ...                  ...
       209        2.0000           -0.3951066             -10.7514
       210        2.0000           -0.3938058             -10.7160
       211        2.0000           -0.3915250             -10.6539
       212        2.0000           -0.3857728             -10.4974
       213        2.0000           -0.3846295             -10.4663
       214        2.0000           -0.3738662             -10.1734
       215        2.0000           -0.3662566              -9.9664 (HOMO)
       216                         -0.3263374              -8.8801 (LUMO)
       217                         -0.3222919              -8.7700
       218                         -0.3190208              -8.6810
       219                         -0.3148886              -8.5686
       220                         -0.2784572              -7.5772
       ...                                ...                  ...
       430                          1.0811355              29.4192
      -------------------------------------------------------------
                  HL-Gap            0.0399193 Eh            1.0863 eV
             Fermi-level           -0.3463037 Eh           -9.4234 eV

 SCC (total)                   0 d,  0 h,  0 min,  0.887 sec
 SCC setup                      ...        0 min,  0.002 sec (  0.268%)
 Dispersion                     ...        0 min,  0.007 sec (  0.845%)
 classical contributions        ...        0 min,  0.001 sec (  0.093%)
 integral evaluation            ...        0 min,  0.072 sec (  8.155%)
 iterations                     ...        0 min,  0.488 sec ( 54.974%)
 molecular gradient             ...        0 min,  0.312 sec ( 35.220%)
 printout                       ...        0 min,  0.004 sec (  0.437%)

         :::::::::::::::::::::::::::::::::::::::::::::::::::::
         ::                     SUMMARY                     ::
         :::::::::::::::::::::::::::::::::::::::::::::::::::::
         :: total energy            -231.625051782218 Eh    ::
         :: gradient norm              0.268000616679 Eh/a0 ::
         :: HOMO-LUMO gap              1.086259203247 eV    ::
         ::.................................................::
         :: SCC energy              -235.524614085690 Eh    ::
         :: -> isotropic ES            0.100165566625 Eh    ::
         :: -> anisotropic ES          0.024713432055 Eh    ::
         :: -> anisotropic XC          0.172497949278 Eh    ::
         :: -> dispersion             -0.218649596385 Eh    ::
         :: repulsion energy           3.895143392413 Eh    ::
         :: add. restraining           0.000000000000 Eh    ::
         :: total charge              -0.000000000021 e     ::
         :::::::::::::::::::::::::::::::::::::::::::::::::::::

      ----------------------------------------------------------- 
     |                   =====================                   |
     |                        A N C O P T                        |
     |                   =====================                   |
     |               Approximate Normal Coordinate               |
     |                Rational Function Optimizer                |
      ----------------------------------------------------------- 

          ...................................................
          :                      SETUP                      :
          :.................................................:
          :   optimization level            normal          :
          :   max. optcycles                   435          :
          :   ANC micro-cycles                  20          :
          :   degrees of freedom               429          :
          :.................................................:
          :   RF solver                   davidson          :
          :   write xtbopt.log                true          :
          :   linear?                        false          :
          :   energy convergence         0.5000000E-05 Eh   :
          :   grad. convergence          0.1000000E-02 Eh/α :
          :   maximium RF displ.         1.0000000          :
          :   Hlow (freq-cutoff)         0.1000000E-01      :
          :   Hmax (freq-cutoff)         5.0000000          :
          :   S6 in model hess.         20.0000000          :
          ...................................................

generating ANC from model Hessian ...
Using Lindh-Hessian (1995)
 Shifting diagonal of input Hessian by   9.991952395931215E-003
 Lowest  eigenvalues of input Hessian
    0.000000    0.000000    0.000000    0.000000    0.000000    0.000000
    0.010000    0.010003    0.010027    0.010033    0.010048    0.010060
    0.010075    0.010119    0.010148    0.010162    0.010223    0.010270
 Highest eigenvalues
    2.224085    2.266098    2.499015    2.500464    2.550241    2.554152
 

........................................................................
.............................. CYCLE    1 ..............................
........................................................................
   1   -235.5246141 -0.235525E+03  0.161E-04    1.09       0.0  T
   2   -235.5246141  0.780574E-09  0.152E-04    1.09      54.5  T
   3   -235.5246141 -0.313506E-08  0.659E-05    1.09     126.1  T
     SCC iter.                  ...        0 min,  0.116 sec
     gradient                   ...        0 min,  0.314 sec
 * total energy  :  -231.6250518 Eh     change       -0.4577771E-08 Eh
   gradient norm :     0.2680040 Eh/α   predicted     0.0000000E+00 (-100.00%)
   displ. norm   :     0.4341269 α      lambda       -0.7566614E-01
   maximum displ.:     0.1216586 α      in ANC's #97, #220, #98, ...

........................................................................
.............................. CYCLE    2 ..............................
........................................................................
   1   -235.7030757 -0.235703E+03  0.231E-01    1.04       0.0  T
   2   -235.7041984 -0.112266E-02  0.150E-01    1.10       1.0  T
   3   -235.7043082 -0.109830E-03  0.851E-02    1.07       1.0  T
   4   -235.7047226 -0.414350E-03  0.307E-02    1.09       1.0  T
   5   -235.7048266 -0.104037E-03  0.137E-02    1.08       1.0  T
   6   -235.7048474 -0.207830E-04  0.614E-03    1.09       1.4  T
   7   -235.7048504 -0.301137E-05  0.259E-03    1.09       3.2  T
   8   -235.7048513 -0.942754E-06  0.934E-04    1.09       8.9  T
   9   -235.7048514 -0.171889E-07  0.551E-04    1.09      15.1  T
     SCC iter.                  ...        0 min,  0.337 sec
     gradient                   ...        0 min,  0.320 sec
 * total energy  :  -231.6787058 Eh     change       -0.5365404E-01 Eh
   gradient norm :     0.1172129 Eh/α   predicted    -0.4501027E-01 ( -16.11%)
   displ. norm   :     0.4537531 α      lambda       -0.2805408E-01
   maximum displ.:     0.1668118 α      in ANC's #97, #98, #100, ...

........................................................................
.............................. CYCLE    3 ..............................
........................................................................
   1   -235.7902657 -0.235790E+03  0.219E-01    1.02       0.0  T
   2   -235.7909430 -0.677276E-03  0.130E-01    1.09       1.0  T
   3   -235.7908077  0.135293E-03  0.922E-02    1.04       1.0  T
   4   -235.7914899 -0.682210E-03  0.346E-02    1.07       1.0  T
   5   -235.7916826 -0.192672E-03  0.140E-02    1.06       1.0  T
   6   -235.7917049 -0.222981E-04  0.458E-03    1.07       1.8  T
   7   -235.7917061 -0.120147E-05  0.221E-03    1.07       3.8  T
   8   -235.7917066 -0.544354E-06  0.768E-04    1.07      10.8  T
   9   -235.7917067 -0.213992E-07  0.475E-04    1.07      17.5  T
     SCC iter.                  ...        0 min,  0.337 sec
     gradient                   ...        0 min,  0.315 sec
 * total energy  :  -231.6954553 Eh     change       -0.1674944E-01 Eh
   gradient norm :     0.0355587 Eh/α   predicted    -0.1691510E-01 (   0.99%)
   displ. norm   :     0.4697644 α      lambda       -0.7906179E-02
   maximum displ.:     0.1830003 α      in ANC's #97, #42, #39, ...

........................................................................
.............................. CYCLE    4 ..............................
........................................................................
   1   -235.8098824 -0.235810E+03  0.217E-01    1.04       0.0  T
   2   -235.8099594 -0.769651E-04  0.124E-01    1.07       1.0  T
   3   -235.8086589  0.130044E-02  0.863E-02    1.03       1.0  T
   4   -235.8101308 -0.147189E-02  0.171E-02    1.06       1.0  T
   5   -235.8101770 -0.461337E-04  0.689E-03    1.06       1.2  T
   6   -235.8101803 -0.334875E-05  0.260E-03    1.06       3.2  T
   7   -235.8101806 -0.327424E-06  0.115E-03    1.06       7.2  T
   8   -235.8101808 -0.125285E-06  0.551E-04    1.06      15.1  T
   9   -235.8101808 -0.133742E-07  0.315E-04    1.06      26.4  T
     SCC iter.                  ...        0 min,  0.339 sec
     gradient                   ...        0 min,  0.318 sec
 * total energy  :  -231.6982845 Eh     change       -0.2829234E-02 Eh
   gradient norm :     0.0345123 Eh/α   predicted    -0.4825525E-02 (  70.56%)
   displ. norm   :     0.4887694 α      lambda       -0.7542864E-02
   maximum displ.:     0.1147160 α      in ANC's #97, #33, #31, ...

........................................................................
.............................. CYCLE    5 ..............................
........................................................................
   1   -235.8229553 -0.235823E+03  0.266E-01    1.05       0.0  T
   2   -235.8230855 -0.130177E-03  0.148E-01    1.06       1.0  T
   3   -235.8221818  0.903710E-03  0.709E-02    1.04       1.0  T
   4   -235.8231998 -0.101800E-02  0.118E-02    1.06       1.0  T
   5   -235.8232172 -0.174704E-04  0.655E-03    1.06       1.3  T
   6   -235.8232210 -0.379413E-05  0.249E-03    1.06       3.3  T
   7   -235.8232215 -0.465322E-06  0.102E-03    1.06       8.2  T
   8   -235.8232216 -0.969677E-07  0.480E-04    1.06      17.3  T
   9   -235.8232216 -0.141189E-07  0.245E-04    1.06      33.9  T
     SCC iter.                  ...        0 min,  0.344 sec
     gradient                   ...        0 min,  0.316 sec
 * total energy  :  -231.7015077 Eh     change       -0.3223162E-02 Eh
   gradient norm :     0.0313285 Eh/α   predicted    -0.4672437E-02 (  44.96%)
   displ. norm   :     0.3179329 α      lambda       -0.2838206E-02
   maximum displ.:     0.0951404 α      in ANC's #42, #57, #26, ...

........................................................................
.............................. CYCLE    6 ..............................
........................................................................
   1   -235.8165207 -0.235817E+03  0.172E-01    1.06       0.0  T
   2   -235.8165806 -0.599308E-04  0.964E-02    1.07       1.0  T
   3   -235.8163586  0.221988E-03  0.414E-02    1.06       1.0  T
   4   -235.8166172 -0.258527E-03  0.696E-03    1.07       1.2  T
   5   -235.8166223 -0.510352E-05  0.377E-03    1.06       2.2  T
   6   -235.8166239 -0.166024E-05  0.155E-03    1.06       5.4  T
   7   -235.8166241 -0.207933E-06  0.629E-04    1.06      13.2  T
   8   -235.8166242 -0.236306E-07  0.317E-04    1.06      26.2  T
     SCC iter.                  ...        0 min,  0.303 sec
     gradient                   ...        0 min,  0.315 sec
 * total energy  :  -231.7028145 Eh     change       -0.1306859E-02 Eh
   gradient norm :     0.0334342 Eh/α   predicted    -0.1562548E-02 (  19.57%)
   displ. norm   :     0.4316211 α      lambda       -0.3578733E-02
   maximum displ.:     0.1218900 α      in ANC's #26, #32, #42, ...

........................................................................
.............................. CYCLE    7 ..............................
........................................................................
   1   -235.8233359 -0.235823E+03  0.159E-01    1.08       0.0  T
   2   -235.8234046 -0.687669E-04  0.903E-02    1.08       1.0  T
   3   -235.8231704  0.234208E-03  0.416E-02    1.07       1.0  T
   4   -235.8234448 -0.274352E-03  0.741E-03    1.08       1.1  T
   5   -235.8234500 -0.522113E-05  0.383E-03    1.08       2.2  T
   6   -235.8234514 -0.141988E-05  0.183E-03    1.08       4.5  T
   7   -235.8234518 -0.348359E-06  0.721E-04    1.08      11.5  T
   8   -235.8234518 -0.430533E-07  0.353E-04    1.08      23.5  T
     SCC iter.                  ...        0 min,  0.301 sec
     gradient                   ...        0 min,  0.316 sec
 * total energy  :  -231.7044495 Eh     change       -0.1634928E-02 Eh
   gradient norm :     0.0244699 Eh/α   predicted    -0.2122732E-02 (  29.84%)
   displ. norm   :     0.4127815 α      lambda       -0.2025693E-02
   maximum displ.:     0.1457435 α      in ANC's #26, #31, #4, ...

........................................................................
.............................. CYCLE    8 ..............................
........................................................................
   1   -235.8258943 -0.235826E+03  0.124E-01    1.07       0.0  T
   2   -235.8259203 -0.259825E-04  0.704E-02    1.07       1.0  T
   3   -235.8257019  0.218390E-03  0.340E-02    1.06       1.0  T
   4   -235.8259437 -0.241750E-03  0.670E-03    1.07       1.2  T
   5   -235.8259487 -0.499805E-05  0.347E-03    1.07       2.4  T
   6   -235.8259495 -0.848762E-06  0.149E-03    1.07       5.6  T
   7   -235.8259497 -0.197707E-06  0.590E-04    1.07      14.1  T
   8   -235.8259497 -0.128275E-07  0.339E-04    1.07      24.5  T
     SCC iter.                  ...        0 min,  0.303 sec
     gradient                   ...        0 min,  0.315 sec
 * total energy  :  -231.7055838 Eh     change       -0.1134303E-02 Eh
   gradient norm :     0.0194506 Eh/α   predicted    -0.1185443E-02 (   4.51%)
   displ. norm   :     0.5490500 α      lambda       -0.2598683E-02
   maximum displ.:     0.1677816 α      in ANC's #32, #4, #26, ...

........................................................................
.............................. CYCLE    9 ..............................
........................................................................
   1   -235.8238295 -0.235824E+03  0.174E-01    1.06       0.0  T
   2   -235.8238781 -0.486049E-04  0.987E-02    1.07       1.0  T
   3   -235.8233614  0.516725E-03  0.501E-02    1.05       1.0  T
   4   -235.8239305 -0.569106E-03  0.104E-02    1.07       1.0  T
   5   -235.8239445 -0.139478E-04  0.468E-03    1.06       1.8  T
   6   -235.8239455 -0.103075E-05  0.222E-03    1.06       3.7  T
   7   -235.8239461 -0.580729E-06  0.795E-04    1.06      10.4  T
   8   -235.8239461 -0.306595E-07  0.479E-04    1.06      17.3  T
     SCC iter.                  ...        0 min,  0.304 sec
     gradient                   ...        0 min,  0.319 sec
 * total energy  :  -231.7064636 Eh     change       -0.8798789E-03 Eh
   gradient norm :     0.0320080 Eh/α   predicted    -0.1691040E-02 (  92.19%)
   displ. norm   :     0.3239017 α      lambda       -0.1937862E-02
   maximum displ.:     0.0929350 α      in ANC's #26, #4, #13, ...

........................................................................
.............................. CYCLE   10 ..............................
........................................................................
   1   -235.8334900 -0.235833E+03  0.858E-02    1.07       0.0  T
   2   -235.8335481 -0.581783E-04  0.510E-02    1.07       1.0  T
   3   -235.8334364  0.111746E-03  0.280E-02    1.07       1.0  T
   4   -235.8335597 -0.123284E-03  0.944E-03    1.07       1.0  T
   5   -235.8335766 -0.168876E-04  0.264E-03    1.07       3.1  T
   6   -235.8335773 -0.694659E-06  0.148E-03    1.07       5.6  T
   7   -235.8335775 -0.193646E-06  0.726E-04    1.07      11.4  T
   8   -235.8335775 -0.447082E-07  0.281E-04    1.07      29.6  T
     SCC iter.                  ...        0 min,  0.303 sec
     gradient                   ...        0 min,  0.315 sec
 * total energy  :  -231.7075395 Eh     change       -0.1075857E-02 Eh
   gradient norm :     0.0189533 Eh/α   predicted    -0.1070584E-02 (  -0.49%)
   displ. norm   :     0.4599998 α      lambda       -0.1861639E-02
   maximum displ.:     0.1667853 α      in ANC's #26, #4, #1, ...

........................................................................
.............................. CYCLE   11 ..............................
........................................................................
   1   -235.8262564 -0.235826E+03  0.169E-01    1.07       0.0  T
   2   -235.8263293 -0.728879E-04  0.951E-02    1.07       1.0  T
   3   -235.8259645  0.364774E-03  0.471E-02    1.08       1.0  T
   4   -235.8263778 -0.413353E-03  0.903E-03    1.07       1.0  T
   5   -235.8263902 -0.123197E-04  0.413E-03    1.07       2.0  T
   6   -235.8263917 -0.156457E-05  0.185E-03    1.07       4.5  T
   7   -235.8263920 -0.312670E-06  0.907E-04    1.07       9.2  T
   8   -235.8263921 -0.829162E-07  0.347E-04    1.07      23.9  T
     SCC iter.                  ...        0 min,  0.302 sec
     gradient                   ...        0 min,  0.315 sec
 * total energy  :  -231.7076844 Eh     change       -0.1449202E-03 Eh
   gradient norm :     0.0427067 Eh/α   predicted    -0.1127782E-02 ( 678.21%)
   displ. norm   :     0.3023234 α      lambda       -0.2090266E-02
   maximum displ.:     0.1006130 α      in ANC's #4, #1, #32, ...

........................................................................
.............................. CYCLE   12 ..............................
........................................................................
   1   -235.8295295 -0.235830E+03  0.977E-02    1.08       0.0  T
   2   -235.8295952 -0.657609E-04  0.563E-02    1.08       1.0  T
   3   -235.8294896  0.105600E-03  0.268E-02    1.08       1.0  T
   4   -235.8296093 -0.119696E-03  0.788E-03    1.08       1.1  T
   5   -235.8296197 -0.103669E-04  0.262E-03    1.08       3.2  T
   6   -235.8296204 -0.670048E-06  0.141E-03    1.08       5.9  T
   7   -235.8296205 -0.190985E-06  0.714E-04    1.08      11.6  T
   8   -235.8296206 -0.435290E-07  0.307E-04    1.08      27.0  T
     SCC iter.                  ...        0 min,  0.300 sec
     gradient                   ...        0 min,  0.316 sec
 * total energy  :  -231.7087426 Eh     change       -0.1058218E-02 Eh
   gradient norm :     0.0172458 Eh/α   predicted    -0.1140659E-02 (   7.79%)
   displ. norm   :     0.3560806 α      lambda       -0.9900011E-03
   maximum displ.:     0.1339978 α      in ANC's #4, #1, #13, ...

........................................................................
.............................. CYCLE   13 ..............................
........................................................................
   1   -235.8305834 -0.235831E+03  0.790E-02    1.07       0.0  T
   2   -235.8306193 -0.359641E-04  0.459E-02    1.07       1.0  T
   3   -235.8305609  0.584871E-04  0.228E-02    1.07       1.0  T
   4   -235.8306327 -0.718009E-04  0.585E-03    1.07       1.4  T
   5   -235.8306363 -0.367944E-05  0.295E-03    1.07       2.8  T
   6   -235.8306373 -0.925578E-06  0.134E-03    1.07       6.2  T
   7   -235.8306374 -0.187254E-06  0.545E-04    1.07      15.2  T
   8   -235.8306375 -0.338642E-07  0.215E-04    1.07      38.7  T
     SCC iter.                  ...        0 min,  0.303 sec
     gradient                   ...        0 min,  0.315 sec
 * total energy  :  -231.7093376 Eh     change       -0.5949590E-03 Eh
   gradient norm :     0.0121801 Eh/α   predicted    -0.5577638E-03 (  -6.25%)
   displ. norm   :     0.4937186 α      lambda       -0.8056406E-03
   maximum displ.:     0.1994663 α      in ANC's #4, #1, #13, ...

........................................................................
.............................. CYCLE   14 ..............................
........................................................................
   1   -235.8308180 -0.235831E+03  0.696E-02    1.07       0.0  T
   2   -235.8308227 -0.473281E-05  0.397E-02    1.07       1.0  T
   3   -235.8307813  0.414108E-04  0.149E-02    1.08       1.0  T
   4   -235.8308268 -0.454824E-04  0.265E-03    1.07       3.1  T
   5   -235.8308272 -0.417736E-06  0.157E-03    1.07       5.3  T
   6   -235.8308274 -0.202921E-06  0.608E-04    1.07      13.7  T
   7   -235.8308274 -0.350568E-07  0.243E-04    1.07      34.1  T
     SCC iter.                  ...        0 min,  0.267 sec
     gradient                   ...        0 min,  0.320 sec
 * total energy  :  -231.7100521 Eh     change       -0.7144719E-03 Eh
   gradient norm :     0.0093333 Eh/α   predicted    -0.5010158E-03 ( -29.88%)
   displ. norm   :     0.6749975 α      lambda       -0.1185105E-02
   maximum displ.:     0.2939464 α      in ANC's #4, #1, #13, ...

........................................................................
.............................. CYCLE   15 ..............................
........................................................................
   1   -235.8333493 -0.235833E+03  0.982E-02    1.08       0.0  T
   2   -235.8333579 -0.865305E-05  0.561E-02    1.07       1.0  T
   3   -235.8332336  0.124298E-03  0.241E-02    1.08       1.0  T
   4   -235.8333690 -0.135343E-03  0.374E-03    1.08       2.2  T
   5   -235.8333697 -0.765633E-06  0.213E-03    1.08       3.9  T
   6   -235.8333700 -0.271164E-06  0.820E-04    1.08      10.1  T
   7   -235.8333700 -0.527542E-07  0.368E-04    1.08      22.6  T
     SCC iter.                  ...        0 min,  0.264 sec
     gradient                   ...        0 min,  0.314 sec
 * total energy  :  -231.7110176 Eh     change       -0.9655110E-03 Eh
   gradient norm :     0.0098304 Eh/α   predicted    -0.8625359E-03 ( -10.67%)
   displ. norm   :     0.7810310 α      lambda       -0.1107094E-02
   maximum displ.:     0.3352276 α      in ANC's #4, #1, #13, ...

........................................................................
.............................. CYCLE   16 ..............................
........................................................................
   1   -235.8264671 -0.235826E+03  0.106E-01    1.08       0.0  T
   2   -235.8264796 -0.124780E-04  0.611E-02    1.07       1.0  T
   3   -235.8264424  0.371854E-04  0.152E-02    1.08       1.0  T
   4   -235.8264843 -0.419222E-04  0.420E-03    1.08       2.0  T
   5   -235.8264858 -0.145803E-05  0.245E-03    1.08       3.4  T
   6   -235.8264863 -0.508912E-06  0.996E-04    1.08       8.3  T
   7   -235.8264864 -0.917753E-07  0.392E-04    1.08      21.2  T
     SCC iter.                  ...        0 min,  0.265 sec
     gradient                   ...        0 min,  0.315 sec
 * total energy  :  -231.7118633 Eh     change       -0.8456855E-03 Eh
   gradient norm :     0.0157925 Eh/α   predicted    -0.8912170E-03 (   5.38%)
   displ. norm   :     0.6652296 α      lambda       -0.1141076E-02
   maximum displ.:     0.3046441 α      in ANC's #4, #1, #13, ...

........................................................................
.............................. CYCLE   17 ..............................
........................................................................
   1   -235.8290015 -0.235829E+03  0.963E-02    1.08       0.0  T
   2   -235.8290111 -0.959507E-05  0.555E-02    1.08       1.0  T
   3   -235.8289686  0.424778E-04  0.160E-02    1.08       1.0  T
   4   -235.8290158 -0.472207E-04  0.353E-03    1.08       2.4  T
   5   -235.8290167 -0.935088E-06  0.210E-03    1.08       4.0  T
   6   -235.8290172 -0.411548E-06  0.852E-04    1.08       9.7  T
   7   -235.8290172 -0.568526E-07  0.368E-04    1.08      22.6  T
     SCC iter.                  ...        0 min,  0.262 sec
     gradient                   ...        0 min,  0.319 sec
 * total energy  :  -231.7127947 Eh     change       -0.9314016E-03 Eh
   gradient norm :     0.0106115 Eh/α   predicted    -0.8230256E-03 ( -11.64%)
   displ. norm   :     0.7284328 α      lambda       -0.1094089E-02
   maximum displ.:     0.3393176 α      in ANC's #4, #1, #13, ...

........................................................................
.............................. CYCLE   18 ..............................
........................................................................
   1   -235.8286344 -0.235829E+03  0.115E-01    1.08       0.0  T
   2   -235.8286485 -0.140885E-04  0.659E-02    1.08       1.0  T
   3   -235.8286359  0.125483E-04  0.113E-02    1.08       1.0  T
   4   -235.8286540 -0.181107E-04  0.343E-03    1.08       2.4  T
   5   -235.8286543 -0.314334E-06  0.198E-03    1.08       4.2  T
   6   -235.8286547 -0.324042E-06  0.772E-04    1.08      10.8  T
   7   -235.8286547 -0.763419E-07  0.254E-04    1.08      32.7  T
     SCC iter.                  ...        0 min,  0.274 sec
     gradient                   ...        0 min,  0.315 sec
 * total energy  :  -231.7137143 Eh     change       -0.9196462E-03 Eh
   gradient norm :     0.0122050 Eh/α   predicted    -0.8373182E-03 (  -8.95%)
   displ. norm   :     0.7420299 α      lambda       -0.1176341E-02
   maximum displ.:     0.3530803 α      in ANC's #4, #1, #13, ...

........................................................................
.............................. CYCLE   19 ..............................
........................................................................
   1   -235.8362465 -0.235836E+03  0.106E-01    1.08       0.0  T
   2   -235.8362537 -0.712712E-05  0.618E-02    1.08       1.0  T
   3   -235.8361764  0.772435E-04  0.215E-02    1.08       1.0  T
   4   -235.8362606 -0.841955E-04  0.327E-03    1.08       2.5  T
   5   -235.8362614 -0.789857E-06  0.194E-03    1.08       4.3  T
   6   -235.8362617 -0.283218E-06  0.913E-04    1.08       9.1  T
   7   -235.8362618 -0.862348E-07  0.369E-04    1.08      22.5  T
     SCC iter.                  ...        0 min,  0.269 sec
     gradient                   ...        0 min,  0.317 sec
 * total energy  :  -231.7146334 Eh     change       -0.9190990E-03 Eh
   gradient norm :     0.0118924 Eh/α   predicted    -0.9120260E-03 (  -0.77%)
   displ. norm   :     0.7942178 α      lambda       -0.1075819E-02
   maximum displ.:     0.3807352 α      in ANC's #4, #1, #13, ...

........................................................................
.............................. CYCLE   20 ..............................
........................................................................
   1   -235.8286115 -0.235829E+03  0.127E-01    1.08       0.0  T
   2   -235.8286297 -0.181742E-04  0.726E-02    1.08       1.0  T
   3   -235.8285713  0.584449E-04  0.204E-02    1.08       1.0  T
   4   -235.8286378 -0.665609E-04  0.472E-03    1.08       1.8  T
   5   -235.8286396 -0.180305E-05  0.284E-03    1.08       2.9  T
   6   -235.8286405 -0.886933E-06  0.111E-03    1.08       7.5  T
   7   -235.8286406 -0.138980E-06  0.367E-04    1.08      22.6  T
   8   -235.8286407 -0.104235E-07  0.179E-04    1.08      46.4  T
     SCC iter.                  ...        0 min,  0.302 sec
     gradient                   ...        0 min,  0.314 sec
 * total energy  :  -231.7154897 Eh     change       -0.8562964E-03 Eh
   gradient norm :     0.0133712 Eh/α   predicted    -0.8772141E-03 (   2.44%)
   displ. norm   :     0.7181623 α      lambda       -0.9639383E-03
   maximum displ.:     0.3562382 α      in ANC's #4, #1, #2, ...
 * RMSD in coord.:     0.6777577 α      energy gain  -0.9043792E-01 Eh

generating ANC from model Hessian ...
Using Lindh-Hessian (1995)
 Shifting diagonal of input Hessian by   9.993265249753002E-003
 Lowest  eigenvalues of input Hessian
    0.000000    0.000000    0.000000    0.000000    0.000000    0.000000
    0.010000    0.010007    0.010017    0.010031    0.010053    0.010074
    0.010086    0.010135    0.010165    0.010185    0.010251    0.010324
 Highest eigenvalues
    2.274522    2.274709    2.597062    2.608185    2.642510    2.655611
 

........................................................................
.............................. CYCLE   21 ..............................
........................................................................
   1   -235.8318795 -0.235832E+03  0.102E-01    1.08       0.0  T
   2   -235.8318872 -0.770229E-05  0.594E-02    1.09       1.0  T
   3   -235.8318533  0.338736E-04  0.138E-02    1.08       1.0  T
   4   -235.8318909 -0.375482E-04  0.345E-03    1.08       2.4  T
   5   -235.8318919 -0.104140E-05  0.213E-03    1.08       3.9  T
   6   -235.8318924 -0.501693E-06  0.728E-04    1.08      11.4  T
   7   -235.8318925 -0.547382E-07  0.274E-04    1.08      30.3  T
     SCC iter.                  ...        0 min,  0.269 sec
     gradient                   ...        0 min,  0.314 sec
 * total energy  :  -231.7163144 Eh     change       -0.8246591E-03 Eh
   gradient norm :     0.0115103 Eh/α   predicted     0.0000000E+00 (-100.00%)
   displ. norm   :     0.1333847 α      lambda       -0.3810960E-03
   maximum displ.:     0.0545896 α      in ANC's #1, #4, #40, ...

........................................................................
.............................. CYCLE   22 ..............................
........................................................................
   1   -235.8375836 -0.235838E+03  0.420E-02    1.08       0.0  T
   2   -235.8375865 -0.297743E-05  0.237E-02    1.08       1.0  T
   3   -235.8375712  0.152981E-04  0.102E-02    1.08       1.0  T
   4   -235.8375886 -0.173706E-04  0.177E-03    1.08       4.7  T
   5   -235.8375888 -0.226170E-06  0.104E-03    1.08       8.0  T
   6   -235.8375889 -0.980864E-07  0.413E-04    1.08      20.1  T
   7   -235.8375889 -0.191162E-07  0.197E-04    1.08      42.2  T
     SCC iter.                  ...        0 min,  0.266 sec
     gradient                   ...        0 min,  0.319 sec
 * total energy  :  -231.7165816 Eh     change       -0.2672252E-03 Eh
   gradient norm :     0.0051057 Eh/α   predicted    -0.1939443E-03 ( -27.42%)
   displ. norm   :     0.3722544 α      lambda       -0.7329895E-03
   maximum displ.:     0.1841373 α      in ANC's #1, #4, #2, ...

........................................................................
.............................. CYCLE   23 ..............................
........................................................................
   1   -235.8466644 -0.235847E+03  0.105E-01    1.09       0.0  T
   2   -235.8466823 -0.178615E-04  0.591E-02    1.08       1.0  T
   3   -235.8466003  0.820307E-04  0.231E-02    1.09       1.0  T
   4   -235.8466941 -0.938519E-04  0.418E-03    1.08       2.0  T
   5   -235.8466952 -0.105914E-05  0.258E-03    1.08       3.2  T
   6   -235.8466958 -0.671190E-06  0.977E-04    1.08       8.5  T
   7   -235.8466959 -0.109997E-06  0.451E-04    1.08      18.4  T
     SCC iter.                  ...        0 min,  0.268 sec
     gradient                   ...        0 min,  0.314 sec
 * total energy  :  -231.7166881 Eh     change       -0.1065306E-03 Eh
   gradient norm :     0.0172949 Eh/α   predicted    -0.4172817E-03 ( 291.70%)
   displ. norm   :     0.2327077 α      lambda       -0.7766966E-03
   maximum displ.:     0.0948092 α      in ANC's #1, #16, #4, ...

........................................................................
.............................. CYCLE   24 ..............................
........................................................................
   1   -235.8454665 -0.235845E+03  0.792E-02    1.09       0.0  T
   2   -235.8454755 -0.899073E-05  0.443E-02    1.08       1.0  T
   3   -235.8454631  0.124234E-04  0.974E-03    1.09       1.0  T
   4   -235.8454797 -0.166282E-04  0.230E-03    1.08       3.6  T
   5   -235.8454799 -0.208798E-06  0.146E-03    1.08       5.7  T
   6   -235.8454801 -0.208266E-06  0.457E-04    1.08      18.2  T
   7   -235.8454802 -0.226603E-07  0.201E-04    1.08      41.4  T
     SCC iter.                  ...        0 min,  0.269 sec
     gradient                   ...        0 min,  0.319 sec
 * total energy  :  -231.7171314 Eh     change       -0.4432665E-03 Eh
   gradient norm :     0.0129518 Eh/α   predicted    -0.4093795E-03 (  -7.64%)
   displ. norm   :     0.2796128 α      lambda       -0.6133371E-03
   maximum displ.:     0.1407769 α      in ANC's #1, #4, #2, ...

........................................................................
.............................. CYCLE   25 ..............................
........................................................................
   1   -235.8381986 -0.235838E+03  0.718E-02    1.08       0.0  T
   2   -235.8382083 -0.965874E-05  0.409E-02    1.09       1.0  T
   3   -235.8381688  0.395010E-04  0.168E-02    1.08       1.0  T
   4   -235.8382146 -0.457813E-04  0.264E-03    1.08       3.1  T
   5   -235.8382148 -0.265699E-06  0.171E-03    1.08       4.8  T
   6   -235.8382151 -0.302917E-06  0.704E-04    1.08      11.8  T
   7   -235.8382152 -0.388271E-07  0.334E-04    1.08      24.9  T
     SCC iter.                  ...        0 min,  0.266 sec
     gradient                   ...        0 min,  0.314 sec
 * total energy  :  -231.7174001 Eh     change       -0.2686707E-03 Eh
   gradient norm :     0.0113129 Eh/α   predicted    -0.3306490E-03 (  23.07%)
   displ. norm   :     0.3563267 α      lambda       -0.5104375E-03
   maximum displ.:     0.1883774 α      in ANC's #1, #4, #2, ...

........................................................................
.............................. CYCLE   26 ..............................
........................................................................
   1   -235.8368321 -0.235837E+03  0.602E-02    1.09       0.0  T
   2   -235.8368359 -0.385298E-05  0.345E-02    1.09       1.0  T
   3   -235.8368269  0.903777E-05  0.820E-03    1.09       1.0  T
   4   -235.8368377 -0.107900E-04  0.213E-03    1.09       3.9  T
   5   -235.8368379 -0.200176E-06  0.126E-03    1.09       6.6  T
   6   -235.8368381 -0.153945E-06  0.441E-04    1.09      18.8  T
   7   -235.8368381 -0.239109E-07  0.178E-04    1.09      46.7  T
     SCC iter.                  ...        0 min,  0.269 sec
     gradient                   ...        0 min,  0.314 sec
 * total energy  :  -231.7178152 Eh     change       -0.4151024E-03 Eh
   gradient norm :     0.0089028 Eh/α   predicted    -0.2876242E-03 ( -30.71%)
   displ. norm   :     0.5646087 α      lambda       -0.8807380E-03
   maximum displ.:     0.2962639 α      in ANC's #1, #4, #2, ...

........................................................................
.............................. CYCLE   27 ..............................
........................................................................
   1   -235.8294672 -0.235829E+03  0.152E-01    1.09       0.0  T
   2   -235.8295041 -0.368807E-04  0.848E-02    1.09       1.0  T
   3   -235.8295023  0.186489E-05  0.108E-02    1.09       1.0  T
   4   -235.8295171 -0.148638E-04  0.414E-03    1.09       2.0  T
   5   -235.8295176 -0.528593E-06  0.228E-03    1.09       3.7  T
   6   -235.8295181 -0.503673E-06  0.885E-04    1.09       9.4  T
   7   -235.8295183 -0.110552E-06  0.344E-04    1.09      24.1  T
     SCC iter.                  ...        0 min,  0.268 sec
     gradient                   ...        0 min,  0.319 sec
 * total energy  :  -231.7181080 Eh     change       -0.2928708E-03 Eh
   gradient norm :     0.0216854 Eh/α   predicted    -0.5807563E-03 (  98.30%)
   displ. norm   :     0.3920315 α      lambda       -0.9392156E-03
   maximum displ.:     0.1999696 α      in ANC's #1, #4, #2, ...

........................................................................
.............................. CYCLE   28 ..............................
........................................................................
   1   -235.8341869 -0.235834E+03  0.778E-02    1.09       0.0  T
   2   -235.8341948 -0.785076E-05  0.442E-02    1.09       1.0  T
   3   -235.8341893  0.551876E-05  0.727E-03    1.09       1.1  T
   4   -235.8341973 -0.800213E-05  0.231E-03    1.09       3.6  T
   5   -235.8341975 -0.256949E-06  0.124E-03    1.09       6.7  T
   6   -235.8341977 -0.126047E-06  0.539E-04    1.09      15.4  T
   7   -235.8341977 -0.306381E-07  0.222E-04    1.09      37.3  T
     SCC iter.                  ...        0 min,  0.266 sec
     gradient                   ...        0 min,  0.314 sec
 * total energy  :  -231.7186979 Eh     change       -0.5898532E-03 Eh
   gradient norm :     0.0076636 Eh/α   predicted    -0.5417816E-03 (  -8.15%)
   displ. norm   :     0.5690105 α      lambda       -0.5973774E-03
   maximum displ.:     0.3007316 α      in ANC's #1, #4, #2, ...

........................................................................
.............................. CYCLE   29 ..............................
........................................................................
   1   -235.8341582 -0.235834E+03  0.813E-02    1.09       0.0  T
   2   -235.8341634 -0.525689E-05  0.471E-02    1.09       1.0  T
   3   -235.8341534  0.998448E-05  0.925E-03    1.09       1.0  T
   4   -235.8341656 -0.121369E-04  0.238E-03    1.09       3.5  T
   5   -235.8341656 -0.567617E-07  0.144E-03    1.09       5.8  T
   6   -235.8341659 -0.284385E-06  0.569E-04    1.09      14.6  T
   7   -235.8341660 -0.441497E-07  0.236E-04    1.09      35.2  T
     SCC iter.                  ...        0 min,  0.270 sec
     gradient                   ...        0 min,  0.315 sec
 * total energy  :  -231.7191884 Eh     change       -0.4904927E-03 Eh
   gradient norm :     0.0094578 Eh/α   predicted    -0.3953975E-03 ( -19.39%)
   displ. norm   :     0.7011744 α      lambda       -0.8369727E-03
   maximum displ.:     0.3862083 α      in ANC's #1, #4, #2, ...

........................................................................
.............................. CYCLE   30 ..............................
........................................................................
   1   -235.8369903 -0.235837E+03  0.111E-01    1.09       0.0  T
   2   -235.8370043 -0.139598E-04  0.634E-02    1.09       1.0  T
   3   -235.8369958  0.846174E-05  0.997E-03    1.09       1.0  T
   4   -235.8370097 -0.138340E-04  0.337E-03    1.09       2.5  T
   5   -235.8370098 -0.148966E-06  0.202E-03    1.09       4.1  T
   6   -235.8370103 -0.501352E-06  0.659E-04    1.09      12.6  T
   7   -235.8370104 -0.582183E-07  0.273E-04    1.09      30.5  T
     SCC iter.                  ...        0 min,  0.267 sec
     gradient                   ...        0 min,  0.316 sec
 * total energy  :  -231.7198134 Eh     change       -0.6249900E-03 Eh
   gradient norm :     0.0112238 Eh/α   predicted    -0.6242352E-03 (  -0.12%)
   displ. norm   :     0.7040422 α      lambda       -0.8233365E-03
   maximum displ.:     0.3852526 α      in ANC's #1, #4, #2, ...

........................................................................
.............................. CYCLE   31 ..............................
........................................................................
   1   -235.8422932 -0.235842E+03  0.107E-01    1.09       0.0  T
   2   -235.8423052 -0.120004E-04  0.609E-02    1.09       1.0  T
   3   -235.8422790  0.261862E-04  0.143E-02    1.09       1.0  T
   4   -235.8423111 -0.320741E-04  0.316E-03    1.09       2.6  T
   5   -235.8423112 -0.918287E-07  0.202E-03    1.09       4.1  T
   6   -235.8423116 -0.435710E-06  0.702E-04    1.09      11.8  T
   7   -235.8423117 -0.544113E-07  0.314E-04    1.09      26.5  T
     SCC iter.                  ...        0 min,  0.269 sec
     gradient                   ...        0 min,  0.313 sec
 * total energy  :  -231.7204594 Eh     change       -0.6460241E-03 Eh
   gradient norm :     0.0084044 Eh/α   predicted    -0.6157245E-03 (  -4.69%)
   displ. norm   :     0.8420967 α      lambda       -0.7849446E-03
   maximum displ.:     0.4621598 α      in ANC's #1, #4, #2, ...

........................................................................
.............................. CYCLE   32 ..............................
........................................................................
   1   -235.8301268 -0.235830E+03  0.125E-01    1.09       0.0  T
   2   -235.8301435 -0.166659E-04  0.713E-02    1.09       1.0  T
   3   -235.8301383  0.521721E-05  0.938E-03    1.09       1.0  T
   4   -235.8301492 -0.109832E-04  0.371E-03    1.09       2.2  T
   5   -235.8301497 -0.469188E-06  0.201E-03    1.09       4.1  T
   6   -235.8301501 -0.422816E-06  0.848E-04    1.09       9.8  T
   7   -235.8301502 -0.104226E-06  0.309E-04    1.09      26.9  T
     SCC iter.                  ...        0 min,  0.268 sec
     gradient                   ...        0 min,  0.318 sec
 * total energy  :  -231.7210628 Eh     change       -0.6034586E-03 Eh
   gradient norm :     0.0118954 Eh/α   predicted    -0.6707857E-03 (  11.16%)
   displ. norm   :     0.6905821 α      lambda       -0.6983832E-03
   maximum displ.:     0.3859576 α      in ANC's #1, #4, #2, ...

........................................................................
.............................. CYCLE   33 ..............................
........................................................................
   1   -235.8345642 -0.235835E+03  0.939E-02    1.10       0.0  T
   2   -235.8345729 -0.870762E-05  0.537E-02    1.09       1.0  T
   3   -235.8345428  0.301572E-04  0.140E-02    1.10       1.0  T
   4   -235.8345780 -0.352751E-04  0.288E-03    1.09       2.9  T
   5   -235.8345782 -0.140216E-06  0.183E-03    1.09       4.5  T
   6   -235.8345785 -0.369091E-06  0.533E-04    1.09      15.6  T
   7   -235.8345786 -0.348221E-07  0.227E-04    1.09      36.6  T
     SCC iter.                  ...        0 min,  0.258 sec
     gradient                   ...        0 min,  0.313 sec
 * total energy  :  -231.7216621 Eh     change       -0.5992658E-03 Eh
   gradient norm :     0.0113004 Eh/α   predicted    -0.5157273E-03 ( -13.94%)
   displ. norm   :     0.7660769 α      lambda       -0.7854094E-03
   maximum displ.:     0.4121226 α      in ANC's #1, #4, #2, ...

........................................................................
.............................. CYCLE   34 ..............................
........................................................................
   1   -235.8437126 -0.235844E+03  0.893E-02    1.10       0.0  T
   2   -235.8437186 -0.602014E-05  0.518E-02    1.10       1.0  T
   3   -235.8436705  0.481509E-04  0.172E-02    1.10       1.0  T
   4   -235.8437229 -0.524250E-04  0.299E-03    1.10       2.8  T
   5   -235.8437236 -0.734635E-06  0.183E-03    1.10       4.5  T
   6   -235.8437240 -0.349378E-06  0.687E-04    1.10      12.1  T
   7   -235.8437240 -0.404941E-07  0.279E-04    1.10      29.7  T
     SCC iter.                  ...        0 min,  0.261 sec
     gradient                   ...        0 min,  0.313 sec
 * total energy  :  -231.7222677 Eh     change       -0.6055648E-03 Eh
   gradient norm :     0.0116564 Eh/α   predicted    -0.6231781E-03 (   2.91%)
   displ. norm   :     0.8166141 α      lambda       -0.7315321E-03
   maximum displ.:     0.4627725 α      in ANC's #1, #4, #2, ...

........................................................................
.............................. CYCLE   35 ..............................
........................................................................
   1   -235.8394067 -0.235839E+03  0.115E-01    1.10       0.0  T
   2   -235.8394233 -0.166191E-04  0.655E-02    1.10       1.0  T
   3   -235.8393871  0.362694E-04  0.178E-02    1.10       1.0  T
   4   -235.8394315 -0.444221E-04  0.386E-03    1.10       2.2  T
   5   -235.8394317 -0.271384E-06  0.257E-03    1.10       3.2  T
   6   -235.8394326 -0.848679E-06  0.638E-04    1.10      13.0  T
   7   -235.8394326 -0.345713E-07  0.265E-04    1.10      31.3  T
     SCC iter.                  ...        0 min,  0.262 sec
     gradient                   ...        0 min,  0.314 sec
 * total energy  :  -231.7228714 Eh     change       -0.6036836E-03 Eh
   gradient norm :     0.0074035 Eh/α   predicted    -0.6096858E-03 (   0.99%)
   displ. norm   :     0.8485757 α      lambda       -0.6358429E-03
   maximum displ.:     0.4680493 α      in ANC's #1, #4, #2, ...

........................................................................
.............................. CYCLE   36 ..............................
........................................................................
   1   -235.8339466 -0.235834E+03  0.100E-01    1.10       0.0  T
   2   -235.8339553 -0.875023E-05  0.578E-02    1.10       1.0  T
   3   -235.8339256  0.296722E-04  0.140E-02    1.10       1.0  T
   4   -235.8339602 -0.345510E-04  0.308E-03    1.10       2.7  T
   5   -235.8339605 -0.356654E-06  0.200E-03    1.10       4.2  T
   6   -235.8339609 -0.352437E-06  0.644E-04    1.10      12.9  T
   7   -235.8339609 -0.447372E-07  0.276E-04    1.10      30.1  T
     SCC iter.                  ...        0 min,  0.262 sec
     gradient                   ...        0 min,  0.312 sec
 * total energy  :  -231.7234275 Eh     change       -0.5561265E-03 Eh
   gradient norm :     0.0082518 Eh/α   predicted    -0.5468577E-03 (  -1.67%)
   displ. norm   :     0.7545576 α      lambda       -0.7514674E-03
   maximum displ.:     0.3737524 α      in ANC's #1, #4, #6, ...

........................................................................
.............................. CYCLE   37 ..............................
........................................................................
   1   -235.8526957 -0.235853E+03  0.819E-02    1.10       0.0  T
   2   -235.8526989 -0.322814E-05  0.487E-02    1.10       1.0  T
   3   -235.8525170  0.181951E-03  0.326E-02    1.11       1.0  T
   4   -235.8527168 -0.199855E-03  0.358E-03    1.10       2.3  T
   5   -235.8527180 -0.118912E-05  0.194E-03    1.10       4.3  T
   6   -235.8527183 -0.248434E-06  0.961E-04    1.10       8.6  T
   7   -235.8527184 -0.133120E-06  0.300E-04    1.10      27.7  T
     SCC iter.                  ...        0 min,  0.264 sec
     gradient                   ...        0 min,  0.313 sec
 * total energy  :  -231.7237974 Eh     change       -0.3699390E-03 Eh
   gradient norm :     0.0135535 Eh/α   predicted    -0.5896673E-03 (  59.40%)
   displ. norm   :     0.6885322 α      lambda       -0.8268268E-03
   maximum displ.:     0.3793845 α      in ANC's #1, #4, #2, ...

........................................................................
.............................. CYCLE   38 ..............................
........................................................................
   1   -235.8377480 -0.235838E+03  0.922E-02    1.10       0.0  T
   2   -235.8377553 -0.721896E-05  0.538E-02    1.10       1.0  T
   3   -235.8376819  0.733987E-04  0.224E-02    1.09       1.0  T
   4   -235.8377621 -0.802609E-04  0.370E-03    1.10       2.2  T
   5   -235.8377633 -0.117404E-05  0.199E-03    1.10       4.2  T
   6   -235.8377636 -0.274346E-06  0.838E-04    1.10       9.9  T
   7   -235.8377637 -0.946458E-07  0.286E-04    1.10      29.0  T
     SCC iter.                  ...        0 min,  0.261 sec
     gradient                   ...        0 min,  0.312 sec
 * total energy  :  -231.7243465 Eh     change       -0.5491209E-03 Eh
   gradient norm :     0.0126516 Eh/α   predicted    -0.6094053E-03 (  10.98%)
   displ. norm   :     0.7280352 α      lambda       -0.6033352E-03
   maximum displ.:     0.4021804 α      in ANC's #1, #4, #2, ...

........................................................................
.............................. CYCLE   39 ..............................
........................................................................
   1   -235.8323612 -0.235832E+03  0.834E-02    1.10       0.0  T
   2   -235.8323681 -0.691072E-05  0.488E-02    1.10       1.0  T
   3   -235.8323150  0.530334E-04  0.181E-02    1.10       1.0  T
   4   -235.8323729 -0.578957E-04  0.306E-03    1.10       2.7  T
   5   -235.8323736 -0.680499E-06  0.166E-03    1.10       5.0  T
   6   -235.8323738 -0.218411E-06  0.785E-04    1.10      10.6  T
   7   -235.8323739 -0.684443E-07  0.320E-04    1.10      26.0  T
     SCC iter.                  ...        0 min,  0.262 sec
     gradient                   ...        0 min,  0.312 sec
 * total energy  :  -231.7246901 Eh     change       -0.3435487E-03 Eh
   gradient norm :     0.0161808 Eh/α   predicted    -0.4615646E-03 (  34.35%)
   displ. norm   :     0.6325575 α      lambda       -0.5938193E-03
   maximum displ.:     0.3374030 α      in ANC's #1, #4, #6, ...

........................................................................
.............................. CYCLE   40 ..............................
........................................................................
   1   -235.8283859 -0.235828E+03  0.874E-02    1.10       0.0  T
   2   -235.8283981 -0.121358E-04  0.497E-02    1.10       1.0  T
   3   -235.8283819  0.161251E-04  0.127E-02    1.10       1.0  T
   4   -235.8284034 -0.214778E-04  0.293E-03    1.10       2.8  T
   5   -235.8284035 -0.835819E-07  0.174E-03    1.10       4.8  T
   6   -235.8284038 -0.329434E-06  0.754E-04    1.10      11.0  T
   7   -235.8284039 -0.746205E-07  0.253E-04    1.10      32.8  T
     SCC iter.                  ...        0 min,  0.262 sec
     gradient                   ...        0 min,  0.314 sec
 * total energy  :  -231.7250983 Eh     change       -0.4081857E-03 Eh
   gradient norm :     0.0135605 Eh/α   predicted    -0.4157152E-03 (   1.84%)
   displ. norm   :     0.5308600 α      lambda       -0.6040039E-03
   maximum displ.:     0.2487040 α      in ANC's #1, #4, #6, ...

........................................................................
.............................. CYCLE   41 ..............................
........................................................................
   1   -235.8423974 -0.235842E+03  0.595E-02    1.10       0.0  T
   2   -235.8424000 -0.255025E-05  0.352E-02    1.10       1.0  T
   3   -235.8423302  0.697801E-04  0.214E-02    1.10       1.0  T
   4   -235.8424075 -0.772565E-04  0.226E-03    1.10       3.7  T
   5   -235.8424077 -0.226949E-06  0.139E-03    1.10       6.0  T
   6   -235.8424079 -0.177176E-06  0.647E-04    1.10      12.8  T
   7   -235.8424079 -0.529847E-07  0.254E-04    1.10      32.7  T
     SCC iter.                  ...        0 min,  0.262 sec
     gradient                   ...        0 min,  0.312 sec
 * total energy  :  -231.7254961 Eh     change       -0.3978105E-03 Eh
   gradient norm :     0.0125487 Eh/α   predicted    -0.3871137E-03 (  -2.69%)
   displ. norm   :     0.7602158 α      lambda       -0.5353426E-03
   maximum displ.:     0.4084091 α      in ANC's #1, #4, #6, ...

........................................................................
.............................. CYCLE   42 ..............................
........................................................................
   1   -235.8426495 -0.235843E+03  0.830E-02    1.10       0.0  T
   2   -235.8426569 -0.739274E-05  0.481E-02    1.10       1.0  T
   3   -235.8426345  0.223706E-04  0.122E-02    1.10       1.0  T
   4   -235.8426601 -0.255803E-04  0.301E-03    1.10       2.8  T
   5   -235.8426608 -0.707003E-06  0.168E-03    1.10       4.9  T
   6   -235.8426610 -0.189689E-06  0.742E-04    1.10      11.2  T
   7   -235.8426611 -0.691140E-07  0.256E-04    1.10      32.4  T
     SCC iter.                  ...        0 min,  0.263 sec
     gradient                   ...        0 min,  0.312 sec
 * total energy  :  -231.7259370 Eh     change       -0.4408706E-03 Eh
   gradient norm :     0.0077541 Eh/α   predicted    -0.4223680E-03 (  -4.20%)
   displ. norm   :     0.7985861 α      lambda       -0.5173571E-03
   maximum displ.:     0.4242871 α      in ANC's #1, #4, #6, ...
 * RMSD in coord.:     1.0407251 α      energy gain  -0.1044726E-01 Eh

generating ANC from model Hessian ...
Using Lindh-Hessian (1995)
 Shifting diagonal of input Hessian by   9.996569242847109E-003
 Lowest  eigenvalues of input Hessian
    0.000000    0.000000    0.000000    0.000000    0.000000    0.000000
    0.010000    0.010010    0.010014    0.010040    0.010053    0.010082
    0.010091    0.010137    0.010169    0.010190    0.010262    0.010311
 Highest eigenvalues
    2.269437    2.270855    2.603016    2.611284    2.639723    2.652387
 

........................................................................
.............................. CYCLE   43 ..............................
........................................................................
   1   -235.8388967 -0.235839E+03  0.910E-02    1.10       0.0  T
   2   -235.8389056 -0.884740E-05  0.526E-02    1.10       1.0  T
   3   -235.8388743  0.313229E-04  0.137E-02    1.10       1.0  T
   4   -235.8389095 -0.351919E-04  0.336E-03    1.10       2.5  T
   5   -235.8389103 -0.822484E-06  0.187E-03    1.10       4.4  T
   6   -235.8389106 -0.364066E-06  0.816E-04    1.10      10.2  T
   7   -235.8389107 -0.800521E-07  0.320E-04    1.10      25.9  T
     SCC iter.                  ...        0 min,  0.263 sec
     gradient                   ...        0 min,  0.312 sec
 * total energy  :  -231.7263436 Eh     change       -0.4066627E-03 Eh
   gradient norm :     0.0103324 Eh/α   predicted     0.0000000E+00 (-100.00%)
   displ. norm   :     0.0955805 α      lambda       -0.2254956E-03
   maximum displ.:     0.0490341 α      in ANC's #1, #17, #34, ...

........................................................................
.............................. CYCLE   44 ..............................
........................................................................
   1   -235.8438455 -0.235844E+03  0.546E-02    1.10       0.0  T
   2   -235.8438526 -0.712588E-05  0.304E-02    1.10       1.0  T
   3   -235.8438375  0.151008E-04  0.993E-03    1.10       1.0  T
   4   -235.8438560 -0.184261E-04  0.184E-03    1.10       4.5  T
   5   -235.8438563 -0.342609E-06  0.995E-04    1.10       8.3  T
   6   -235.8438564 -0.879547E-07  0.428E-04    1.10      19.4  T
     SCC iter.                  ...        0 min,  0.226 sec
     gradient                   ...        0 min,  0.311 sec
 * total energy  :  -231.7264032 Eh     change       -0.5954909E-04 Eh
   gradient norm :     0.0055808 Eh/α   predicted    -0.1137829E-03 (  91.07%)
   displ. norm   :     0.1527522 α      lambda       -0.3354211E-03
   maximum displ.:     0.0649903 α      in ANC's #1, #16, #18, ...

........................................................................
.............................. CYCLE   45 ..............................
........................................................................
   1   -235.8524925 -0.235852E+03  0.478E-02    1.10       0.0  T
   2   -235.8524966 -0.409261E-05  0.273E-02    1.10       1.0  T
   3   -235.8524568  0.398638E-04  0.147E-02    1.11       1.0  T
   4   -235.8525008 -0.440632E-04  0.207E-03    1.10       4.0  T
   5   -235.8525013 -0.433741E-06  0.108E-03    1.10       7.7  T
   6   -235.8525013 -0.821520E-07  0.532E-04    1.10      15.6  T
   7   -235.8525014 -0.280574E-07  0.218E-04    1.10      38.1  T
     SCC iter.                  ...        0 min,  0.262 sec
     gradient                   ...        0 min,  0.313 sec
 * total energy  :  -231.7264964 Eh     change       -0.9327246E-04 Eh
   gradient norm :     0.0138783 Eh/α   predicted    -0.1716242E-03 (  84.00%)
   displ. norm   :     0.0855828 α      lambda       -0.2015660E-03
   maximum displ.:     0.0478028 α      in ANC's #1, #25, #4, ...

........................................................................
.............................. CYCLE   46 ..............................
........................................................................
   1   -235.8495814 -0.235850E+03  0.326E-02    1.10       0.0  T
   2   -235.8495838 -0.237664E-05  0.183E-02    1.10       1.0  T
   3   -235.8495797  0.400385E-05  0.561E-03    1.10       1.5  T
   4   -235.8495848 -0.505212E-05  0.107E-03    1.10       7.8  T
   5   -235.8495849 -0.584323E-07  0.644E-04    1.10      12.9  T
   6   -235.8495849 -0.441690E-07  0.282E-04    1.10      29.4  T
     SCC iter.                  ...        0 min,  0.225 sec
     gradient                   ...        0 min,  0.312 sec
 * total energy  :  -231.7266179 Eh     change       -0.1214920E-03 Eh
   gradient norm :     0.0047400 Eh/α   predicted    -0.1015214E-03 ( -16.44%)
   displ. norm   :     0.1939768 α      lambda       -0.2537512E-03
   maximum displ.:     0.1004192 α      in ANC's #1, #6, #4, ...

........................................................................
.............................. CYCLE   47 ..............................
........................................................................
   1   -235.8429337 -0.235843E+03  0.495E-02    1.10       0.0  T
   2   -235.8429385 -0.481734E-05  0.280E-02    1.10       1.0  T
   3   -235.8429250  0.135087E-04  0.103E-02    1.10       1.0  T
   4   -235.8429411 -0.161170E-04  0.188E-03    1.10       4.4  T
   5   -235.8429413 -0.185044E-06  0.111E-03    1.10       7.5  T
   6   -235.8429414 -0.104017E-06  0.485E-04    1.10      17.1  T
   7   -235.8429414 -0.260968E-07  0.196E-04    1.10      42.3  T
     SCC iter.                  ...        0 min,  0.263 sec
     gradient                   ...        0 min,  0.312 sec
 * total energy  :  -231.7267159 Eh     change       -0.9795400E-04 Eh
   gradient norm :     0.0112617 Eh/α   predicted    -0.1316520E-03 (  34.40%)
   displ. norm   :     0.2655456 α      lambda       -0.2690303E-03
   maximum displ.:     0.1530022 α      in ANC's #1, #4, #18, ...

........................................................................
.............................. CYCLE   48 ..............................
........................................................................
   1   -235.8402071 -0.235840E+03  0.648E-02    1.10       0.0  T
   2   -235.8402148 -0.769692E-05  0.362E-02    1.10       1.0  T
   3   -235.8402119  0.286686E-05  0.626E-03    1.10       1.3  T
   4   -235.8402178 -0.586266E-05  0.214E-03    1.10       3.9  T
   5   -235.8402179 -0.105600E-06  0.135E-03    1.10       6.2  T
   6   -235.8402182 -0.239072E-06  0.307E-04    1.10      27.1  T
   7   -235.8402182 -0.573203E-08  0.166E-04    1.10      50.1  T
     SCC iter.                  ...        0 min,  0.262 sec
     gradient                   ...        0 min,  0.314 sec
 * total energy  :  -231.7268076 Eh     change       -0.9174228E-04 Eh
   gradient norm :     0.0152307 Eh/α   predicted    -0.1440008E-03 (  56.96%)
   displ. norm   :     0.3359595 α      lambda       -0.4106346E-03
   maximum displ.:     0.1829637 α      in ANC's #1, #6, #4, ...

........................................................................
.............................. CYCLE   49 ..............................
........................................................................
   1   -235.8436746 -0.235844E+03  0.568E-02    1.10       0.0  T
   2   -235.8436783 -0.368868E-05  0.326E-02    1.10       1.0  T
   3   -235.8436612  0.171268E-04  0.108E-02    1.10       1.0  T
   4   -235.8436803 -0.190924E-04  0.240E-03    1.10       3.5  T
   5   -235.8436806 -0.283135E-06  0.148E-03    1.10       5.6  T
   6   -235.8436809 -0.284129E-06  0.482E-04    1.10      17.2  T
   7   -235.8436809 -0.253309E-07  0.207E-04    1.10      40.2  T
     SCC iter.                  ...        0 min,  0.262 sec
     gradient                   ...        0 min,  0.312 sec
 * total energy  :  -231.7270461 Eh     change       -0.2384890E-03 Eh
   gradient norm :     0.0059583 Eh/α   predicted    -0.2284926E-03 (  -4.19%)
   displ. norm   :     0.3522191 α      lambda       -0.2300285E-03
   maximum displ.:     0.2065689 α      in ANC's #1, #6, #4, ...

........................................................................
.............................. CYCLE   50 ..............................
........................................................................
   1   -235.8440978 -0.235844E+03  0.589E-02    1.10       0.0  T
   2   -235.8441018 -0.397019E-05  0.336E-02    1.10       1.0  T
   3   -235.8440967  0.510299E-05  0.640E-03    1.10       1.3  T
   4   -235.8441034 -0.669268E-05  0.210E-03    1.10       4.0  T
   5   -235.8441035 -0.631286E-07  0.136E-03    1.10       6.1  T
   6   -235.8441037 -0.294697E-06  0.372E-04    1.10      22.3  T
   7   -235.8441038 -0.144852E-07  0.171E-04    1.10      48.5  T
     SCC iter.                  ...        0 min,  0.264 sec
     gradient                   ...        0 min,  0.313 sec
 * total energy  :  -231.7272131 Eh     change       -0.1669811E-03 Eh
   gradient norm :     0.0053660 Eh/α   predicted    -0.1292918E-03 ( -22.57%)
   displ. norm   :     0.5599184 α      lambda       -0.3404977E-03
   maximum displ.:     0.3404674 α      in ANC's #1, #6, #4, ...

........................................................................
.............................. CYCLE   51 ..............................
........................................................................
   1   -235.8442291 -0.235844E+03  0.864E-02    1.10       0.0  T
   2   -235.8442363 -0.715697E-05  0.496E-02    1.10       1.0  T
   3   -235.8442270  0.926624E-05  0.877E-03    1.11       1.0  T
   4   -235.8442390 -0.120288E-04  0.301E-03    1.10       2.8  T
   5   -235.8442394 -0.312612E-06  0.173E-03    1.10       4.8  T
   6   -235.8442397 -0.391689E-06  0.528E-04    1.10      15.7  T
   7   -235.8442398 -0.263082E-07  0.260E-04    1.10      32.0  T
     SCC iter.                  ...        0 min,  0.261 sec
     gradient                   ...        0 min,  0.312 sec
 * total energy  :  -231.7274344 Eh     change       -0.2213146E-03 Eh
   gradient norm :     0.0053841 Eh/α   predicted    -0.2236338E-03 (   1.05%)
   displ. norm   :     0.5302224 α      lambda       -0.2432435E-03
   maximum displ.:     0.3320663 α      in ANC's #1, #6, #4, ...

........................................................................
.............................. CYCLE   52 ..............................
........................................................................
   1   -235.8425954 -0.235843E+03  0.763E-02    1.10       0.0  T
   2   -235.8426005 -0.512582E-05  0.439E-02    1.10       1.0  T
   3   -235.8425970  0.352217E-05  0.632E-03    1.11       1.3  T
   4   -235.8426025 -0.547323E-05  0.237E-03    1.10       3.5  T
   5   -235.8426027 -0.161185E-06  0.122E-03    1.10       6.8  T
   6   -235.8426028 -0.190301E-06  0.401E-04    1.10      20.7  T
   7   -235.8426029 -0.153424E-07  0.206E-04    1.10      40.4  T
     SCC iter.                  ...        0 min,  0.264 sec
     gradient                   ...        0 min,  0.311 sec
 * total energy  :  -231.7276371 Eh     change       -0.2026970E-03 Eh
   gradient norm :     0.0045363 Eh/α   predicted    -0.1558152E-03 ( -23.13%)
   displ. norm   :     0.3874563 α      lambda       -0.2553567E-03
   maximum displ.:     0.2401971 α      in ANC's #1, #6, #4, ...

........................................................................
.............................. CYCLE   53 ..............................
........................................................................
   1   -235.8487576 -0.235849E+03  0.526E-02    1.11       0.0  T
   2   -235.8487598 -0.221356E-05  0.306E-02    1.11       1.0  T
   3   -235.8487433  0.165447E-04  0.988E-03    1.11       1.0  T
   4   -235.8487615 -0.181909E-04  0.163E-03    1.11       5.1  T
   5   -235.8487616 -0.131259E-06  0.102E-03    1.11       8.1  T
   6   -235.8487617 -0.104261E-06  0.404E-04    1.11      20.6  T
   7   -235.8487617 -0.157529E-07  0.165E-04    1.11      50.2  T
     SCC iter.                  ...        0 min,  0.265 sec
     gradient                   ...        0 min,  0.314 sec
 * total energy  :  -231.7278285 Eh     change       -0.1913370E-03 Eh
   gradient norm :     0.0065518 Eh/α   predicted    -0.1468463E-03 ( -23.25%)
   displ. norm   :     0.5321733 α      lambda       -0.2879087E-03
   maximum displ.:     0.3279119 α      in ANC's #1, #6, #4, ...

........................................................................
.............................. CYCLE   54 ..............................
........................................................................
   1   -235.8463580 -0.235846E+03  0.728E-02    1.11       0.0  T
   2   -235.8463626 -0.452717E-05  0.421E-02    1.11       1.0  T
   3   -235.8463572  0.539374E-05  0.713E-03    1.11       1.2  T
   4   -235.8463645 -0.735715E-05  0.198E-03    1.11       4.2  T
   5   -235.8463646 -0.494019E-07  0.124E-03    1.11       6.7  T
   6   -235.8463647 -0.153390E-06  0.477E-04    1.11      17.4  T
   7   -235.8463648 -0.275165E-07  0.183E-04    1.11      45.3  T
     SCC iter.                  ...        0 min,  0.262 sec
     gradient                   ...        0 min,  0.311 sec
 * total energy  :  -231.7280743 Eh     change       -0.2457998E-03 Eh
   gradient norm :     0.0050074 Eh/α   predicted    -0.1847258E-03 ( -24.85%)
   displ. norm   :     0.7272771 α      lambda       -0.3766800E-03
   maximum displ.:     0.4526322 α      in ANC's #1, #6, #4, ...

........................................................................
.............................. CYCLE   55 ..............................
........................................................................
   1   -235.8446064 -0.235845E+03  0.916E-02    1.11       0.0  T
   2   -235.8446113 -0.495436E-05  0.533E-02    1.11       1.0  T
   3   -235.8446033  0.803396E-05  0.886E-03    1.11       1.0  T
   4   -235.8446139 -0.105744E-04  0.200E-03    1.11       4.1  T
   5   -235.8446138  0.216708E-07  0.112E-03    1.11       7.4  T
   6   -235.8446140 -0.131001E-06  0.437E-04    1.11      19.0  T
   7   -235.8446140 -0.228864E-07  0.206E-04    1.11      40.3  T
     SCC iter.                  ...        0 min,  0.264 sec
     gradient                   ...        0 min,  0.312 sec
 * total energy  :  -231.7284077 Eh     change       -0.3334658E-03 Eh
   gradient norm :     0.0045537 Eh/α   predicted    -0.2879624E-03 ( -13.65%)
   displ. norm   :     0.7259743 α      lambda       -0.4021850E-03
   maximum displ.:     0.4529845 α      in ANC's #1, #4, #6, ...

........................................................................
.............................. CYCLE   56 ..............................
........................................................................
   1   -235.8450520 -0.235845E+03  0.860E-02    1.11       0.0  T
   2   -235.8450563 -0.432585E-05  0.501E-02    1.11       1.0  T
   3   -235.8450455  0.108073E-04  0.916E-03    1.11       1.0  T
   4   -235.8450585 -0.129603E-04  0.208E-03    1.11       4.0  T
   5   -235.8450586 -0.722304E-07  0.139E-03    1.11       6.0  T
   6   -235.8450588 -0.233333E-06  0.489E-04    1.11      17.0  T
   7   -235.8450588 -0.242572E-07  0.189E-04    1.11      44.0  T
     SCC iter.                  ...        0 min,  0.262 sec
     gradient                   ...        0 min,  0.315 sec
 * total energy  :  -231.7287497 Eh     change       -0.3420283E-03 Eh
   gradient norm :     0.0041765 Eh/α   predicted    -0.3070770E-03 ( -10.22%)
   displ. norm   :     0.7409156 α      lambda       -0.3502267E-03
   maximum displ.:     0.4656129 α      in ANC's #1, #4, #6, ...

........................................................................
.............................. CYCLE   57 ..............................
........................................................................
   1   -235.8445390 -0.235845E+03  0.834E-02    1.11       0.0  T
   2   -235.8445421 -0.314256E-05  0.487E-02    1.11       1.0  T
   3   -235.8445245  0.176623E-04  0.102E-02    1.11       1.0  T
   4   -235.8445442 -0.197507E-04  0.202E-03    1.11       4.1  T
   5   -235.8445444 -0.221014E-06  0.126E-03    1.11       6.6  T
   6   -235.8445446 -0.151575E-06  0.448E-04    1.11      18.5  T
   7   -235.8445446 -0.146906E-07  0.209E-04    1.11      39.7  T
     SCC iter.                  ...        0 min,  0.265 sec
     gradient                   ...        0 min,  0.311 sec
 * total energy  :  -231.7290500 Eh     change       -0.3002842E-03 Eh
   gradient norm :     0.0049510 Eh/α   predicted    -0.2712501E-03 (  -9.67%)
   displ. norm   :     0.7134814 α      lambda       -0.3484599E-03
   maximum displ.:     0.4551974 α      in ANC's #1, #4, #6, ...

........................................................................
.............................. CYCLE   58 ..............................
........................................................................
   1   -235.8455234 -0.235846E+03  0.828E-02    1.11       0.0  T
   2   -235.8455291 -0.564907E-05  0.479E-02    1.11       1.0  T
   3   -235.8455085  0.206030E-04  0.111E-02    1.11       1.0  T
   4   -235.8455323 -0.237948E-04  0.249E-03    1.11       3.3  T
   5   -235.8455325 -0.241473E-06  0.161E-03    1.11       5.2  T
   6   -235.8455328 -0.263083E-06  0.456E-04    1.11      18.2  T
   7   -235.8455328 -0.173513E-07  0.208E-04    1.11      39.9  T
     SCC iter.                  ...        0 min,  0.268 sec
     gradient                   ...        0 min,  0.313 sec
 * total energy  :  -231.7293216 Eh     change       -0.2715605E-03 Eh
   gradient norm :     0.0081169 Eh/α   predicted    -0.2629249E-03 (  -3.18%)
   displ. norm   :     0.7414882 α      lambda       -0.3463852E-03
   maximum displ.:     0.4710608 α      in ANC's #1, #6, #4, ...

........................................................................
.............................. CYCLE   59 ..............................
........................................................................
   1   -235.8460748 -0.235846E+03  0.793E-02    1.11       0.0  T
   2   -235.8460778 -0.294759E-05  0.464E-02    1.11       1.0  T
   3   -235.8460475  0.302334E-04  0.130E-02    1.11       1.0  T
   4   -235.8460806 -0.330955E-04  0.200E-03    1.11       4.2  T
   5   -235.8460809 -0.253711E-06  0.116E-03    1.11       7.1  T
   6   -235.8460810 -0.948225E-07  0.509E-04    1.11      16.3  T
   7   -235.8460810 -0.204566E-07  0.252E-04    1.11      33.0  T
     SCC iter.                  ...        0 min,  0.262 sec
     gradient                   ...        0 min,  0.311 sec
 * total energy  :  -231.7295926 Eh     change       -0.2709601E-03 Eh
   gradient norm :     0.0072520 Eh/α   predicted    -0.2684161E-03 (  -0.94%)
   displ. norm   :     0.7035147 α      lambda       -0.3164910E-03
   maximum displ.:     0.4612847 α      in ANC's #1, #6, #4, ...

........................................................................
.............................. CYCLE   60 ..............................
........................................................................
   1   -235.8429486 -0.235843E+03  0.835E-02    1.11       0.0  T
   2   -235.8429554 -0.677539E-05  0.481E-02    1.11       1.0  T
   3   -235.8429441  0.112571E-04  0.884E-03    1.11       1.0  T
   4   -235.8429584 -0.142842E-04  0.249E-03    1.11       3.3  T
   5   -235.8429586 -0.193564E-06  0.150E-03    1.11       5.5  T
   6   -235.8429589 -0.270631E-06  0.521E-04    1.11      15.9  T
   7   -235.8429589 -0.328424E-07  0.213E-04    1.11      39.0  T
     SCC iter.                  ...        0 min,  0.264 sec
     gradient                   ...        0 min,  0.311 sec
[...]
    47   6 C    3.886 --    46 C    1.421    43 C    1.154    50 S    1.134
    48   6 C    3.919 --    46 C    1.278    49 C    1.255    51 N    1.164
    49   6 C    3.915 --    53 C    1.329    48 C    1.255    50 S    1.105
    50  16 S    2.538 --    47 C    1.134    49 C    1.105
    51   7 N    3.569 --    48 C    1.164    52 C    1.149    58 C    0.985
    52   6 C    3.935 --    54 C    1.373    53 C    1.216    51 N    1.149
    53   6 C    3.939 --    49 C    1.329    52 C    1.216    56 S    1.161
    54   6 C    3.968 --    52 C    1.373    55 C    1.357   104 H    0.961
                            56 S    0.111
    55   6 C    3.927 --    54 C    1.357    22 C    1.313    56 S    1.093
    56  16 S    2.707 --    53 C    1.161    55 C    1.093    32 O    0.130
                            54 C    0.111
    57   6 C    3.983 --    68 C    1.413    72 C    1.404    40 C    0.952
                            70 C    0.105
    58   6 C    3.966 --    59 C    1.006    51 N    0.985   106 H    0.969
                           105 H    0.957
    59   6 C    3.989 --    58 C    1.006   109 H    0.986   108 H    0.984
                           107 H    0.980
    60   6 C    3.982 --    63 C    1.417    67 C    1.400    40 C    0.950
                            65 C    0.105
    61   6 C    3.983 --    78 C    1.411    82 C    1.398    45 C    0.958
                            80 C    0.105
    62   6 C    3.983 --    77 C    1.407    73 C    1.405    45 C    0.959
                            75 C    0.106
    63   6 C    3.991 --    64 C    1.441    60 C    1.417   110 H    0.967
                            66 C    0.107
    64   6 C    3.991 --    63 C    1.441    65 C    1.415   111 H    0.969
                            67 C    0.109
    65   6 C    3.986 --    64 C    1.415    66 C    1.404    83 C    1.013
                            60 C    0.105
    66   6 C    3.990 --    67 C    1.456    65 C    1.404   112 H    0.969
                            63 C    0.107
    67   6 C    3.990 --    66 C    1.456    60 C    1.400   113 H    0.967
                            64 C    0.109
    68   6 C    3.991 --    69 C    1.446    57 C    1.413   114 H    0.967
                            71 C    0.108
    69   6 C    3.991 --    68 C    1.446    70 C    1.412   115 H    0.969
                            72 C    0.109
    70   6 C    3.987 --    69 C    1.412    71 C    1.407    85 C    1.013
                            57 C    0.105
    71   6 C    3.990 --    72 C    1.451    70 C    1.407   116 H    0.969
                            68 C    0.108
    72   6 C    3.990 --    71 C    1.451    57 C    1.404   117 H    0.967
                            69 C    0.109
    73   6 C    3.991 --    74 C    1.455    62 C    1.405   118 H    0.968
                            76 C    0.108
    74   6 C    3.991 --    73 C    1.455    75 C    1.404   119 H    0.969
                            77 C    0.106
    75   6 C    3.986 --    76 C    1.413    74 C    1.404    89 C    1.014
                            62 C    0.106
    76   6 C    3.990 --    77 C    1.439    75 C    1.413   120 H    0.969
                            73 C    0.108
    77   6 C    3.989 --    76 C    1.439    62 C    1.407   121 H    0.962
                            74 C    0.106
    78   6 C    3.990 --    79 C    1.440    61 C    1.411   122 H    0.965
                            81 C    0.107
    79   6 C    3.991 --    78 C    1.440    80 C    1.414   123 H    0.969
                            82 C    0.108
    80   6 C    3.986 --    79 C    1.414    81 C    1.404    87 C    1.013
                            61 C    0.105
    81   6 C    3.990 --    82 C    1.453    80 C    1.404   124 H    0.969
                            78 C    0.107
    82   6 C    3.990 --    81 C    1.453    61 C    1.398   125 H    0.965
                            79 C    0.108
    83   6 C    3.997 --    65 C    1.013    84 C    1.001   126 H    0.974
                           127 H    0.974
    84   6 C    3.996 --    83 C    1.001   128 H    0.988   129 H    0.988
                           130 H    0.986
    85   6 C    3.997 --    70 C    1.013    86 C    1.000   131 H    0.974
                           132 H    0.974
    86   6 C    3.996 --    85 C    1.000   133 H    0.988   134 H    0.988
                           135 H    0.986
    87   6 C    3.997 --    80 C    1.013    88 C    1.000   136 H    0.974
                           137 H    0.974
    88   6 C    3.995 --    87 C    1.000   139 H    0.988   138 H    0.988
                           140 H    0.986
    89   6 C    3.997 --    75 C    1.014    90 C    1.000   141 H    0.974
                           142 H    0.974
    90   6 C    3.995 --    89 C    1.000   145 H    0.988   144 H    0.988
                           143 H    0.986
    91   1 H    0.995 --     1 C    0.942
    92   1 H    0.996 --     7 C    0.961
    93   1 H    0.997 --     8 C    0.970
    94   1 H    0.997 --     9 C    0.970
    95   1 H    0.996 --    10 C    0.966
    96   1 H    0.990 --    21 C    0.937
    97   1 H    0.995 --    22 C    0.939
    98   1 H    0.996 --    28 C    0.961
    99   1 H    0.997 --    29 C    0.970
   100   1 H    0.997 --    30 C    0.970
   101   1 H    0.996 --    31 C    0.966
   102   1 H    0.997 --    41 C    0.962
   103   1 H    0.996 --    44 C    0.963
   104   1 H    0.997 --    54 C    0.961
   105   1 H    0.995 --    58 C    0.957
   106   1 H    0.996 --    58 C    0.969
   107   1 H    0.997 --    59 C    0.980
   108   1 H    0.997 --    59 C    0.984
   109   1 H    0.997 --    59 C    0.986
   110   1 H    0.999 --    63 C    0.967
   111   1 H    0.998 --    64 C    0.969
   112   1 H    0.998 --    66 C    0.969
   113   1 H    0.998 --    67 C    0.967
   114   1 H    0.999 --    68 C    0.967
   115   1 H    0.998 --    69 C    0.969
   116   1 H    0.998 --    71 C    0.969
   117   1 H    0.999 --    72 C    0.967
   118   1 H    0.999 --    73 C    0.968
   119   1 H    0.998 --    74 C    0.969
   120   1 H    0.998 --    76 C    0.969
   121   1 H    0.998 --    77 C    0.962
   122   1 H    0.999 --    78 C    0.965
   123   1 H    0.998 --    79 C    0.969
   124   1 H    0.998 --    81 C    0.969
   125   1 H    0.998 --    82 C    0.965
   126   1 H    0.998 --    83 C    0.974
   127   1 H    0.998 --    83 C    0.974
   128   1 H    0.999 --    84 C    0.988
   129   1 H    0.999 --    84 C    0.988
   130   1 H    0.998 --    84 C    0.986
   131   1 H    0.998 --    85 C    0.974
   132   1 H    0.998 --    85 C    0.974
   133   1 H    0.999 --    86 C    0.988
   134   1 H    0.999 --    86 C    0.988
   135   1 H    0.998 --    86 C    0.986
   136   1 H    0.998 --    87 C    0.974
   137   1 H    0.998 --    87 C    0.974
   138   1 H    0.999 --    88 C    0.988
   139   1 H    0.999 --    88 C    0.988
   140   1 H    0.998 --    88 C    0.986
   141   1 H    0.998 --    89 C    0.974
   142   1 H    0.998 --    89 C    0.974
   143   1 H    0.998 --    90 C    0.986
   144   1 H    0.999 --    90 C    0.988
   145   1 H    0.999 --    90 C    0.988
 ---------------------------------------------------------------------------

Topologies differ in bond orders
Writing corrected topology to xtbtopo.mol

molecular dipole:
                 x           y           z       tot (Debye)
 q only:       -1.370       0.348      -0.146
   full:       -1.825       0.523      -0.314       4.892
molecular quadrupole (traceless):
                xx          xy          yy          xz          yz          zz
 q only:       45.301      16.869      51.745      44.304     -42.032     -97.045
  q+dip:       47.636      15.682      53.271      43.389     -42.304    -100.907
   full:       46.771      25.263      60.941      40.395     -42.749    -107.712

           -------------------------------------------------
          |                Geometry Summary                 |
           -------------------------------------------------

      molecular mass/u    :     1214.5223014
   center of mass at/Å    :        0.2419579      -0.2414291      -0.2474400
  moments of inertia/u·Å² :        0.1575432E+05   0.6799259E+05   0.7312412E+05
rotational constants/cm⁻¹ :        0.1070032E-02   0.2479334E-03   0.2305345E-03

 * 133 selected distances

     #   Z          #   Z                                           value/Å
     1   6 C        2   6 C                                       1.3718626
     4   6 C        5   6 C                                       1.4039890
     4   6 C        7   6 C                                       1.3862726
     7   6 C        8   6 C                                       1.3888549
     8   6 C        9   6 C                                       1.3873954
     5   6 C       10   6 C                                       1.3810002
     9   6 C       10   6 C                                       1.3875578
     6   6 C       11   8 O                                       1.2147869
     3   6 C       12   6 C                                       1.3710841
    13   6 C       15   7 N                                       1.1491652
    14   6 C       16   7 N                                       1.1483114
     1   6 C       17   6 C                                       1.4040514
    18  16 S       19   6 C                                       1.7059378
    19   6 C       20   6 C                                       1.3944850
    17   6 C       21   6 C                                       1.3923849
    20   6 C       21   6 C                                       1.3826291
    22   6 C       23   6 C                                       1.3733111
    25   6 C       26   6 C                                       1.4058092
    25   6 C       28   6 C                                       1.3857246
    28   6 C       29   6 C                                       1.3894516
    29   6 C       30   6 C                                       1.3869104
    26   6 C       31   6 C                                       1.3803768
    30   6 C       31   6 C                                       1.3882265
    27   6 C       32   8 O                                       1.2180658
    24   6 C       33   6 C                                       1.3722404
    34   6 C       36   7 N                                       1.1484960
    35   6 C       37   7 N                                       1.1495668
    19   6 C       38   6 C                                       1.4268799
    38   6 C       39   6 C                                       1.4150264
    38   6 C       41   6 C                                       1.3938735
    41   6 C       42   6 C                                       1.3737517
    42   6 C       43   6 C                                       1.4136259
    39   6 C       44   6 C                                       1.3751337
    43   6 C       44   6 C                                       1.3921669
    43   6 C       47   6 C                                       1.4270980
    46   6 C       47   6 C                                       1.3879713
    46   6 C       48   6 C                                       1.3995960
    48   6 C       49   6 C                                       1.4225731
    47   6 C       50  16 S                                       1.7300016
    49   6 C       50  16 S                                       1.7321532 (max)
    48   6 C       51   7 N                                       1.3700357
    51   7 N       52   6 C                                       1.3720117
    49   6 C       53   6 C                                       1.3912011
    52   6 C       53   6 C                                       1.4209391
    52   6 C       54   6 C                                       1.3806177
    22   6 C       55   6 C                                       1.3997954
    54   6 C       55   6 C                                       1.4003640
    53   6 C       56  16 S                                       1.7204986
    51   7 N       58   6 C                                       1.4406423
    58   6 C       59   6 C                                       1.5269418
    60   6 C       63   6 C                                       1.3867936
    63   6 C       64   6 C                                       1.3837033
    64   6 C       65   6 C                                       1.3875645
    65   6 C       66   6 C                                       1.3895080
    60   6 C       67   6 C                                       1.3900821
    66   6 C       67   6 C                                       1.3807427
    57   6 C       68   6 C                                       1.3875558
    68   6 C       69   6 C                                       1.3827808
    69   6 C       70   6 C                                       1.3880555
    70   6 C       71   6 C                                       1.3889799
    57   6 C       72   6 C                                       1.3892324
    71   6 C       72   6 C                                       1.3816982
    62   6 C       73   6 C                                       1.3905357
    73   6 C       74   6 C                                       1.3812779
    74   6 C       75   6 C                                       1.3892736
    75   6 C       76   6 C                                       1.3877154
    62   6 C       77   6 C                                       1.3890767
    76   6 C       77   6 C                                       1.3841484
    61   6 C       78   6 C                                       1.3888266
    78   6 C       79   6 C                                       1.3839224
    79   6 C       80   6 C                                       1.3873833
    80   6 C       81   6 C                                       1.3891397
    61   6 C       82   6 C                                       1.3909701
    81   6 C       82   6 C                                       1.3814622
    83   6 C       84   6 C                                       1.5300904
    85   6 C       86   6 C                                       1.5301152
    87   6 C       88   6 C                                       1.5300939
    89   6 C       90   6 C                                       1.5301442
     1   6 C       91   1 H                                       1.0840934
     7   6 C       92   1 H                                       1.0774675
     8   6 C       93   1 H                                       1.0797561
     9   6 C       94   1 H                                       1.0796874
    10   6 C       95   1 H                                       1.0792471
    21   6 C       96   1 H                                       1.0737539 (min)
    22   6 C       97   1 H                                       1.0833625
    28   6 C       98   1 H                                       1.0775662
    29   6 C       99   1 H                                       1.0797872
    30   6 C      100   1 H                                       1.0796590
    31   6 C      101   1 H                                       1.0792196
    41   6 C      102   1 H                                       1.0783585
    44   6 C      103   1 H                                       1.0788615
    54   6 C      104   1 H                                       1.0753869
    58   6 C      105   1 H                                       1.0915424
    58   6 C      106   1 H                                       1.0939753
    59   6 C      107   1 H                                       1.0874701
    59   6 C      108   1 H                                       1.0864306
    59   6 C      109   1 H                                       1.0875428
    63   6 C      110   1 H                                       1.0804218
    64   6 C      111   1 H                                       1.0809178
    66   6 C      112   1 H                                       1.0804066
    67   6 C      113   1 H                                       1.0798629
    68   6 C      114   1 H                                       1.0803397
    69   6 C      115   1 H                                       1.0807901
    71   6 C      116   1 H                                       1.0807677
    72   6 C      117   1 H                                       1.0804628
    73   6 C      118   1 H                                       1.0807070
    74   6 C      119   1 H                                       1.0805010
    76   6 C      120   1 H                                       1.0808232
    77   6 C      121   1 H                                       1.0806345
    78   6 C      122   1 H                                       1.0802544
    79   6 C      123   1 H                                       1.0808213
    81   6 C      124   1 H                                       1.0806306
    82   6 C      125   1 H                                       1.0796797
    83   6 C      126   1 H                                       1.0919390
    83   6 C      127   1 H                                       1.0917588
    84   6 C      128   1 H                                       1.0877849
    84   6 C      129   1 H                                       1.0877288
    84   6 C      130   1 H                                       1.0875249
    85   6 C      131   1 H                                       1.0918274
    85   6 C      132   1 H                                       1.0918327
    86   6 C      133   1 H                                       1.0877933
    86   6 C      134   1 H                                       1.0877333
    86   6 C      135   1 H                                       1.0874947
    87   6 C      136   1 H                                       1.0918456
    87   6 C      137   1 H                                       1.0918376
    88   6 C      138   1 H                                       1.0877005
    88   6 C      139   1 H                                       1.0877847
    88   6 C      140   1 H                                       1.0873428
    89   6 C      141   1 H                                       1.0917189
    89   6 C      142   1 H                                       1.0919561
    90   6 C      143   1 H                                       1.0873123
    90   6 C      144   1 H                                       1.0877085
    90   6 C      145   1 H                                       1.0876503

 * 5 distinct bonds (by element types)

   Z      Z             #   av. dist./Å        max./Å        min./Å
   1 H    6 C          55     1.0841357     1.0939753     1.0737539
   6 C    6 C          65     1.4012622     1.5301442     1.3710841
   6 C    7 N           7     1.2540327     1.4406423     1.1483114
   6 C    8 O           2     1.2164263     1.2180658     1.2147869
   6 C   16 S           4     1.7221478     1.7321532     1.7059378


optimized geometry written to: xtbopt.mol


           -------------------------------------------------
          | TOTAL ENERGY             -231.733122771146 Eh   |
          | GRADIENT NORM               0.000900981109 Eh/α |
          | HOMO-LUMO GAP               1.111808405698 eV   |
           -------------------------------------------------

------------------------------------------------------------------------
 * finished run on 2021/12/22 at 16:05:11.374     
------------------------------------------------------------------------
 total:
 * wall-time:     0 d,  0 h,  1 min, 26.325 sec
 *  cpu-time:     0 d,  0 h,  1 min, 26.173 sec
 * ratio c/w:     0.998 speedup
 SCF:
 * wall-time:     0 d,  0 h,  0 min,  0.889 sec
 *  cpu-time:     0 d,  0 h,  0 min,  0.889 sec
 * ratio c/w:     1.000 speedup
 ANC optimizer:
 * wall-time:     0 d,  0 h,  1 min, 25.349 sec
 *  cpu-time:     0 d,  0 h,  1 min, 25.198 sec
 * ratio c/w:     0.998 speedup

