193
 energy: -334.466731789915 gnorm: 0.315843812248 xtb: 6.4.1 (unknown)
C        -1.39940000000000    9.87080000000000    3.73330000000000
C        -0.61930000000000    9.29070000000000    4.66960000000000
C        -0.93600000000000    8.04790000000000    5.39370000000000
O        -1.92350000000000    7.28620000000000    5.19120000000000
C         0.02750000000000    7.87610000000000    6.45270000000000
C         0.07320000000000    6.86910000000000    7.41540000000000
C         1.08150000000000    6.91670000000000    8.39020000000000
Cl        1.16280000000000    5.63550000000000    9.58900000000000
C         2.01040000000000    7.98340000000000    8.39040000000000
Cl        3.27320000000000    8.08220000000000    9.61060000000000
C         1.93300000000000    8.99200000000000    7.41360000000000
C         0.94720000000000    8.90960000000000    6.41710000000000
C         0.66650000000000    9.79570000000000    5.24670000000000
C         1.56840000000000   10.60850000000000    4.62870000000000
C         1.34340000000000   11.14920000000000    3.31210000000000
N         1.17480000000000   11.57860000000000    2.24970000000000
C         2.88710000000000   10.85780000000000    5.15870000000000
N         3.95010000000000   11.06760000000000    5.56600000000000
C        -2.47880000000000    9.11730000000000    3.07870000000000
C        -2.14540000000000    8.28580000000000    2.00420000000000
C        -3.01980000000000    7.27140000000000    1.61490000000000
C        -4.23020000000000    7.08130000000000    2.29580000000000
C        -4.63050000000000    8.00720000000000    3.27160000000000
C        -3.75290000000000    9.02550000000000    3.66380000000000
C        -4.84880000000000    5.74690000000000    2.25100000000000
C        -6.18330000000000    5.39490000000000    1.95770000000000
C        -7.23020000000000    6.31530000000000    1.46060000000000
C        -6.93150000000000    7.28440000000000    0.48670000000000
C        -7.94320000000000    8.10270000000000   -0.02500000000000
C        -9.26010000000000    7.95780000000000    0.42320000000000
C        -9.57410000000000    6.99330000000000    1.39300000000000
C       -10.99650000000000    6.82420000000000    1.86280000000000
C       -11.39910000000000    7.93160000000000    2.83330000000000
C        -8.55210000000000    6.18910000000000    1.92090000000000
C        -6.36660000000000    4.01150000000000    2.12220000000000
S        -7.61070000000000    2.91610000000000    1.70640000000000
C        -6.66800000000000    1.58540000000000    2.20440000000000
C        -6.60380000000000    0.24130000000000    1.92710000000000
C        -7.40580000000000   -0.57940000000000    1.11560000000000
C        -6.90560000000000   -1.86020000000000    0.71660000000000
N        -7.67630000000000   -2.58710000000000   -0.12940000000000
S        -8.94740000000000   -1.53900000000000   -0.31850000000000
N        -8.59940000000000   -0.20100000000000    0.59780000000000
C        -5.66370000000000   -2.28290000000000    1.21080000000000
C        -4.88450000000000   -3.39260000000000    0.97890000000000
S        -4.66340000000000   -4.48560000000000   -0.30200000000000
C        -3.01520000000000   -4.71790000000000    0.10810000000000
C        -1.93280000000000   -5.17940000000000   -0.66260000000000
C        -2.06590000000000   -6.28680000000000   -1.65840000000000
C        -1.24470000000000   -6.39470000000000   -2.79580000000000
C        -1.34380000000000   -7.49620000000000   -3.64750000000000
C        -2.26810000000000   -8.50630000000000   -3.38830000000000
C        -3.11500000000000   -8.41180000000000   -2.27840000000000
C        -4.07640000000000   -9.52670000000000   -1.96820000000000
C        -3.42540000000000  -10.55570000000000   -1.04930000000000
C        -3.00300000000000   -7.31090000000000   -1.41420000000000
C        -0.71810000000000   -4.60370000000000   -0.19440000000000
S        -1.04180000000000   -3.59710000000000    1.13590000000000
C        -2.67340000000000   -3.92170000000000    1.17100000000000
C        -3.73370000000000   -3.20580000000000    1.68420000000000
N        -3.72110000000000   -2.05970000000000    2.39460000000000
C        -4.89480000000000   -1.46600000000000    2.04630000000000
C        -5.30930000000000   -0.14720000000000    2.30130000000000
N        -4.53380000000000    0.93870000000000    2.60420000000000
C        -5.42510000000000    1.95970000000000    2.60710000000000
C        -5.25340000000000    3.33430000000000    2.54480000000000
S        -3.96460000000000    4.37320000000000    2.71390000000000
C        -3.11810000000000    1.11600000000000    2.22790000000000
C        -2.98550000000000    1.43070000000000    0.73930000000000
C        -3.05540000000000   -1.94980000000000    3.70630000000000
C        -3.72860000000000   -2.86360000000000    4.73430000000000
C         0.53940000000000   -4.44060000000000   -0.93670000000000
C         1.83740000000000   -4.68870000000000   -0.44710000000000
N         2.13270000000000   -5.22780000000000    0.84990000000000
C         1.96970000000000   -4.38950000000000    2.01410000000000
C         2.37420000000000   -3.04200000000000    1.99240000000000
C         2.18750000000000   -2.23020000000000    3.11450000000000
C         1.57280000000000   -2.74130000000000    4.26850000000000
C         1.41660000000000   -1.88120000000000    5.48880000000000
C         1.18860000000000   -4.08920000000000    4.29940000000000
C         1.37620000000000   -4.90320000000000    3.17900000000000
C         2.78190000000000   -6.51530000000000    0.94250000000000
C         3.72670000000000   -6.77660000000000    1.95310000000000
C         4.38430000000000   -8.00770000000000    2.00990000000000
C         4.12970000000000   -8.99170000000000    1.04800000000000
C         4.87600000000000  -10.29310000000000    1.10280000000000
C         3.19000000000000   -8.73980000000000    0.03660000000000
C         2.51750000000000   -7.51680000000000   -0.00930000000000
C         2.81240000000000   -4.16620000000000   -1.29770000000000
S         4.47190000000000   -3.91840000000000   -1.16220000000000
C         4.57420000000000   -2.93160000000000   -2.55590000000000
C         3.28610000000000   -2.75560000000000   -3.08360000000000
N         2.96880000000000   -1.83050000000000   -4.13920000000000
C         2.01830000000000   -0.76880000000000   -3.89050000000000
C         1.95120000000000   -0.15840000000000   -2.62660000000000
C         1.00890000000000    0.83820000000000   -2.36210000000000
C         0.12150000000000    1.25230000000000   -3.36130000000000
C        -0.90490000000000    2.30370000000000   -3.05790000000000
C         0.17170000000000    0.64100000000000   -4.62330000000000
C         1.11360000000000   -0.36190000000000   -4.88800000000000
C         3.64020000000000   -1.96650000000000   -5.41340000000000
C         3.93970000000000   -3.24210000000000   -5.92740000000000
C         4.62680000000000   -3.38030000000000   -7.13350000000000
C         5.03530000000000   -2.24630000000000   -7.84990000000000
C         5.74960000000000   -2.39360000000000   -9.16250000000000
C         4.72170000000000   -0.97110000000000   -7.35500000000000
C         4.03750000000000   -0.83320000000000   -6.14420000000000
C         2.33360000000000   -3.46480000000000   -2.35770000000000
S         0.65980000000000   -3.45030000000000   -2.32200000000000
C         5.69380000000000   -2.02330000000000   -2.84740000000000
C         6.97820000000000   -2.40670000000000   -2.98480000000000
C         7.47340000000000   -3.78590000000000   -2.91200000000000
O         6.78390000000000   -4.83660000000000   -2.99740000000000
C         8.91440000000000   -3.74610000000000   -2.79460000000000
C         9.79280000000000   -4.81470000000000   -2.60140000000000
C        11.15810000000000   -4.53880000000000   -2.43130000000000
Cl       12.27300000000000   -5.87750000000000   -2.20340000000000
C        11.61060000000000   -3.20210000000000   -2.42180000000000
Cl       13.30490000000000   -2.82470000000000   -2.12160000000000
C        10.70640000000000   -2.14420000000000   -2.62210000000000
C         9.34920000000000   -2.43290000000000   -2.83700000000000
C         8.18680000000000   -1.52490000000000   -3.07600000000000
C         8.23920000000000   -0.22540000000000   -3.48220000000000
C         9.47540000000000    0.49970000000000   -3.61840000000000
N        10.45830000000000    1.10100000000000   -3.73650000000000
C         7.07950000000000    0.50770000000000   -3.92230000000000
N         6.16290000000000    1.11900000000000   -4.27670000000000
H        -1.17010000000000   10.85150000000000    3.34330000000000
H        -0.66360000000000    6.07260000000000    7.41680000000000
H         2.62180000000000    9.82040000000000    7.46380000000000
H        -1.16350000000000    8.34490000000000    1.55130000000000
H        -2.68670000000000    6.55570000000000    0.87400000000000
H        -5.54890000000000    7.85810000000000    3.82620000000000
H        -4.01290000000000    9.64830000000000    4.51010000000000
H        -5.92490000000000    7.38820000000000    0.10190000000000
H        -7.70970000000000    8.83990000000000   -0.78110000000000
H       -10.03280000000000    8.59170000000000    0.00760000000000
H       -11.67950000000000    6.83850000000000    0.98560000000000
H       -11.12850000000000    5.83950000000000    2.35930000000000
H       -11.25450000000000    8.92970000000000    2.36780000000000
H       -10.78860000000000    7.86650000000000    3.76120000000000
H       -12.47070000000000    7.81620000000000    3.10150000000000
H        -8.78930000000000    5.46120000000000    2.68740000000000
H        -0.53230000000000   -5.63970000000000   -3.05900000000000
H        -0.69580000000000   -7.57110000000000   -4.51350000000000
H        -2.32300000000000   -9.36040000000000   -4.05150000000000
H        -4.98980000000000   -9.11440000000000   -1.48600000000000
H        -4.38970000000000  -10.02690000000000   -2.90970000000000
H        -4.15110000000000  -11.36910000000000   -0.83090000000000
H        -2.53560000000000  -10.99770000000000   -1.54450000000000
H        -3.11720000000000  -10.07900000000000   -0.09360000000000
H        -3.62240000000000   -7.27730000000000   -0.52670000000000
H        -2.51310000000000    0.21860000000000    2.42020000000000
H        -2.66220000000000    1.92680000000000    2.82970000000000
H        -3.58520000000000    2.32740000000000    0.46680000000000
H        -3.34130000000000    0.56110000000000    0.14530000000000
H        -1.92320000000000    1.62210000000000    0.48900000000000
H        -1.98070000000000   -2.21510000000000    3.60770000000000
H        -3.13020000000000   -0.92160000000000    4.11150000000000
H        -4.76890000000000   -2.50980000000000    4.92190000000000
H        -3.76160000000000   -3.91800000000000    4.37600000000000
H        -3.16170000000000   -2.82980000000000    5.68710000000000
H         2.84050000000000   -2.61640000000000    1.11320000000000
H         2.51290000000000   -1.19590000000000    3.08520000000000
H         1.31200000000000   -0.81100000000000    5.20540000000000
H         0.51150000000000   -2.17410000000000    6.06130000000000
H         2.31070000000000   -1.99690000000000    6.13620000000000
H         0.72660000000000   -4.50520000000000    5.18630000000000
H         1.04130000000000   -5.92960000000000    3.20770000000000
H         3.97560000000000   -6.02420000000000    2.69060000000000
H         5.10810000000000   -8.18850000000000    2.79520000000000
H         5.96090000000000  -10.10470000000000    0.96430000000000
H         4.53160000000000  -10.99580000000000    0.31260000000000
H         4.71610000000000  -10.77130000000000    2.09080000000000
H         2.97590000000000   -9.48790000000000   -0.71840000000000
H         1.79420000000000   -7.34660000000000   -0.79590000000000
H         2.63200000000000   -0.45380000000000   -1.83900000000000
H         0.96840000000000    1.28430000000000   -1.37420000000000
H        -1.75530000000000    1.84850000000000   -2.50690000000000
H        -1.28500000000000    2.77450000000000   -3.99130000000000
H        -0.45790000000000    3.10370000000000   -2.42850000000000
H        -0.52600000000000    0.93270000000000   -5.40060000000000
H         1.12480000000000   -0.82850000000000   -5.86430000000000
H         3.62600000000000   -4.12780000000000   -5.39600000000000
H         4.83890000000000   -4.37120000000000   -7.51040000000000
H         5.00770000000000   -2.49240000000000   -9.98070000000000
H         6.39140000000000   -1.50850000000000   -9.36150000000000
H         6.40400000000000   -3.29320000000000   -9.15440000000000
H         5.01120000000000   -0.08640000000000   -7.90850000000000
H         3.82560000000000    0.16140000000000   -5.77590000000000
H         5.42780000000000   -0.98400000000000   -2.86230000000000
H         9.41950000000000   -5.83070000000000   -2.57380000000000
H        11.07940000000000   -1.13650000000000   -2.56290000000000
193
 energy: -334.554843360873 gnorm: 0.151459117232 xtb: 6.4.1 (unknown)
C        -1.38743871811892    9.86472479784355    3.72653523807145
C        -0.61339409737032    9.29238519458233    4.67405609125362
C        -0.95218312124268    8.03944575683873    5.38954568419814
O        -1.90889988757501    7.29867284928404    5.18384553945603
C         0.02610987449220    7.87375496658645    6.45709904043622
C         0.07743738851911    6.87272727969884    7.41884921769099
C         1.08217791072607    6.92282198456969    8.38150922160773
Cl        1.16790851709359    5.65673438958837    9.57699392936416
C         2.00208606900283    7.98653850484612    8.38075006953285
Cl        3.25182614211141    8.07763468183562    9.59465165599816
C         1.93138686826666    8.99332247585295    7.41392168152811
C         0.95027937740331    8.92152154539566    6.42411008219134
C         0.67209443697605    9.77520822686882    5.24443681421370
C         1.57153657480032   10.59699617340439    4.62502533723871
C         1.34600289480952   11.15165813195855    3.32731143812828
N         1.17724923460220   11.57110273832934    2.27409742585074
C         2.87282065517664   10.86064643675034    5.15525622364762
N         3.92712981542198   11.06498133573256    5.55512292817926
C        -2.47873182537811    9.10529169875654    3.09100081682473
C        -2.15020465643656    8.28074314694537    2.01452329930911
C        -3.01672174612188    7.27004473992633    1.63023928996406
C        -4.22259199865990    7.07637238328033    2.30850997481435
C        -4.61970955149102    8.00521328536962    3.27320162709500
C        -3.74988992048936    9.01489063320180    3.66269418567389
C        -4.86835065381184    5.76125838122623    2.24086690682932
C        -6.18822168901056    5.41454265364054    1.95373642573822
C        -7.23311552615766    6.32430274188074    1.45956835313011
C        -6.93806819471916    7.28522783529922    0.48957579576473
C        -7.94487117224886    8.09604451964450   -0.01615532705789
C        -9.25338864062672    7.95039745849733    0.42825035351264
C        -9.56939245777613    6.99038116917844    1.39094585169895
C       -10.99279879634887    6.82361374034119    1.86028391024112
C       -11.40015937942715    7.92967886699631    2.83275069725342
C        -8.55024601087846    6.19457214327000    1.91180213174100
C        -6.37545737696528    4.02746777134517    2.11605693065388
S        -7.65260156474822    2.93288727658354    1.71964375588964
C        -6.67048548458048    1.60505888293559    2.19234332444952
C        -6.60506677760279    0.23895775163854    1.92616309229119
C        -7.41282228909995   -0.59060452746807    1.12922138952837
C        -6.91154584069231   -1.85974524949102    0.72610777338000
N        -7.70095590510517   -2.53662706401880   -0.11768351116659
S        -8.99305113663210   -1.54558043118348   -0.35223160399199
N        -8.59061967457096   -0.25601593840231    0.58743444078959
C        -5.66649324540802   -2.28244755019406    1.21650262266957
C        -4.87219673873002   -3.40522980537867    0.96528968963740
S        -4.68361346400244   -4.53614271165083   -0.31023693726427
C        -3.00722687086088   -4.73073826433764    0.08796940539957
C        -1.91635015296945   -5.19673675171675   -0.67747436553350
C        -2.05647865966075   -6.29266268065251   -1.66250877866507
C        -1.24609969405144   -6.39899328647922   -2.79582986270910
C        -1.34866109489118   -7.49460042259067   -3.64070683263121
C        -2.26888718106906   -8.49919143444121   -3.38250078225931
C        -3.11009805622610   -8.40651769903280   -2.27614121568148
C        -4.07620274418754   -9.52062162768060   -1.96927741338589
C        -3.42878647102335  -10.55554031412589   -1.05029501642102
C        -2.99196751152914   -7.31030539632540   -1.42057952723667
C        -0.71992007573904   -4.60836737361141   -0.21955065242942
S        -0.98682029788922   -3.60798321251589    1.15668721777529
C        -2.64108047969381   -3.93093427743711    1.16323629791591
C        -3.70680409535734   -3.21628663962506    1.68828688760396
N        -3.71820192502115   -2.06113773472537    2.41351342172801
C        -4.90096849346844   -1.46439179788320    2.06578317674101
C        -5.30113276851305   -0.14987966348137    2.29387475384279
N        -4.52272629193073    0.93780059487020    2.61660644670603
C        -5.40167746998558    1.98309582629445    2.59796273257172
C        -5.23537873496625    3.36116313300507    2.54351595646492
S        -3.92787747742979    4.40832600727216    2.72314625979910
C        -3.11956614925821    1.11446956763742    2.23352426727722
C        -2.99011520498091    1.42994121304636    0.74225059429767
C        -3.05747814401367   -1.94972099737192    3.71148744088456
C        -3.72922687720369   -2.86566474239411    4.73458632165946
C         0.55449415405340   -4.43750337818653   -0.91461174764257
C         1.84074731601796   -4.68430033930233   -0.41876226660506
N         2.13297914295319   -5.23762115553249    0.85912849860349
C         1.97016515869678   -4.39703605321057    2.00774066882528
C         2.36711836723361   -3.05246951426731    1.99253534877529
C         2.17965960467066   -2.24506003337537    3.10914222922109
C         1.58070233520187   -2.74737173594614    4.26440349140422
C         1.41445725620319   -1.88294160998944    5.48273027454407
C         1.19340167131876   -4.08710312257634    4.28400720699605
C         1.37954365002406   -4.89975932791088    3.17220142518671
C         2.78247242154052   -6.50704958829378    0.94211707320660
C         3.72139096457764   -6.77549616102301    1.94667464709836
C         4.37302122819591   -8.00102995416902    1.99948659719864
C         4.12524422317301   -8.98707174131945    1.04553255566421
C         4.87209306741764  -10.28979535417432    1.10266486627622
C         3.19035261191684   -8.72548517020761    0.04513285943636
C         2.52226516954630   -7.50707925506861   -0.00410603655308
C         2.82477598574506   -4.15779516277480   -1.28216792947468
S         4.51383350081190   -3.94715067375442   -1.17004904683667
C         4.56240132528557   -2.90539280008290   -2.55421722696719
C         3.28094452588561   -2.72017752538455   -3.08934894036564
N         2.97192743030504   -1.82244420799300   -4.14637111666557
C         2.02102427878313   -0.78006582774691   -3.89389645804548
C         1.95041257391703   -0.16666476399929   -2.63561603981748
C         1.01274372122280    0.82597763289767   -2.37500527918498
C         0.12378578184748    1.24455231874210   -3.36289285904658
C        -0.89982514815265    2.30207777801069   -3.05989329500610
C         0.18564607739858    0.63379383028615   -4.61562586465361
C         1.11809445313220   -0.36487711792700   -4.88078886916489
C         3.64199048370734   -1.96171885049720   -5.40502384343586
C         3.93873870962664   -3.23055891472308   -5.92152905212888
C         4.62268113578048   -3.36667727065041   -7.12328484893637
C         5.02920883854502   -2.24496175643789   -7.84562300913127
C         5.75004955892043   -2.39314121875397   -9.15626885243774
C         4.71438697255316   -0.98137472572718   -7.34508083868207
C         4.03554950386897   -0.83874958926952   -6.14077080903822
C         2.32085724555412   -3.44928560091882   -2.36324155325711
S         0.62285811194745   -3.46360973482786   -2.34377922733087
C         5.69109817558780   -2.02993322883168   -2.84544942295012
C         6.98623828320755   -2.40789885181264   -2.97055859652069
C         7.46459370197936   -3.80134024265235   -2.91863351397656
O         6.78516161165244   -4.81991775475785   -2.99427517879138
C         8.91837004472710   -3.75111286481037   -2.79038386306388
C         9.79705166574313   -4.81054191562899   -2.60119133763491
C        11.15111631695157   -4.53232143534917   -2.43204009901994
Cl       12.26385203358779   -5.85557343481074   -2.20498194764600
C        11.59736457758096   -3.20118544844741   -2.42148774871913
Cl       13.27979009468186   -2.83419265550269   -2.12785485820029
C        10.70416119880940   -2.14433079242712   -2.61916700138081
C         9.35293828430876   -2.42364812297460   -2.82983369654553
C         8.18891507211615   -1.53907238294171   -3.08483551079663
C         8.23924547295286   -0.23410576817446   -3.49172032421445
C         9.46270158718805    0.49270940064463   -3.61694144966522
N        10.43410146350807    1.09023455462272   -3.73391015180116
C         7.08678961830038    0.50189227871591   -3.90644678937185
N         6.18400661045301    1.10720129394474   -4.27178836234122
H        -1.16536762311666   10.85227953442022    3.34318527646026
H        -0.65594051460447    6.07750647336001    7.41749553425439
H         2.62607081045249    9.81617543614778    7.46240460259030
H        -1.17255412488211    8.34987248031006    1.55403692773924
H        -2.69431789287598    6.56263989635810    0.87661117686399
H        -5.54551054137433    7.86250987154949    3.81505182833497
H        -4.01245417514487    9.64744446354316    4.49997369907329
H        -5.93023669299844    7.38642704257043    0.10839265006579
H        -7.71133811850951    8.83363826017023   -0.77333493665383
H       -10.02837170762914    8.58254131970685    0.01256820826951
H       -11.67002995438902    6.84054774359821    0.99221078131325
H       -11.12161041792962    5.84853084431919    2.35252585737959
H       -11.25611296623719    8.91694441233764    2.37819362297515
H       -10.79785418422400    7.87269842340266    3.74808513352259
H       -12.45726727089430    7.82171687381837    3.10289094390619
H        -8.78600261537286    5.46502062401213    2.67697322232572
H        -0.53357205654732   -5.63542274568286   -3.05250066328369
H        -0.70141768088351   -7.56827773126521   -4.50604091315378
H        -2.32703109988485   -9.35401961379175   -4.04474302339977
H        -4.98009424976995   -9.11653678826684   -1.48971330324986
H        -4.38645377304424  -10.01754938848445   -2.90094801001557
H        -4.13883839052979  -11.36161186634200   -0.82930467766971
H        -2.54620830688953  -10.99202474059000   -1.53276252118432
H        -3.11917200743581  -10.08985647789011   -0.10684810264885
H        -3.61772623841021   -7.27133454012947   -0.53709359755430
H        -2.53208629526817    0.21385047883387    2.42894181748002
H        -2.68077994583137    1.92656112867909    2.83039499565344
H        -3.57713821346341    2.31470943459864    0.46839310835940
H        -3.33931645446109    0.57569298993855    0.14909978055173
H        -1.94036613192127    1.61915824990916    0.49301189965041
H        -1.99430286853867   -2.21379190576102    3.59724339474122
H        -3.13059474703450   -0.92401641009982    4.09341440478869
H        -4.75548690940642   -2.52223048673121    4.92072146896186
H        -3.76142347453963   -3.90393506740184    4.38163752662417
H        -3.17144890927779   -2.83226507159241    5.67620809227902
H         2.83612368944359   -2.62621445916190    1.11537063408527
H         2.50754186590681   -1.21121469365121    3.08290779606231
H         1.31668636718082   -0.82465405517631    5.20992664339826
H         0.52574798549387   -2.17236918386671    6.05668876060198
H         2.29448695650089   -1.99134775103833    6.13074405854288
H         0.73201486918146   -4.50063365664260    5.17358123526887
H         1.04838650931781   -5.92789760560848    3.20441340749455
H         3.96678517716720   -6.02389978448961    2.68517246523317
H         5.09801221657553   -8.18436200329509    2.78446501327923
H         5.94689991664635  -10.11193247729656    0.96816862010734
H         4.53616852334495  -10.98426685027321    0.32312156959742
H         4.72295621692400  -10.76842505965055    2.07851376134145
H         2.97755836162120   -9.47633153684987   -0.70765989277892
H         1.79653822109466   -7.33958969717177   -0.78965268154194
H         2.63165936726641   -0.45845253129297   -1.84666257795072
H         0.97300440718076    1.27743495327951   -1.38913648374182
H        -1.74532991745868    1.85942410660652   -2.51540849177797
H        -1.28199258974803    2.76498372587802   -3.97793951082753
H        -0.46666074204153    3.09284656856009   -2.43395415988183
H        -0.51282710755982    0.92806008357508   -5.39117936349590
H         1.13048024785492   -0.82807736071197   -5.85784412142270
H         3.62772099886050   -4.11981325009186   -5.39095424769759
H         4.83640571796905   -4.35850304822374   -7.50311737990478
H         5.02211405250837   -2.49201443518844   -9.97215155273068
H         6.38011595548057   -1.51886723076183   -9.36102735196275
H         6.39206381568212   -3.28330104305544   -9.15660904026039
H         5.00818477778758   -0.09719477840887   -7.89824050424658
H         3.82431954730091    0.15529706751836   -5.77268186095851
H         5.42485155492836   -0.98384316025539   -2.88643420991173
H         9.42471521224915   -5.82482095740682   -2.57513342952255
H        11.08000904998949   -1.13611129395772   -2.56949580083764
193
 energy: -334.588436794594 gnorm: 0.048191538142 xtb: 6.4.1 (unknown)
C        -1.37175359625065    9.86010495140254    3.72207847120578
C        -0.60280991180454    9.29403518785456    4.67614089678386
C        -0.96808200546916    8.02868163746252    5.38245168923055
O        -1.90241999157116    7.30207724360983    5.16952656011456
C         0.02328997648241    7.87370993945818    6.46162798486532
C         0.07860050526101    6.87858406425532    7.42087340204936
C         1.08214391038716    6.93059901657331    8.37560723502697
Cl        1.17785771860073    5.68145461439119    9.56558474593913
C         1.99505109601110    7.99243667041559    8.37244120349930
Cl        3.22967286347772    8.07395832309124    9.57835424543039
C         1.93086220897833    8.99565568215871    7.40980332345001
C         0.95201135508492    8.92946706508382    6.42642441943926
C         0.67246049513217    9.75798529792906    5.24715066404134
C         1.56450317498430   10.59242828900602    4.63090087223002
C         1.33876668289594   11.14363069030267    3.34503817854993
N         1.18532365413433   11.57572526860066    2.29250468710061
C         2.85879345194254   10.84828933101331    5.14664248168582
N         3.90977640617620   11.07378904040608    5.54973286797820
C        -2.47281355797671    9.09445292345861    3.10928617471798
C        -2.14835630715059    8.27311884553392    2.03112968919379
C        -3.01148897271051    7.26869036492242    1.64698402061827
C        -4.21697646119863    7.07830442467490    2.31932168210873
C        -4.60991204103771    8.00733336518373    3.27768713622972
C        -3.74251459758646    9.00684545451567    3.67001657048415
C        -4.89041202628149    5.78522104054616    2.22822317465526
C        -6.19206756355289    5.43729769058615    1.95400756153987
C        -7.23592718624830    6.33511248263611    1.45978305755473
C        -6.94209683946756    7.29051722085162    0.49261399241437
C        -7.94734713293632    8.09360390314805   -0.01080456840500
C        -9.25004278156616    7.94560711873882    0.43152416360067
C        -9.56728258907962    6.98931149574910    1.39082532046237
C       -10.99009148632612    6.82290175933353    1.85853045817126
C       -11.39876508646790    7.92963038309998    2.83299949819813
C        -8.54970750431287    6.19921166226213    1.90498708043848
C        -6.37898059738046    4.04613269670006    2.11578210739421
S        -7.68723122415554    2.95400796327099    1.74643111913361
C        -6.66587180164795    1.62616267701336    2.17381394385483
C        -6.60911868733650    0.24498223343647    1.92116591018295
C        -7.42679130957297   -0.59744318632690    1.14301126505207
C        -6.92101395675810   -1.87079685945066    0.73509944581023
N        -7.72440949627314   -2.49933378761858   -0.10919769311198
S        -9.02263564412666   -1.55038910602691   -0.37187047466075
N        -8.59183214105134   -0.30413022102038    0.58609767036377
C        -5.67069414326364   -2.29404227649739    1.22190636225276
C        -4.85528081466610   -3.41506466950341    0.95436160608888
S        -4.69586097696934   -4.59610982783394   -0.30116915591761
C        -2.99117607242461   -4.74419138283028    0.07527550843587
C        -1.89407023275343   -5.21402505894132   -0.68880591909795
C        -2.04307993969485   -6.29698670730854   -1.66746481488138
C        -1.24089582705173   -6.40327824377023   -2.79889423464559
C        -1.35052621190063   -7.49425226940136   -3.63932168841024
C        -2.26882761075482   -8.49419906288187   -3.37852430676166
C        -3.10471101765798   -8.40222603429629   -2.27239458062642
C        -4.07538374603075   -9.51372260949215   -1.96817935223426
C        -3.42953444515356  -10.55444966160288   -1.04964443493358
C        -2.98033029701178   -7.30793949175219   -1.42562470920014
C        -0.71369720202235   -4.62537189369808   -0.24615640077357
S        -0.93217006118137   -3.63701482709489    1.17932842737973