      -----------------------------------------------------------      
     |                   =====================                   |     
     |                           x T B                           |     
     |                   =====================                   |     
     |                         S. Grimme                         |     
     |          Mulliken Center for Theoretical Chemistry        |     
     |                    University of Bonn                     |     
      -----------------------------------------------------------      

   * xtb version 6.4.1 (unknown) compiled by 'oda6@login1.crc.pitt.edu' on 2021-06-25

   xtb is free software: you can redistribute it and/or modify it under
   the terms of the GNU Lesser General Public License as published by
   the Free Software Foundation, either version 3 of the License, or
   (at your option) any later version.
   
   xtb is distributed in the hope that it will be useful,
   but WITHOUT ANY WARRANTY; without even the implied warranty of
   MERCHANTABILITY or FITNESS FOR A PARTICULAR PURPOSE.  See the
   GNU Lesser General Public License for more details.
   
   Cite this work as:
   * C. Bannwarth, E. Caldeweyher, S. Ehlert, A. Hansen, P. Pracht,
     J. Seibert, S. Spicher, S. Grimme, WIREs Comput. Mol. Sci., 2020, 11,
     e01493. DOI: 10.1002/wcms.1493
   
   for GFN2-xTB:
   * C. Bannwarth, S. Ehlert and S. Grimme., J. Chem. Theory Comput., 2019,
     15, 1652-1671. DOI: 10.1021/acs.jctc.8b01176
   for GFN1-xTB:
   * S. Grimme, C. Bannwarth, P. Shushkov, J. Chem. Theory Comput., 2017,
     13, 1989-2009. DOI: 10.1021/acs.jctc.7b00118
   for GFN0-xTB:
   * P. Pracht, E. Caldeweyher, S. Ehlert, S. Grimme, ChemRxiv, 2019, preprint.
     DOI: 10.26434/chemrxiv.8326202.v1
   for GFN-FF:
   * S. Spicher and S. Grimme, Angew. Chem. Int. Ed., 2020, 59, 15665-15673.
     DOI: 10.1002/anie.202004239
   
   for DFT-D4:
   * E. Caldeweyher, C. Bannwarth and S. Grimme, J. Chem. Phys., 2017,
     147, 034112. DOI: 10.1063/1.4993215
   * E. Caldeweyher, S. Ehlert, A. Hansen, H. Neugebauer, S. Spicher,
     C. Bannwarth and S. Grimme, J. Chem. Phys., 2019, 150, 154122.
     DOI: 10.1063/1.5090222
   * E. Caldeweyher, J.-M. Mewes, S. Ehlert and S. Grimme, Phys. Chem. Chem. Phys.
     2020, 22, 8499-8512. DOI: 10.1039/D0CP00502A
   
   for sTDA-xTB:
   * S. Grimme and C. Bannwarth, J. Chem. Phys., 2016, 145, 054103.
     DOI: 10.1063/1.4959605
   
   in the mass-spec context:
   * V. Asgeirsson, C. Bauer and S. Grimme, Chem. Sci., 2017, 8, 4879.
     DOI: 10.1039/c7sc00601b
   * J. Koopman and S. Grimme, ACS Omega 2019, 4, 12, 15120-15133.
     DOI: 10.1021/acsomega.9b02011
   
   for metadynamics refer to:
   * S. Grimme, J. Chem. Theory Comput., 2019, 155, 2847-2862
     DOI: 10.1021/acs.jctc.9b00143
   
   for SPH calculations refer to:
   * S. Spicher and S. Grimme, J. Chem. Theory Comput., 2021, 17, 1701-1714
     DOI: 10.1021/acs.jctc.0c01306
   
   with help from (in alphabetical order)
   P. Atkinson, C. Bannwarth, F. Bohle, G. Brandenburg, E. Caldeweyher
   M. Checinski, S. Dohm, S. Ehlert, S. Ehrlich, I. Gerasimov, J. Koopman
   C. Lavigne, S. Lehtola, F. März, M. Müller, F. Musil, H. Neugebauer
   J. Pisarek, C. Plett, P. Pracht, J. Seibert, P. Shushkov, S. Spicher
   M. Stahn, M. Steiner, T. Strunk, J. Stückrath, T. Rose, and J. Unsleber
   
 * started run on 2022/03/07 at 14:34:15.905     

           -------------------------------------------------
          |                Calculation Setup                |
           -------------------------------------------------

          program call               : /ihome/ghutchison/oda6/xtb/xtb-641/bin/xtb ../../GFN2_output/100_99_001110.mol --sp --alpb hexane
          hostname                   : smp-n44
          coordinate file            : ../../GFN2_output/100_99_001110.mol
          omp threads                :                     8
          number of atoms            :                   284
          number of electrons        :                   902
          charge                     :                     0
          spin                       :                   0.0
          first test random number   :      0.81594217631737

   ID    Z sym.   atoms
    1    6 C      1-8, 10, 11, 13-19, 21, 22, 24, 26, 27, 29-36, 38, 39,
                  41-47, 49, 50, 52, 54, 55, 57-64, 66-68, 70-77, 79-82, 84,
                  86, 87, 89-96, 98-100, 102-109, 111-114, 116, 118, 119,
                  121-128, 130-132, 134-141, 143-146, 148, 150, 151, 153-160,
                  162, 163, 165-171, 173, 174, 176, 178, 179
    2   16 S      9, 20, 25, 28, 37, 48, 53, 56, 65, 78, 85, 88, 97, 110,
                  117, 120, 129, 142, 149, 152, 161, 172, 177, 180
    3   34 Se     12, 23, 40, 51, 164, 175
    4    9 F      69, 83, 101, 115, 133, 147
    5    1 H      181-284

           -------------------------------------------------
          |                 G F N 2 - x T B                 |
           -------------------------------------------------

        Reference                      10.1021/acs.jctc.8b01176
      * Hamiltonian:
        H0-scaling (s, p, d)           1.850000    2.230000    2.230000
        zeta-weighting                 0.500000
      * Dispersion:
        s8                             2.700000
        a1                             0.520000
        a2                             5.000000
        s9                             5.000000
      * Repulsion:
        kExp                           1.500000    1.000000
        rExp                           1.000000
      * Coulomb:
        alpha                          2.000000
        third order                    shell-resolved
        anisotropic                    true
        a3                             3.000000
        a5                             4.000000
        cn-shift                       1.200000
        cn-exp                         4.000000
        max-rad                        5.000000

      * Solvation model:               ALPB
        Solvent                        hexane
        Parameter file                 internal GFN2-xTB/ALPB
        Dielectric constant                1.8800E+00
        Reference state                gsolv [1 M gas/solution]
        Free energy shift                  4.8134E-03 Eh       3.0204E+00 kcal/mol
        Temperature                        2.9815E+02 K
        Density                            6.6000E-01 kg/L
        Solvent mass                       8.6180E+01 g/mol
        Interaction kernel             P16
        Born radius scaling (c1)           1.1040E+00
        Born radii integrator          GBOBC
        Born offset                        0.0000E+00 a0       0.0000E+00 AA
        H-bond correction              false
        Ion screening                  false
        Surface tension                    1.0000E-05 Eh       1.5569E+01 dyn/cm
        Grid points                               230 per atom

          ...................................................
          :                      SETUP                      :
          :.................................................:
          :  # basis functions                1004          :
          :  # atomic orbitals                 974          :
          :  # shells                          494          :
          :  # electrons                       902          :
          :  max. iterations                   250          :
          :  Hamiltonian                  GFN2-xTB          :
          :  restarted?                      false          :
          :  GBSA solvation                   true          :
          :  PC potential                    false          :
          :  electronic temp.          300.0000000     K    :
          :  accuracy                    1.0000000          :
          :  -> integral cutoff          0.2500000E+02      :
          :  -> integral neglect         0.1000000E-07      :
          :  -> SCF convergence          0.1000000E-05 Eh   :
          :  -> wf. convergence          0.1000000E-03 e    :
          :  Broyden damping             0.4000000          :
          ...................................................

 iter      E             dE          RMSdq      gap      omega  full diag
   1   -493.5455671 -0.493546E+03  0.454E+00    1.36       0.0  T
   2   -493.8883893 -0.342822E+00  0.250E+00    1.26       1.0  T
   3   -493.7775691  0.110820E+00  0.104E+00    1.07       1.0  T
   4   -493.9280397 -0.150471E+00  0.500E-01    1.06       1.0  T
   5   -493.9487698 -0.207301E-01  0.231E-01    1.08       1.0  T
   6   -493.9512355 -0.246574E-02  0.987E-02    1.08       1.0  T
   7   -493.9523616 -0.112606E-02  0.436E-02    1.08       1.0  T
   8   -493.9524735 -0.111952E-03  0.262E-02    1.08       1.0  T
   9   -493.9524863 -0.127479E-04  0.150E-02    1.08       1.0  T
  10   -493.9524981 -0.118066E-04  0.712E-03    1.08       1.0  T
  11   -493.9524996 -0.151994E-05  0.469E-03    1.08       1.3  T
  12   -493.9525010 -0.134118E-05  0.229E-03    1.08       2.6  T
  13   -493.9525012 -0.236803E-06  0.135E-03    1.08       4.4  T
  14   -493.9525013 -0.834597E-07  0.681E-04    1.08       8.7  T
  15   -493.9525013 -0.230366E-07  0.331E-04    1.08      18.0  T

   *** convergence criteria satisfied after 15 iterations ***

         #    Occupation            Energy/Eh            Energy/eV
      -------------------------------------------------------------
         1        2.0000           -0.8397383             -22.8504
       ...           ...                  ...                  ...
       445        2.0000           -0.3669679              -9.9857
       446        2.0000           -0.3668817              -9.9834
       447        2.0000           -0.3652373              -9.9386
       448        2.0000           -0.3643503              -9.9145
       449        2.0000           -0.3569950              -9.7143
       450        2.0000           -0.3548256              -9.6553
       451        2.0000           -0.3524359              -9.5903 (HOMO)
       452                         -0.3126107              -8.5066 (LUMO)
       453                         -0.3059313              -8.3248
       454                         -0.2984372              -8.1209
       455                         -0.2905409              -7.9060
       456                         -0.2851010              -7.7580
       ...                                ...                  ...
       974                          0.9626096              26.1939
      -------------------------------------------------------------
                  HL-Gap            0.0398252 Eh            1.0837 eV
             Fermi-level           -0.3324832 Eh           -9.0473 eV

 SCC (total)                   0 d,  0 h,  0 min,  1.621 sec
 SCC setup                      ...        0 min,  0.013 sec (  0.823%)
 Dispersion                     ...        0 min,  0.016 sec (  1.000%)
 classical contributions        ...        0 min,  0.001 sec (  0.033%)
 integral evaluation            ...        0 min,  0.079 sec (  4.873%)
 iterations                     ...        0 min,  1.295 sec ( 79.929%)
 molecular gradient             ...        0 min,  0.208 sec ( 12.820%)
 printout                       ...        0 min,  0.008 sec (  0.517%)

         :::::::::::::::::::::::::::::::::::::::::::::::::::::
         ::                     SUMMARY                     ::
         :::::::::::::::::::::::::::::::::::::::::::::::::::::
         :: total energy            -487.084974198072 Eh    ::
         :: total w/o Gsasa/hb      -486.900925836887 Eh    ::
         :: gradient norm              0.016704889242 Eh/a0 ::
         :: HOMO-LUMO gap              1.083697976915 eV    ::
         ::.................................................::
         :: SCC energy              -493.952501302993 Eh    ::
         :: -> isotropic ES            0.122514888947 Eh    ::
         :: -> anisotropic ES          0.013185345212 Eh    ::
         :: -> anisotropic XC          0.190710393199 Eh    ::
         :: -> dispersion             -0.487351879078 Eh    ::
         :: -> Gsolv                  -0.208077483662 Eh    ::
         ::    -> Gelec               -0.024029122477 Eh    ::
         ::    -> Gsasa               -0.188861717005 Eh    ::
         ::    -> Ghb                  0.000000000000 Eh    ::
         ::    -> Gshift               0.004813355820 Eh    ::
         :: repulsion energy           6.869336143776 Eh    ::
         :: add. restraining           0.000000000000 Eh    ::
         :: total charge               0.000000000139 e     ::
         :::::::::::::::::::::::::::::::::::::::::::::::::::::

           -------------------------------------------------
          |                Property Printout                |
           -------------------------------------------------

    * Orbital Energies and Occupations

         #    Occupation            Energy/Eh            Energy/eV
      -------------------------------------------------------------
         1        2.0000           -0.8397383             -22.8504
       ...           ...                  ...                  ...
       439        2.0000           -0.3747477             -10.1974
       440        2.0000           -0.3740590             -10.1787
       441        2.0000           -0.3737439             -10.1701
       442        2.0000           -0.3716994             -10.1145
       443        2.0000           -0.3696374             -10.0583
       444        2.0000           -0.3675761             -10.0023
       445        2.0000           -0.3669679              -9.9857
       446        2.0000           -0.3668817              -9.9834
       447        2.0000           -0.3652373              -9.9386
       448        2.0000           -0.3643503              -9.9145
       449        2.0000           -0.3569950              -9.7143
       450        2.0000           -0.3548256              -9.6553
       451        2.0000           -0.3524359              -9.5903 (HOMO)
       452                         -0.3126107              -8.5066 (LUMO)
       453                         -0.3059313              -8.3248
       454                         -0.2984372              -8.1209
       455                         -0.2905409              -7.9060
       456                         -0.2851010              -7.7580
       457                         -0.2798956              -7.6163
       458                         -0.2731426              -7.4326
       459                         -0.2710392              -7.3754
       460                         -0.2703236              -7.3559
       461                         -0.2699021              -7.3444
       462                         -0.2697407              -7.3400
       ...                                ...                  ...
       974                          0.9626096              26.1939
      -------------------------------------------------------------
                  HL-Gap            0.0398252 Eh            1.0837 eV
             Fermi-level           -0.3324832 Eh           -9.0473 eV

     #   Z          covCN         q      C6AA      α(0)
     1   6 C        2.934    -0.009    28.255     8.718
     2   6 C        3.075    -0.050    29.154     8.853
     3   6 C        3.147    -0.006    27.914     8.643
     4   6 C        3.010    -0.004    28.108     8.697
     5   6 C        2.973     0.008    27.832     8.654
     6   6 C        3.088    -0.042    28.929     8.816
     7   6 C        3.107    -0.054    29.205     8.854
     8   6 C        2.965     0.047    26.950     8.515
     9  16 S        2.076    -0.154   147.566    20.445
    10   6 C        3.793     0.003    20.544     6.455
    11   6 C        3.779    -0.106    22.541     6.764
    12  34 Se       2.524    -0.089   238.738    26.923
    13   6 C        3.008     0.026    27.413     8.589
    14   6 C        3.137    -0.005    27.923     8.649
    15   6 C        3.005    -0.003    28.087     8.693
    16   6 C        2.971     0.005    27.898     8.664
    17   6 C        3.086    -0.044    28.978     8.824
    18   6 C        3.084    -0.057    29.322     8.877
    19   6 C        2.968     0.048    26.924     8.511
    20  16 S        2.126    -0.166   148.058    20.479
    21   6 C        3.793    -0.000    20.597     6.463
    22   6 C        3.778    -0.105    22.537     6.763
    23  34 Se       2.520    -0.044   237.206    26.837
    24   6 C        3.008     0.022    27.499     8.602
    25  16 S        2.359    -0.047   142.994    20.126
    26   6 C        3.070    -0.053    29.232     8.865
    27   6 C        3.016     0.030    27.309     8.572
    28  16 S        2.451    -0.078   144.281    20.217
    29   6 C        3.019     0.031    27.276     8.567
    30   6 C        3.071    -0.054    29.264     8.870
    31   6 C        3.135    -0.003    27.887     8.644
    32   6 C        3.007    -0.003    28.072     8.691
    33   6 C        2.971     0.006    27.894     8.663
    34   6 C        3.084    -0.042    28.944     8.819
    35   6 C        3.083    -0.060    29.397     8.888
    36   6 C        2.968     0.046    26.957     8.516
    37  16 S        2.146    -0.157   147.669    20.453
    38   6 C        3.793     0.001    20.574     6.459
    39   6 C        3.795    -0.107    22.553     6.762
    40  34 Se       2.499    -0.046   237.275    26.841
    41   6 C        3.009     0.025    27.432     8.592
    42   6 C        3.132    -0.002    27.874     8.643
    43   6 C        3.007    -0.003    28.089     8.694
    44   6 C        2.973     0.008    27.846     8.656
    45   6 C        3.089    -0.041    28.923     8.815
    46   6 C        3.110    -0.052    29.137     8.843
    47   6 C        2.964     0.047    26.935     8.513
    48  16 S        2.078    -0.162   147.909    20.469
    49   6 C        3.793     0.004    20.528     6.452
    50   6 C        3.778    -0.105    22.522     6.761
    51  34 Se       2.372    -0.084   238.557    26.913
    52   6 C        3.007     0.025    27.421     8.590
    53  16 S        2.277    -0.083   144.494    20.231
    54   6 C        3.076    -0.051    29.179     8.856
    55   6 C        3.026     0.031    27.289     8.569
    56  16 S        2.347    -0.058   143.470    20.160
    57   6 C        3.012     0.033    27.249     8.563
    58   6 C        3.061    -0.053    29.260     8.870
    59   6 C        3.133    -0.002    27.851     8.639
    60   6 C        2.992    -0.002    28.069     8.691
    61   6 C        2.978     0.012    27.732     8.638
    62   6 C        2.921    -0.037    28.914     8.818
    63   6 C        2.989    -0.039    28.962     8.828
    64   6 C        2.959     0.034    27.228     8.559
    65  16 S        2.072    -0.167   148.109    20.483
    66   6 C        3.792     0.004    20.525     6.452
    67   6 C        3.797    -0.106    22.532     6.759
    68   6 C        2.801     0.160    24.523     8.113
    69   9 F        0.787    -0.245    11.714     4.043
    70   6 C        2.925    -0.050    29.252     8.870
    71   6 C        3.006     0.025    27.423     8.590
    72   6 C        3.137    -0.002    27.856     8.638
    73   6 C        2.996    -0.005    28.148     8.703
    74   6 C        2.978     0.015    27.670     8.628
    75   6 C        2.923    -0.036    28.886     8.814
    76   6 C        2.986    -0.038    28.938     8.824
    77   6 C        2.959     0.036    27.198     8.554
    78  16 S        2.048    -0.180   148.692    20.523
    79   6 C        3.793     0.003    20.531     6.453
    80   6 C        3.777    -0.099    22.425     6.747
    81   6 C        2.801     0.160    24.537     8.115
    82   6 C        2.924    -0.053    29.322     8.880
    83   9 F        0.787    -0.248    11.747     4.049
    84   6 C        3.008     0.028    27.362     8.581
    85  16 S        2.282    -0.076   144.215    20.212
    86   6 C        3.070    -0.058    29.367     8.886
    87   6 C        3.010     0.030    27.305     8.572
    88  16 S        2.280    -0.062   143.622    20.170
    89   6 C        3.010     0.031    27.300     8.571
    90   6 C        3.071    -0.058    29.358     8.884
    91   6 C        3.136    -0.003    27.868     8.640
    92   6 C        2.992    -0.004    28.107     8.697
    93   6 C        2.978     0.011    27.763     8.643
    94   6 C        2.924    -0.041    29.016     8.834
    95   6 C        2.944    -0.045    29.109     8.849
    96   6 C        2.961     0.034    27.236     8.560
    97  16 S        2.052    -0.155   147.581    20.446
    98   6 C        3.793    -0.004    20.657     6.472
    99   6 C        3.780    -0.105    22.531     6.762
   100   6 C        2.840     0.164    24.466     8.106
   101   9 F        0.788    -0.235    11.606     4.024
   102   6 C        2.922    -0.051    29.262     8.871
   103   6 C        3.006     0.026    27.408     8.588
   104   6 C        3.135    -0.003    27.872     8.641
   105   6 C        2.991    -0.004    28.118     8.698
   106   6 C        2.978     0.014    27.687     8.631
   107   6 C        2.923    -0.038    28.941     8.822
   108   6 C        2.980    -0.038    28.937     8.824
   109   6 C        2.960     0.036    27.199     8.554
   110  16 S        2.047    -0.182   148.754    20.528
   111   6 C        3.793    -0.000    20.589     6.462
   112   6 C        3.779    -0.098    22.402     6.743
   113   6 C        2.803     0.164    24.458     8.102
   114   6 C        2.923    -0.053    29.305     8.878
   115   9 F        0.787    -0.241    11.665     4.034
   116   6 C        3.005     0.026    27.411     8.588
   117  16 S        2.277    -0.060   143.557    20.166
   118   6 C        3.068    -0.058    29.356     8.884
   119   6 C        3.011     0.031    27.298     8.571
   120  16 S        2.284    -0.062   143.626    20.171
   121   6 C        3.012     0.030    27.306     8.572
   122   6 C        3.068    -0.057    29.339     8.882
   123   6 C        3.136    -0.003    27.875     8.642
   124   6 C        2.992    -0.003    28.097     8.695
   125   6 C        2.978     0.013    27.725     8.637
   126   6 C        2.924    -0.041    29.015     8.833
   127   6 C        2.946    -0.044    29.082     8.845
   128   6 C        2.961     0.034    27.228     8.559
   129  16 S        2.049    -0.159   147.760    20.459
   130   6 C        3.793    -0.004    20.653     6.472
   131   6 C        3.779    -0.105    22.534     6.763
   132   6 C        2.837     0.165    24.431     8.100
   133   9 F        0.787    -0.233    11.583     4.020
   134   6 C        2.922    -0.050    29.249     8.869
   135   6 C        3.007     0.026    27.399     8.586
   136   6 C        3.135    -0.002    27.845     8.638
   137   6 C        2.992    -0.005    28.132     8.700
   138   6 C        2.978     0.016    27.639     8.624
   139   6 C        2.922    -0.035    28.881     8.813
   140   6 C        2.976    -0.036    28.889     8.816
   141   6 C        2.960     0.035    27.226     8.558
   142  16 S        2.045    -0.189   149.081    20.550
   143   6 C        3.793     0.001    20.568     6.458
   144   6 C        3.780    -0.100    22.426     6.746
   145   6 C        2.804     0.162    24.501     8.109
   146   6 C        2.924    -0.053    29.314     8.879
   147   9 F        0.787    -0.243    11.694     4.039
   148   6 C        3.005     0.026    27.402     8.587
   149  16 S        2.284    -0.064   143.715    20.177
   150   6 C        3.068    -0.058    29.367     8.886
   151   6 C        3.012     0.033    27.248     8.563
   152  16 S        2.278    -0.061   143.598    20.169
   153   6 C        3.010     0.029    27.337     8.577
   154   6 C        3.079    -0.052    29.211     8.861
   155   6 C        3.131    -0.004    27.923     8.651
   156   6 C        3.002    -0.004    28.111     8.697
   157   6 C        2.971     0.006    27.892     8.663
   158   6 C        3.097    -0.041    28.895     8.810
   159   6 C        3.119    -0.053    29.130     8.840
   160   6 C        2.964     0.047    26.935     8.513
   161  16 S        2.073    -0.162   147.884    20.467
   162   6 C        3.793     0.006    20.485     6.445
   163   6 C        3.775    -0.103    22.496     6.758
   164  34 Se       2.377    -0.090   238.764    26.925
   165   6 C        3.007     0.021    27.525     8.606
   166   6 C        3.149    -0.007    27.913     8.642
   167   6 C        3.010    -0.004    28.109     8.697
   168   6 C        2.973     0.005    27.896     8.664
   169   6 C        3.089    -0.042    28.926     8.816
   170   6 C        3.110    -0.056    29.239     8.859
   171   6 C        2.965     0.046    26.961     8.517
   172  16 S        2.075    -0.149   147.319    20.428
   173   6 C        3.793     0.002    20.555     6.456
   174   6 C        3.778    -0.106    22.543     6.764
   175  34 Se       2.529    -0.084   238.572    26.914
   176   6 C        3.010     0.023    27.469     8.597
   177  16 S        2.461    -0.060   143.546    20.165
   178   6 C        3.079    -0.051    29.169     8.855
   179   6 C        2.933    -0.009    28.253     8.717
   180  16 S        2.262    -0.069   143.911    20.191
   181   1 H        0.926     0.059     2.213     2.326
   182   1 H        0.926     0.052     2.292     2.367
   183   1 H        0.926     0.047     2.357     2.401
   184   1 H        0.926     0.049     2.338     2.391
   185   1 H        0.925     0.066     2.126     2.280
   186   1 H        0.924     0.067     2.118     2.276
   187   1 H        0.925     0.057     2.229     2.335
   188   1 H        0.925     0.055     2.256     2.349
   189   1 H        0.925     0.057     2.229     2.335
   190   1 H        0.926     0.049     2.330     2.387
   191   1 H        0.926     0.046     2.372     2.409
   192   1 H        0.925     0.055     2.258     2.350
   193   1 H        0.925     0.064     2.158     2.297
   194   1 H        0.925     0.050     2.314     2.379
   195   1 H        0.925     0.049     2.329     2.387
   196   1 H        0.925     0.053     2.278     2.360
   197   1 H        0.926     0.056     2.250     2.346
   198   1 H        0.926     0.056     2.243     2.342
   199   1 H        0.926     0.051     2.304     2.374
   200   1 H        0.926     0.045     2.384     2.414
   201   1 H        0.925     0.055     2.256     2.349
   202   1 H        0.925     0.056     2.251     2.346
   203   1 H        0.925     0.054     2.267     2.354
   204   1 H        0.925     0.054     2.266     2.354
   205   1 H        0.925     0.055     2.258     2.350
   206   1 H        0.926     0.050     2.324     2.384
   207   1 H        0.926     0.048     2.345     2.395
   208   1 H        0.925     0.067     2.120     2.277
   209   1 H        0.924     0.065     2.139     2.287
   210   1 H        0.925     0.055     2.255     2.349
   211   1 H        0.925     0.057     2.233     2.337
   212   1 H        0.924     0.053     2.280     2.361
   213   1 H        0.926     0.070     2.086     2.258
   214   1 H        0.926     0.058     2.223     2.332
   215   1 H        0.926     0.057     2.239     2.340
   216   1 H        0.926     0.064     2.155     2.295
   217   1 H        0.925     0.055     2.259     2.350
   218   1 H        0.925     0.060     2.202     2.321
   219   1 H        0.925     0.051     2.303     2.373
   220   1 H        0.925     0.051     2.309     2.376
   221   1 H        0.925     0.052     2.300     2.372
   222   1 H        0.926     0.067     2.119     2.276
   223   1 H        0.926     0.061     2.193     2.316
   224   1 H        0.926     0.063     2.161     2.299
   225   1 H        0.925     0.059     2.208     2.324
   226   1 H        0.925     0.058     2.225     2.333
   227   1 H        0.925     0.048     2.345     2.394
   228   1 H        0.925     0.057     2.237     2.339
   229   1 H        0.925     0.038     2.482     2.464
   230   1 H        0.926     0.065     2.145     2.290
   231   1 H        0.926     0.050     2.323     2.384
   232   1 H        0.926     0.051     2.306     2.375
   233   1 H        0.926     0.052     2.293     2.368
   234   1 H        0.926     0.062     2.176     2.307
   235   1 H        0.925     0.060     2.196     2.317
   236   1 H        0.925     0.058     2.225     2.333
   237   1 H        0.925     0.049     2.328     2.386
   238   1 H        0.925     0.052     2.299     2.371
   239   1 H        0.925     0.047     2.356     2.400
   240   1 H        0.926     0.068     2.110     2.272
   241   1 H        0.926     0.057     2.239     2.340
   242   1 H        0.926     0.065     2.140     2.288
   243   1 H        0.925     0.058     2.217     2.329
   244   1 H        0.925     0.063     2.162     2.300
   245   1 H        0.925     0.054     2.270     2.356
   246   1 H        0.925     0.037     2.485     2.465
   247   1 H        0.925     0.045     2.380     2.412
   248   1 H        0.926     0.068     2.104     2.268
   249   1 H        0.926     0.050     2.321     2.382
   250   1 H        0.926     0.051     2.313     2.378
   251   1 H        0.926     0.052     2.296     2.370
   252   1 H        0.926     0.056     2.247     2.344
   253   1 H        0.925     0.061     2.182     2.310
   254   1 H        0.925     0.053     2.287     2.365
   255   1 H        0.925     0.049     2.334     2.389
   256   1 H        0.925     0.053     2.278     2.361
   257   1 H        0.925     0.046     2.367     2.406
   258   1 H        0.926     0.069     2.091     2.262
   259   1 H        0.926     0.060     2.198     2.318
   260   1 H        0.926     0.067     2.119     2.276
   261   1 H        0.925     0.062     2.181     2.309
   262   1 H        0.925     0.057     2.238     2.339
   263   1 H        0.925     0.048     2.341     2.393
   264   1 H        0.925     0.051     2.312     2.378
   265   1 H        0.925     0.041     2.438     2.442
   266   1 H        0.926     0.066     2.124     2.279
   267   1 H        0.926     0.053     2.286     2.364
   268   1 H        0.926     0.065     2.137     2.286
   269   1 H        0.926     0.050     2.321     2.382
   270   1 H        0.926     0.046     2.367     2.406
   271   1 H        0.925     0.067     2.113     2.273
   272   1 H        0.924     0.065     2.146     2.291
   273   1 H        0.925     0.057     2.229     2.335
   274   1 H        0.925     0.057     2.232     2.337
   275   1 H        0.924     0.057     2.231     2.336
   276   1 H        0.926     0.045     2.379     2.412
   277   1 H        0.926     0.047     2.356     2.400
   278   1 H        0.924     0.070     2.089     2.260
   279   1 H        0.925     0.068     2.110     2.272
   280   1 H        0.924     0.059     2.215     2.328
   281   1 H        0.925     0.057     2.230     2.335
   282   1 H        0.925     0.056     2.244     2.343
   283   1 H        0.926     0.050     2.322     2.383
   284   1 H        0.926     0.054     2.265     2.354

 Mol. C6AA /au·bohr⁶  :    1697022.217346
 Mol. C8AA /au·bohr⁸  :   55304241.242805
 Mol. α(0) /au        :       2116.811677


Wiberg/Mayer (AO) data.
largest (>0.10) Wiberg bond orders for each atom

 ---------------------------------------------------------------------------
     #   Z sym  total        # sym  WBO       # sym  WBO       # sym  WBO
 ---------------------------------------------------------------------------
     1   6 C    3.925 --     2 C    1.678    25 S    1.136   181 H    0.968
     2   6 C    3.978 --     1 C    1.678     3 C    1.199   182 H    0.958
     3   6 C    3.969 --    24 C    1.276     4 C    1.264     2 C    1.199
     4   6 C    3.966 --    13 C    1.355     3 C    1.264     5 C    1.106
     5   6 C    3.955 --     6 C    1.536    12 Se   1.110     4 C    1.106
     6   6 C    3.978 --     5 C    1.536     7 C    1.279   183 H    0.958
     7   6 C    3.979 --     8 C    1.538     6 C    1.279   184 H    0.961
     8   6 C    3.918 --     7 C    1.538    12 Se   1.152     9 S    1.072
     9  16 S    2.284 --     8 C    1.072    10 C    0.974
    10   6 C    3.970 --    11 C    1.027     9 S    0.974   185 H    0.969
                           186 H    0.948
    11   6 C    3.991 --    10 C    1.027   187 H    0.984   188 H    0.977
                           189 H    0.970
    12  34 Se   2.764 --     8 C    1.152     5 C    1.110
    13   6 C    3.939 --     4 C    1.355    14 C    1.261    28 S    1.096
    14   6 C    3.979 --    15 C    1.262    13 C    1.261    26 C    1.226
    15   6 C    3.949 --    24 C    1.346    14 C    1.262    16 C    1.105
    16   6 C    3.954 --    17 C    1.531    23 Se   1.122    15 C    1.105
    17   6 C    3.975 --    16 C    1.531    18 C    1.275   190 H    0.958
                            23 Se   0.103
    18   6 C    3.976 --    19 C    1.536    17 C    1.275   191 H    0.958
    19   6 C    3.925 --    18 C    1.536    23 Se   1.158    20 S    1.079
    20  16 S    2.286 --    19 C    1.079    21 C    0.969
    21   6 C    3.970 --    22 C    1.027   192 H    0.971   193 H    0.969
                            20 S    0.969
    22   6 C    3.992 --    21 C    1.027   196 H    0.986   195 H    0.984
                           194 H    0.978
    23  34 Se   2.703 --    19 C    1.158    16 C    1.122    17 C    0.103
    24   6 C    3.948 --    15 C    1.346     3 C    1.276    25 S    1.103
    25  16 S    2.567 --     1 C    1.136    24 C    1.103
    26   6 C    3.952 --    27 C    1.552    14 C    1.226   197 H    0.953
    27   6 C    3.932 --    26 C    1.552    29 C    1.158    28 S    1.059
    28  16 S    2.520 --    13 C    1.096    27 C    1.059
    29   6 C    3.930 --    30 C    1.545    27 C    1.158    53 S    1.080
    30   6 C    3.955 --    29 C    1.545    31 C    1.233   198 H    0.953
    31   6 C    3.967 --    52 C    1.256    32 C    1.256    30 C    1.233
    32   6 C    3.938 --    41 C    1.358    31 C    1.256    33 C    1.099
    33   6 C    3.953 --    34 C    1.542    40 Se   1.115    32 C    1.099
    34   6 C    3.977 --    33 C    1.542    35 C    1.269   199 H    0.957
                            40 Se   0.103
    35   6 C    3.975 --    36 C    1.536    34 C    1.269   200 H    0.959
    36   6 C    3.926 --    35 C    1.536    40 Se   1.155    37 S    1.088
    37  16 S    2.295 --    36 C    1.088    38 C    0.966
    38   6 C    3.970 --    39 C    1.025   201 H    0.974   202 H    0.974
                            37 S    0.966
    39   6 C    3.990 --    38 C    1.025   203 H    0.986   205 H    0.985
                           204 H    0.978
    40  34 Se   2.684 --    36 C    1.155    33 C    1.115    34 C    0.103
    41   6 C    3.942 --    32 C    1.358    42 C    1.258    56 S    1.097
    42   6 C    3.969 --    41 C    1.258    43 C    1.257    54 C    1.235
    43   6 C    3.949 --    52 C    1.356    42 C    1.257    44 C    1.104
    44   6 C    3.955 --    45 C    1.538    51 Se   1.111    43 C    1.104
    45   6 C    3.962 --    44 C    1.538    46 C    1.279   206 H    0.954
    46   6 C    3.980 --    47 C    1.542    45 C    1.279   207 H    0.961
    47   6 C    3.920 --    46 C    1.542    51 Se   1.150    48 S    1.075
    48  16 S    2.275 --    47 C    1.075    49 C    0.971
    49   6 C    3.970 --    50 C    1.028    48 S    0.971   208 H    0.969
                           209 H    0.951
    50   6 C    3.992 --    49 C    1.028   211 H    0.984   210 H    0.975
                           212 H    0.972
    51  34 Se   2.741 --    47 C    1.150    44 C    1.111
    52   6 C    3.939 --    43 C    1.356    31 C    1.256    53 S    1.098
    53  16 S    2.496 --    52 C    1.098    29 C    1.080
    54   6 C    3.952 --    55 C    1.536    42 C    1.235   213 H    0.931
    55   6 C    3.929 --    54 C    1.536    57 C    1.158    56 S    1.076
    56  16 S    2.522 --    41 C    1.097    55 C    1.076
    57   6 C    3.933 --    58 C    1.551    55 C    1.158    85 S    1.078
    58   6 C    3.952 --    57 C    1.551    59 C    1.224   214 H    0.955
    59   6 C    3.970 --    60 C    1.288    84 C    1.244    58 C    1.224
    60   6 C    3.961 --    71 C    1.384    59 C    1.288    61 C    1.045
    61   6 C    3.986 --    70 C    1.385    62 C    1.366    60 C    1.045
    62   6 C    3.985 --    63 C    1.474    61 C    1.366   215 H    0.965
    63   6 C    3.986 --    62 C    1.474    64 C    1.364   216 H    0.965
                            70 C    0.100
    64   6 C    3.962 --    63 C    1.364    68 C    1.347    65 S    1.066
    65  16 S    2.251 --    64 C    1.066    66 C    0.969
    66   6 C    3.968 --    67 C    1.025   218 H    0.976   217 H    0.976
                            65 S    0.969
    67   6 C    3.992 --    66 C    1.025   219 H    0.986   220 H    0.986
                           221 H    0.978
    68   6 C    3.874 --    70 C    1.412    64 C    1.347    69 F    0.940
    69   9 F    1.068 --    68 C    0.940
    70   6 C    3.981 --    68 C    1.412    61 C    1.385   222 H    0.962
                            63 C    0.100
    71   6 C    3.944 --    60 C    1.384    72 C    1.245    88 S    1.099
    72   6 C    3.971 --    73 C    1.281    71 C    1.245    86 C    1.233
    73   6 C    3.961 --    84 C    1.389    72 C    1.281    74 C    1.044
    74   6 C    3.985 --    82 C    1.383    75 C    1.370    73 C    1.044
    75   6 C    3.984 --    76 C    1.469    74 C    1.370   223 H    0.964
    76   6 C    3.987 --    75 C    1.469    77 C    1.371   224 H    0.965
                            82 C    0.100
    77   6 C    3.963 --    76 C    1.371    81 C    1.350    78 S    1.053
    78  16 S    2.232 --    77 C    1.053    79 C    0.971
    79   6 C    3.968 --    80 C    1.028   225 H    0.971    78 S    0.971
                           226 H    0.968
    80   6 C    3.993 --    79 C    1.028   227 H    0.986   229 H    0.985
                           228 H    0.973
    81   6 C    3.874 --    82 C    1.415    77 C    1.350    83 F    0.936
    82   6 C    3.984 --    81 C    1.415    74 C    1.383   230 H    0.962
                            76 C    0.100
    83   9 F    1.063 --    81 C    0.936
    84   6 C    3.945 --    73 C    1.389    59 C    1.244    85 S    1.098
    85  16 S    2.493 --    84 C    1.098    57 C    1.078
    86   6 C    3.954 --    87 C    1.535    72 C    1.233   231 H    0.956
    87   6 C    3.935 --    86 C    1.535    89 C    1.153    88 S    1.097
    88  16 S    2.504 --    71 C    1.099    87 C    1.097
    89   6 C    3.934 --    90 C    1.536    87 C    1.153   117 S    1.096
    90   6 C    3.954 --    89 C    1.536    91 C    1.233   232 H    0.955
    91   6 C    3.971 --    92 C    1.282   116 C    1.242    90 C    1.233
    92   6 C    3.961 --   103 C    1.388    91 C    1.282    93 C    1.044
    93   6 C    3.986 --    94 C    1.378   102 C    1.374    92 C    1.044
    94   6 C    3.987 --    95 C    1.455    93 C    1.378   233 H    0.966
    95   6 C    3.986 --    94 C    1.455    96 C    1.381   234 H    0.960
    96   6 C    3.962 --    95 C    1.381   100 C    1.333    97 S    1.061
    97  16 S    2.270 --    96 C    1.061    98 C    0.980
    98   6 C    3.972 --    99 C    1.026    97 S    0.980   235 H    0.969
                           236 H    0.966
    99   6 C    3.992 --    98 C    1.026   238 H    0.986   239 H    0.984
                           237 H    0.978
   100   6 C    3.876 --   102 C    1.425    96 C    1.333   101 F    0.949
   101   9 F    1.084 --   100 C    0.949
   102   6 C    3.981 --   100 C    1.425    93 C    1.374   240 H    0.962
   103   6 C    3.944 --    92 C    1.388   104 C    1.244   120 S    1.099
   104   6 C    3.970 --   105 C    1.282   103 C    1.244   118 C    1.231
   105   6 C    3.962 --   116 C    1.388   104 C    1.282   106 C    1.044
   106   6 C    3.984 --   114 C    1.386   107 C    1.370   105 C    1.044
   107   6 C    3.986 --   108 C    1.469   106 C    1.370   241 H    0.966
   108   6 C    3.987 --   107 C    1.469   109 C    1.375   242 H    0.966
                           114 C    0.100
   109   6 C    3.964 --   108 C    1.375   113 C    1.353   110 S    1.045
   110  16 S    2.214 --   109 C    1.045   111 C    0.972
   111   6 C    3.968 --   112 C    1.027   244 H    0.972   110 S    0.972
                           243 H    0.969
   112   6 C    3.994 --   111 C    1.027   246 H    0.986   245 H    0.986
                           247 H    0.977
   113   6 C    3.876 --   114 C    1.411   109 C    1.353   115 F    0.944
   114   6 C    3.981 --   113 C    1.411   106 C    1.386   248 H    0.961
                           108 C    0.100
   115   9 F    1.075 --   113 C    0.944
   116   6 C    3.945 --   105 C    1.388    91 C    1.242   117 S    1.100
   117  16 S    2.502 --   116 C    1.100    89 C    1.096
   118   6 C    3.954 --   119 C    1.540   104 C    1.231   249 H    0.957
   119   6 C    3.934 --   118 C    1.540   121 C    1.152   120 S    1.095
   120  16 S    2.500 --   103 C    1.099   119 C    1.095
   121   6 C    3.935 --   122 C    1.540   119 C    1.152   149 S    1.094
   122   6 C    3.954 --   121 C    1.540   123 C    1.230   250 H    0.957
   123   6 C    3.971 --   124 C    1.284   148 C    1.243   122 C    1.230
   124   6 C    3.962 --   135 C    1.389   123 C    1.284   125 C    1.042
   125   6 C    3.986 --   126 C    1.379   134 C    1.376   124 C    1.042
   126   6 C    3.987 --   127 C    1.455   125 C    1.379   251 H    0.966
   127   6 C    3.987 --   126 C    1.455   128 C    1.382   252 H    0.962
   128   6 C    3.963 --   127 C    1.382   132 C    1.335   129 S    1.056
   129  16 S    2.252 --   128 C    1.056   130 C    0.978
   130   6 C    3.972 --   131 C    1.027   129 S    0.978   253 H    0.969
                           254 H    0.969
   131   6 C    3.992 --   130 C    1.027   256 H    0.986   257 H    0.984
                           255 H    0.978
   132   6 C    3.878 --   134 C    1.422   128 C    1.335   133 F    0.951
   133   9 F    1.087 --   132 C    0.951
   134   6 C    3.981 --   132 C    1.422   125 C    1.376   258 H    0.962
   135   6 C    3.945 --   124 C    1.389   136 C    1.242   152 S    1.100
   136   6 C    3.971 --   137 C    1.283   135 C    1.242   150 C    1.231
   137   6 C    3.962 --   148 C    1.388   136 C    1.283   138 C    1.044
   138   6 C    3.984 --   146 C    1.379   139 C    1.378   137 C    1.044
   139   6 C    3.984 --   140 C    1.461   138 C    1.378   259 H    0.964
   140   6 C    3.987 --   139 C    1.461   141 C    1.383   260 H    0.966
                           146 C    0.101
   141   6 C    3.963 --   140 C    1.383   145 C    1.351   142 S    1.039
   142  16 S    2.204 --   141 C    1.039   143 C    0.970
   143   6 C    3.968 --   144 C    1.028   261 H    0.973   142 S    0.970
                           262 H    0.969
   144   6 C    3.993 --   143 C    1.028   264 H    0.986   265 H    0.985
                           263 H    0.978
   145   6 C    3.875 --   146 C    1.416   141 C    1.351   147 F    0.940
   146   6 C    3.984 --   145 C    1.416   138 C    1.379   266 H    0.962
                           140 C    0.101
   147   9 F    1.072 --   145 C    0.940
   148   6 C    3.945 --   137 C    1.388   123 C    1.243   149 S    1.099
   149  16 S    2.500 --   148 C    1.099   121 C    1.094
   150   6 C    3.955 --   151 C    1.539   136 C    1.231   267 H    0.955
   151   6 C    3.934 --   150 C    1.539   153 C    1.152   152 S    1.096
   152  16 S    2.502 --   135 C    1.100   151 C    1.096
   153   6 C    3.931 --   154 C    1.535   151 C    1.152   177 S    1.078
   154   6 C    3.954 --   153 C    1.535   155 C    1.233   268 H    0.928
   155   6 C    3.979 --   156 C    1.261   176 C    1.258   154 C    1.233
   156   6 C    3.947 --   165 C    1.338   155 C    1.261   157 C    1.116
   157   6 C    3.951 --   158 C    1.530   156 C    1.116   164 Se   1.103
   158   6 C    3.970 --   157 C    1.530   159 C    1.287   269 H    0.953
   159   6 C    3.980 --   160 C    1.535   158 C    1.287   270 H    0.961
   160   6 C    3.917 --   159 C    1.535   164 Se   1.149   161 S    1.079
   161  16 S    2.280 --   160 C    1.079   162 C    0.970
   162   6 C    3.968 --   163 C    1.027   161 S    0.970   271 H    0.968
                           272 H    0.957
   163   6 C    3.989 --   162 C    1.027   274 H    0.984   273 H    0.974
                           275 H    0.961
   164  34 Se   2.738 --   160 C    1.149   157 C    1.103
   165   6 C    3.945 --   156 C    1.338   166 C    1.278   180 S    1.102
   166   6 C    3.966 --   165 C    1.278   167 C    1.261   178 C    1.199
   167   6 C    3.964 --   176 C    1.354   166 C    1.261   168 C    1.109
   168   6 C    3.954 --   169 C    1.529   175 Se   1.111   167 C    1.109
   169   6 C    3.977 --   168 C    1.529   170 C    1.285   276 H    0.958
   170   6 C    3.978 --   171 C    1.530   169 C    1.285   277 H    0.961
   171   6 C    3.918 --   170 C    1.530   175 Se   1.156   172 S    1.077
   172  16 S    2.293 --   171 C    1.077   173 C    0.975
   173   6 C    3.969 --   174 C    1.027   172 S    0.975   279 H    0.969
                           278 H    0.948
   174   6 C    3.991 --   173 C    1.027   281 H    0.984   282 H    0.976
                           280 H    0.968
   175  34 Se   2.772 --   171 C    1.156   168 C    1.111
   176   6 C    3.940 --   167 C    1.354   155 C    1.258   177 S    1.099
   177  16 S    2.537 --   176 C    1.099   153 C    1.078
   178   6 C    3.981 --   179 C    1.677   166 C    1.199   283 H    0.958
   179   6 C    3.927 --   178 C    1.677   180 S    1.149   284 H    0.968
   180  16 S    2.543 --   179 C    1.149   165 C    1.102
   181   1 H    0.995 --     1 C    0.968
   182   1 H    0.996 --     2 C    0.958
   183   1 H    0.997 --     6 C    0.958
   184   1 H    0.997 --     7 C    0.961
   185   1 H    0.995 --    10 C    0.969
   186   1 H    0.995 --    10 C    0.948
   187   1 H    0.997 --    11 C    0.984
   188   1 H    0.996 --    11 C    0.977
   189   1 H    0.997 --    11 C    0.970
   190   1 H    0.997 --    17 C    0.958
   191   1 H    0.997 --    18 C    0.958
   192   1 H    0.997 --    21 C    0.971
   193   1 H    0.995 --    21 C    0.969
   194   1 H    0.997 --    22 C    0.978
   195   1 H    0.998 --    22 C    0.984
   196   1 H    0.997 --    22 C    0.986
   197   1 H    0.996 --    26 C    0.953
   198   1 H    0.996 --    30 C    0.953
   199   1 H    0.997 --    34 C    0.957
   200   1 H    0.997 --    35 C    0.959
   201   1 H    0.997 --    38 C    0.974
   202   1 H    0.997 --    38 C    0.974
   203   1 H    0.997 --    39 C    0.986
   204   1 H    0.996 --    39 C    0.978
   205   1 H    0.997 --    39 C    0.985
   206   1 H    0.997 --    45 C    0.954
   207   1 H    0.997 --    46 C    0.961
   208   1 H    0.995 --    49 C    0.969
   209   1 H    0.996 --    49 C    0.951
   210   1 H    0.996 --    50 C    0.975
   211   1 H    0.997 --    50 C    0.984
   212   1 H    0.997 --    50 C    0.972
   213   1 H    0.994 --    54 C    0.931
   214   1 H    0.996 --    58 C    0.955
   215   1 H    0.996 --    62 C    0.965
   216   1 H    0.995 --    63 C    0.965
   217   1 H    0.997 --    66 C    0.976
   218   1 H    0.996 --    66 C    0.976
   219   1 H    0.997 --    67 C    0.986
   220   1 H    0.997 --    67 C    0.986
   221   1 H    0.997 --    67 C    0.978
   222   1 H    0.995 --    70 C    0.962
   223   1 H    0.996 --    75 C    0.964
   224   1 H    0.995 --    76 C    0.965
   225   1 H    0.996 --    79 C    0.971
   226   1 H    0.996 --    79 C    0.968
   227   1 H    0.998 --    80 C    0.986
   228   1 H    0.997 --    80 C    0.973
   229   1 H    0.999 --    80 C    0.985
   230   1 H    0.996 --    82 C    0.962
   231   1 H    0.997 --    86 C    0.956
   232   1 H    0.997 --    90 C    0.955
   233   1 H    0.997 --    94 C    0.966
   234   1 H    0.995 --    95 C    0.960
   235   1 H    0.996 --    98 C    0.969
   236   1 H    0.997 --    98 C    0.966
   237   1 H    0.997 --    99 C    0.978
   238   1 H    0.997 --    99 C    0.986
   239   1 H    0.998 --    99 C    0.984
   240   1 H    0.995 --   102 C    0.962
   241   1 H    0.997 --   107 C    0.966
   242   1 H    0.995 --   108 C    0.966
   243   1 H    0.996 --   111 C    0.969
   244   1 H    0.996 --   111 C    0.972
   245   1 H    0.997 --   112 C    0.986
   246   1 H    0.999 --   112 C    0.986
   247   1 H    0.998 --   112 C    0.977
   248   1 H    0.995 --   114 C    0.961
   249   1 H    0.997 --   118 C    0.957
   250   1 H    0.997 --   122 C    0.957
   251   1 H    0.997 --   126 C    0.966
   252   1 H    0.996 --   127 C    0.962
   253   1 H    0.996 --   130 C    0.969
   254   1 H    0.997 --   130 C    0.969
   255   1 H    0.997 --   131 C    0.978
   256   1 H    0.997 --   131 C    0.986
   257   1 H    0.998 --   131 C    0.984
   258   1 H    0.995 --   134 C    0.962
   259   1 H    0.996 --   139 C    0.964
   260   1 H    0.995 --   140 C    0.966
   261   1 H    0.996 --   143 C    0.973
   262   1 H    0.996 --   143 C    0.969
   263   1 H    0.997 --   144 C    0.978
   264   1 H    0.997 --   144 C    0.986
   265   1 H    0.998 --   144 C    0.985
   266   1 H    0.996 --   146 C    0.962
   267   1 H    0.997 --   150 C    0.955
   268   1 H    0.994 --   154 C    0.928
   269   1 H    0.997 --   158 C    0.953
   270   1 H    0.997 --   159 C    0.961
   271   1 H    0.995 --   162 C    0.968
   272   1 H    0.996 --   162 C    0.957
   273   1 H    0.996 --   163 C    0.974
   274   1 H    0.997 --   163 C    0.984
   275   1 H    0.997 --   163 C    0.961
   276   1 H    0.997 --   169 C    0.958
   277   1 H    0.997 --   170 C    0.961
   278   1 H    0.995 --   173 C    0.948
   279   1 H    0.995 --   173 C    0.969
   280   1 H    0.997 --   174 C    0.968
   281   1 H    0.997 --   174 C    0.984
   282   1 H    0.996 --   174 C    0.976
   283   1 H    0.997 --   178 C    0.958
   284   1 H    0.996 --   179 C    0.968
 ---------------------------------------------------------------------------

Topologies differ in bond orders
Writing corrected topology to xtbtopo.mol

molecular dipole:
                 x           y           z       tot (Debye)
 q only:        1.793      -0.796       0.776
   full:        1.857      -1.023       2.296       7.943
molecular quadrupole (traceless):
                xx          xy          yy          xz          yz          zz
 q only:       57.726      52.722     -57.528      36.516     -62.295      -0.198
  q+dip:       43.026      35.232     -71.510      27.980     -58.656      28.484
   full:       34.964      30.762     -76.726      30.258     -59.230      41.762


           -------------------------------------------------
          | TOTAL ENERGY             -487.084974198072 Eh   |
          | GRADIENT NORM               0.016704889242 Eh/α |
          | HOMO-LUMO GAP               1.083697976915 eV   |
           -------------------------------------------------

------------------------------------------------------------------------
 * finished run on 2022/03/07 at 14:34:17.677     
------------------------------------------------------------------------
 total:
 * wall-time:     0 d,  0 h,  0 min,  1.772 sec
 *  cpu-time:     0 d,  0 h,  0 min, 14.041 sec
 * ratio c/w:     7.925 speedup
 SCF:
 * wall-time:     0 d,  0 h,  0 min,  1.625 sec
 *  cpu-time:     0 d,  0 h,  0 min, 12.966 sec
 * ratio c/w:     7.981 speedup

