      -----------------------------------------------------------      
     |                   =====================                   |     
     |                           x T B                           |     
     |                   =====================                   |     
     |                         S. Grimme                         |     
     |          Mulliken Center for Theoretical Chemistry        |     
     |                    University of Bonn                     |     
      -----------------------------------------------------------      

   * xtb version 6.4.1 (unknown) compiled by 'oda6@login1.crc.pitt.edu' on 2021-06-25

   xtb is free software: you can redistribute it and/or modify it under
   the terms of the GNU Lesser General Public License as published by
   the Free Software Foundation, either version 3 of the License, or
   (at your option) any later version.
   
   xtb is distributed in the hope that it will be useful,
   but WITHOUT ANY WARRANTY; without even the implied warranty of
   MERCHANTABILITY or FITNESS FOR A PARTICULAR PURPOSE.  See the
   GNU Lesser General Public License for more details.
   
   Cite this work as:
   * C. Bannwarth, E. Caldeweyher, S. Ehlert, A. Hansen, P. Pracht,
     J. Seibert, S. Spicher, S. Grimme, WIREs Comput. Mol. Sci., 2020, 11,
     e01493. DOI: 10.1002/wcms.1493
   
   for GFN2-xTB:
   * C. Bannwarth, S. Ehlert and S. Grimme., J. Chem. Theory Comput., 2019,
     15, 1652-1671. DOI: 10.1021/acs.jctc.8b01176
   for GFN1-xTB:
   * S. Grimme, C. Bannwarth, P. Shushkov, J. Chem. Theory Comput., 2017,
     13, 1989-2009. DOI: 10.1021/acs.jctc.7b00118
   for GFN0-xTB:
   * P. Pracht, E. Caldeweyher, S. Ehlert, S. Grimme, ChemRxiv, 2019, preprint.
     DOI: 10.26434/chemrxiv.8326202.v1
   for GFN-FF:
   * S. Spicher and S. Grimme, Angew. Chem. Int. Ed., 2020, 59, 15665-15673.
     DOI: 10.1002/anie.202004239
   
   for DFT-D4:
   * E. Caldeweyher, C. Bannwarth and S. Grimme, J. Chem. Phys., 2017,
     147, 034112. DOI: 10.1063/1.4993215
   * E. Caldeweyher, S. Ehlert, A. Hansen, H. Neugebauer, S. Spicher,
     C. Bannwarth and S. Grimme, J. Chem. Phys., 2019, 150, 154122.
     DOI: 10.1063/1.5090222
   * E. Caldeweyher, J.-M. Mewes, S. Ehlert and S. Grimme, Phys. Chem. Chem. Phys.
     2020, 22, 8499-8512. DOI: 10.1039/D0CP00502A
   
   for sTDA-xTB:
   * S. Grimme and C. Bannwarth, J. Chem. Phys., 2016, 145, 054103.
     DOI: 10.1063/1.4959605
   
   in the mass-spec context:
   * V. Asgeirsson, C. Bauer and S. Grimme, Chem. Sci., 2017, 8, 4879.
     DOI: 10.1039/c7sc00601b
   * J. Koopman and S. Grimme, ACS Omega 2019, 4, 12, 15120-15133.
     DOI: 10.1021/acsomega.9b02011
   
   for metadynamics refer to:
   * S. Grimme, J. Chem. Theory Comput., 2019, 155, 2847-2862
     DOI: 10.1021/acs.jctc.9b00143
   
   for SPH calculations refer to:
   * S. Spicher and S. Grimme, J. Chem. Theory Comput., 2021, 17, 1701-1714
     DOI: 10.1021/acs.jctc.0c01306
   
   with help from (in alphabetical order)
   P. Atkinson, C. Bannwarth, F. Bohle, G. Brandenburg, E. Caldeweyher
   M. Checinski, S. Dohm, S. Ehlert, S. Ehrlich, I. Gerasimov, J. Koopman
   C. Lavigne, S. Lehtola, F. März, M. Müller, F. Musil, H. Neugebauer
   J. Pisarek, C. Plett, P. Pracht, J. Seibert, P. Shushkov, S. Spicher
   M. Stahn, M. Steiner, T. Strunk, J. Stückrath, T. Rose, and J. Unsleber
   
 * started run on 2022/03/07 at 22:42:13.602     

           -------------------------------------------------
          |                Calculation Setup                |
           -------------------------------------------------

          program call               : /ihome/ghutchison/oda6/xtb/xtb-641/bin/xtb ../../GFN2_output/100_99_000101.mol --sp --alpb hexane
          hostname                   : smp-n44
          coordinate file            : ../../GFN2_output/100_99_000101.mol
          omp threads                :                     8
          number of atoms            :                   278
          number of electrons        :                   882
          charge                     :                     0
          spin                       :                   0.0
          first test random number   :      0.73645017277368

   ID    Z sym.   atoms
    1    6 C      1-8, 10, 11, 13-19, 21, 22, 24, 26, 27, 29-36, 38, 39,
                  41-47, 49, 50, 52, 54, 55, 57-64, 66, 67, 69-75, 77, 78,
                  80, 82, 83, 85-92, 94-96, 98-105, 107-110, 112, 114, 115,
                  117-124, 126, 127, 129-135, 137, 138, 140, 142, 143,
                  145-152, 154-156, 158-165, 167-170, 172, 174, 175
    2   16 S      9, 20, 25, 28, 37, 48, 53, 56, 65, 76, 81, 84, 93, 106,
                  113, 116, 125, 136, 141, 144, 153, 166, 173, 176
    3   34 Se     12, 23, 40, 51, 68, 79, 128, 139
    4    9 F      97, 111, 157, 171
    5    1 H      177-278

           -------------------------------------------------
          |                 G F N 2 - x T B                 |
           -------------------------------------------------

        Reference                      10.1021/acs.jctc.8b01176
      * Hamiltonian:
        H0-scaling (s, p, d)           1.850000    2.230000    2.230000
        zeta-weighting                 0.500000
      * Dispersion:
        s8                             2.700000
        a1                             0.520000
        a2                             5.000000
        s9                             5.000000
      * Repulsion:
        kExp                           1.500000    1.000000
        rExp                           1.000000
      * Coulomb:
        alpha                          2.000000
        third order                    shell-resolved
        anisotropic                    true
        a3                             3.000000
        a5                             4.000000
        cn-shift                       1.200000
        cn-exp                         4.000000
        max-rad                        5.000000

      * Solvation model:               ALPB
        Solvent                        hexane
        Parameter file                 internal GFN2-xTB/ALPB
        Dielectric constant                1.8800E+00
        Reference state                gsolv [1 M gas/solution]
        Free energy shift                  4.8134E-03 Eh       3.0204E+00 kcal/mol
        Temperature                        2.9815E+02 K
        Density                            6.6000E-01 kg/L
        Solvent mass                       8.6180E+01 g/mol
        Interaction kernel             P16
        Born radius scaling (c1)           1.1040E+00
        Born radii integrator          GBOBC
        Born offset                        0.0000E+00 a0       0.0000E+00 AA
        H-bond correction              false
        Ion screening                  false
        Surface tension                    1.0000E-05 Eh       1.5569E+01 dyn/cm
        Grid points                               230 per atom

          ...................................................
          :                      SETUP                      :
          :.................................................:
          :  # basis functions                 998          :
          :  # atomic orbitals                 966          :
          :  # shells                          486          :
          :  # electrons                       882          :
          :  max. iterations                   250          :
          :  Hamiltonian                  GFN2-xTB          :
          :  restarted?                      false          :
          :  GBSA solvation                   true          :
          :  PC potential                    false          :
          :  electronic temp.          300.0000000     K    :
          :  accuracy                    1.0000000          :
          :  -> integral cutoff          0.2500000E+02      :
          :  -> integral neglect         0.1000000E-07      :
          :  -> SCF convergence          0.1000000E-05 Eh   :
          :  -> wf. convergence          0.1000000E-03 e    :
          :  Broyden damping             0.4000000          :
          ...................................................

 iter      E             dE          RMSdq      gap      omega  full diag
   1   -480.5820770 -0.480582E+03  0.450E+00    1.28       0.0  T
   2   -480.9035203 -0.321443E+00  0.249E+00    1.22       1.0  T
   3   -480.7747681  0.128752E+00  0.108E+00    1.10       1.0  T
   4   -480.9457189 -0.170951E+00  0.518E-01    1.11       1.0  T
   5   -480.9678977 -0.221788E-01  0.232E-01    1.11       1.0  T
   6   -480.9695702 -0.167252E-02  0.100E-01    1.12       1.0  T
   7   -480.9706465 -0.107629E-02  0.452E-02    1.11       1.0  T
   8   -480.9707860 -0.139450E-03  0.254E-02    1.12       1.0  T
   9   -480.9707973 -0.113094E-04  0.142E-02    1.12       1.0  T
  10   -480.9708087 -0.113686E-04  0.632E-03    1.12       1.0  T
  11   -480.9708105 -0.181249E-05  0.373E-03    1.12       1.6  T
  12   -480.9708111 -0.653715E-06  0.202E-03    1.12       3.0  T
  13   -480.9708113 -0.217285E-06  0.110E-03    1.12       5.4  T
  14   -480.9708114 -0.480057E-07  0.608E-04    1.12       9.9  T
  15   -480.9708114 -0.196742E-07  0.285E-04    1.12      21.0  T

   *** convergence criteria satisfied after 15 iterations ***

         #    Occupation            Energy/Eh            Energy/eV
      -------------------------------------------------------------
         1        2.0000           -0.8384194             -22.8146
       ...           ...                  ...                  ...
       435        2.0000           -0.3676362             -10.0039
       436        2.0000           -0.3652295              -9.9384
       437        2.0000           -0.3650224              -9.9328
       438        2.0000           -0.3630578              -9.8793
       439        2.0000           -0.3571754              -9.7192
       440        2.0000           -0.3540153              -9.6332
       441        2.0000           -0.3518649              -9.5747 (HOMO)
       442                         -0.3108438              -8.4585 (LUMO)
       443                         -0.3062328              -8.3330
       444                         -0.3000388              -8.1645
       445                         -0.2914394              -7.9305
       446                         -0.2866735              -7.8008
       ...                                ...                  ...
       966                          0.9737730              26.4977
      -------------------------------------------------------------
                  HL-Gap            0.0410211 Eh            1.1162 eV
             Fermi-level           -0.3313095 Eh           -9.0154 eV

 SCC (total)                   0 d,  0 h,  0 min,  1.700 sec
 SCC setup                      ...        0 min,  0.012 sec (  0.710%)
 Dispersion                     ...        0 min,  0.015 sec (  0.910%)
 classical contributions        ...        0 min,  0.001 sec (  0.040%)
 integral evaluation            ...        0 min,  0.079 sec (  4.661%)
 iterations                     ...        0 min,  1.282 sec ( 75.408%)
 molecular gradient             ...        0 min,  0.302 sec ( 17.765%)
 printout                       ...        0 min,  0.009 sec (  0.501%)

         :::::::::::::::::::::::::::::::::::::::::::::::::::::
         ::                     SUMMARY                     ::
         :::::::::::::::::::::::::::::::::::::::::::::::::::::
         :: total energy            -474.315375539075 Eh    ::
         :: total w/o Gsasa/hb      -474.140964209543 Eh    ::
         :: gradient norm              0.013499887963 Eh/a0 ::
         :: HOMO-LUMO gap              1.116239859192 eV    ::
         ::.................................................::
         :: SCC energy              -480.970811401908 Eh    ::
         :: -> isotropic ES            0.091605202251 Eh    ::
         :: -> anisotropic ES          0.005293799618 Eh    ::
         :: -> anisotropic XC          0.193838955029 Eh    ::
         :: -> dispersion             -0.512504763600 Eh    ::
         :: -> Gsolv                  -0.195005833976 Eh    ::
         ::    -> Gelec               -0.020594504444 Eh    ::
         ::    -> Gsasa               -0.179224685352 Eh    ::
         ::    -> Ghb                  0.000000000000 Eh    ::
         ::    -> Gshift               0.004813355820 Eh    ::
         :: repulsion energy           6.645079553964 Eh    ::
         :: add. restraining           0.000000000000 Eh    ::
         :: total charge               0.000000000084 e     ::
         :::::::::::::::::::::::::::::::::::::::::::::::::::::

           -------------------------------------------------
          |                Property Printout                |
           -------------------------------------------------

    * Orbital Energies and Occupations

         #    Occupation            Energy/Eh            Energy/eV
      -------------------------------------------------------------
         1        2.0000           -0.8384194             -22.8146
       ...           ...                  ...                  ...
       429        2.0000           -0.3741825             -10.1820
       430        2.0000           -0.3720462             -10.1239
       431        2.0000           -0.3718290             -10.1180
       432        2.0000           -0.3696917             -10.0598
       433        2.0000           -0.3692201             -10.0470
       434        2.0000           -0.3685407             -10.0285
       435        2.0000           -0.3676362             -10.0039
       436        2.0000           -0.3652295              -9.9384
       437        2.0000           -0.3650224              -9.9328
       438        2.0000           -0.3630578              -9.8793
       439        2.0000           -0.3571754              -9.7192
       440        2.0000           -0.3540153              -9.6332
       441        2.0000           -0.3518649              -9.5747 (HOMO)
       442                         -0.3108438              -8.4585 (LUMO)
       443                         -0.3062328              -8.3330
       444                         -0.3000388              -8.1645
       445                         -0.2914394              -7.9305
       446                         -0.2866735              -7.8008
       447                         -0.2845766              -7.7437
       448                         -0.2751393              -7.4869
       449                         -0.2733063              -7.4370
       450                         -0.2731802              -7.4336
       451                         -0.2702191              -7.3530
       452                         -0.2696943              -7.3388
       ...                                ...                  ...
       966                          0.9737730              26.4977
      -------------------------------------------------------------
                  HL-Gap            0.0410211 Eh            1.1162 eV
             Fermi-level           -0.3313095 Eh           -9.0154 eV

     #   Z          covCN         q      C6AA      α(0)
     1   6 C        2.934    -0.008    28.226     8.713
     2   6 C        3.073    -0.045    29.044     8.836
     3   6 C        3.144    -0.005    27.881     8.640
     4   6 C        3.009    -0.004    28.096     8.695
     5   6 C        2.975     0.008    27.827     8.653
     6   6 C        3.087    -0.042    28.928     8.817
     7   6 C        3.111    -0.055    29.200     8.853
     8   6 C        2.964     0.043    27.028     8.528
     9  16 S        2.071    -0.161   147.834    20.464
    10   6 C        3.793     0.003    20.541     6.454
    11   6 C        3.777    -0.105    22.532     6.763
    12  34 Se       2.357    -0.092   238.827    26.928
    13   6 C        3.009     0.025    27.423     8.590
    14   6 C        3.138    -0.003    27.856     8.638
    15   6 C        3.009    -0.004    28.095     8.695
    16   6 C        2.975     0.011    27.771     8.644
    17   6 C        3.084    -0.044    28.982     8.825
    18   6 C        3.095    -0.043    28.953     8.819
    19   6 C        2.967     0.046    26.974     8.519
    20  16 S        2.081    -0.217   150.303    20.634
    21   6 C        3.793     0.003    20.545     6.455
    22   6 C        3.779    -0.101    22.458     6.751
    23  34 Se       2.391    -0.034   236.866    26.817
    24   6 C        3.008     0.023    27.473     8.598
    25  16 S        2.285    -0.050   143.146    20.137
    26   6 C        3.078    -0.054    29.260     8.868
    27   6 C        3.033     0.035    27.180     8.551
    28  16 S        2.278    -0.079   144.349    20.221
    29   6 C        3.011     0.029    27.328     8.575
    30   6 C        3.063    -0.044    29.017     8.833
    31   6 C        3.137    -0.002    27.854     8.638
    32   6 C        3.011    -0.001    28.041     8.686
    33   6 C        2.976     0.008    27.835     8.654
    34   6 C        3.087    -0.041    28.903     8.813
    35   6 C        3.110    -0.054    29.181     8.850
    36   6 C        2.966     0.049    26.901     8.507
    37  16 S        2.087    -0.165   148.036    20.478
    38   6 C        3.795     0.009    20.434     6.437
    39   6 C        3.784    -0.104    22.495     6.756
    40  34 Se       2.381    -0.121   239.839    26.985
    41   6 C        3.005     0.024    27.454     8.595
    42   6 C        3.138    -0.005    27.908     8.646
    43   6 C        3.015    -0.003    28.074     8.691
    44   6 C        2.974     0.011    27.769     8.644
    45   6 C        3.090    -0.036    28.799     8.796
    46   6 C        3.109    -0.052    29.134     8.843
    47   6 C        2.965     0.052    26.834     8.497
    48  16 S        2.076    -0.151   147.420    20.435
    49   6 C        3.793     0.004    20.522     6.451
    50   6 C        3.777    -0.103    22.492     6.757
    51  34 Se       2.598    -0.098   239.029    26.940
    52   6 C        3.009     0.027    27.375     8.583
    53  16 S        2.530    -0.079   144.344    20.221
    54   6 C        3.071    -0.053    29.237     8.866
    55   6 C        3.022     0.031    27.274     8.566
    56  16 S        2.267    -0.084   144.562    20.236
    57   6 C        3.010     0.030    27.317     8.573
    58   6 C        3.078    -0.048    29.098     8.844
    59   6 C        3.145    -0.003    27.845     8.634
    60   6 C        3.007    -0.003    28.079     8.692
    61   6 C        2.970     0.009    27.818     8.651
    62   6 C        3.088    -0.042    28.941     8.818
    63   6 C        3.114    -0.052    29.121     8.840
    64   6 C        2.964     0.049    26.904     8.508
    65  16 S        2.079    -0.152   147.444    20.437
    66   6 C        3.793     0.004    20.528     6.452
    67   6 C        3.778    -0.103    22.498     6.758
    68  34 Se       2.381    -0.095   238.931    26.934
    69   6 C        3.005     0.022    27.489     8.601
    70   6 C        3.152    -0.002    27.789     8.621
    71   6 C        3.015    -0.003    28.087     8.693
    72   6 C        2.971     0.009    27.825     8.652
    73   6 C        3.084    -0.041    28.930     8.817
    74   6 C        3.113    -0.051    29.108     8.838
    75   6 C        2.964     0.048    26.921     8.511
    76  16 S        2.079    -0.151   147.410    20.435
    77   6 C        3.793     0.003    20.543     6.454
    78   6 C        3.779    -0.105    22.529     6.762
    79  34 Se       2.374    -0.090   238.778    26.925
    80   6 C        3.009     0.023    27.485     8.600
    81  16 S        2.291    -0.083   144.502    20.232
    82   6 C        3.081    -0.046    29.038     8.834
    83   6 C        3.025     0.028    27.341     8.577
    84  16 S        2.290    -0.090   144.816    20.254
    85   6 C        3.020     0.033    27.242     8.562
    86   6 C        3.064    -0.052    29.233     8.866
    87   6 C        3.135    -0.001    27.824     8.634
    88   6 C        2.996    -0.003    28.085     8.693
    89   6 C        2.979     0.015    27.671     8.629
    90   6 C        2.921    -0.036    28.905     8.817
    91   6 C        2.982    -0.037    28.921     8.821
    92   6 C        2.959     0.037    27.174     8.550
    93  16 S        2.049    -0.183   148.807    20.531
    94   6 C        3.793     0.002    20.563     6.458
    95   6 C        3.779    -0.099    22.420     6.746
    96   6 C        2.802     0.163    24.466     8.103
    97   9 F        0.787    -0.241    11.667     4.035
    98   6 C        2.926    -0.051    29.268     8.872
    99   6 C        3.009     0.028    27.360     8.580
   100   6 C        3.140    -0.003    27.851     8.636
   101   6 C        2.995    -0.003    28.082     8.693
   102   6 C        2.978     0.015    27.679     8.630
   103   6 C        2.921    -0.036    28.895     8.815
   104   6 C        2.982    -0.037    28.903     8.819
   105   6 C        2.959     0.037    27.175     8.550
   106  16 S        2.049    -0.180   148.677    20.522
   107   6 C        3.793     0.001    20.568     6.458
   108   6 C        3.779    -0.100    22.429     6.747
   109   6 C        2.802     0.162    24.493     8.108
   110   6 C        2.926    -0.052    29.297     8.876
   111   9 F        0.787    -0.243    11.687     4.038
   112   6 C        3.006     0.029    27.347     8.578
   113  16 S        2.284    -0.086   144.650    20.242
   114   6 C        3.064    -0.050    29.168     8.856
   115   6 C        3.034     0.031    27.270     8.565
   116  16 S        2.274    -0.083   144.515    20.233
   117   6 C        3.019     0.031    27.279     8.567
   118   6 C        3.067    -0.048    29.125     8.849
   119   6 C        3.142    -0.002    27.831     8.633
   120   6 C        3.012    -0.003    28.089     8.694
   121   6 C        2.973     0.008    27.844     8.655
   122   6 C        3.085    -0.041    28.930     8.817
   123   6 C        3.111    -0.052    29.144     8.844
   124   6 C        2.964     0.047    26.954     8.516
   125  16 S        2.078    -0.158   147.711    20.455
   126   6 C        3.793     0.003    20.537     6.453
   127   6 C        3.779    -0.104    22.518     6.760
   128  34 Se       2.366    -0.086   238.630    26.917
   129   6 C        3.008     0.024    27.455     8.595
   130   6 C        3.132    -0.002    27.872     8.643
   131   6 C        3.005    -0.002    28.068     8.691
   132   6 C        2.971     0.008    27.843     8.655
   133   6 C        3.095    -0.039    28.847     8.803
   134   6 C        3.116    -0.053    29.136     8.842
   135   6 C        2.963     0.050    26.871     8.503
   136  16 S        2.074    -0.159   147.775    20.460
   137   6 C        3.793     0.012    20.390     6.430
   138   6 C        3.776    -0.093    22.299     6.728
   139  34 Se       2.377    -0.094   238.918    26.933
   140   6 C        3.006     0.025    27.421     8.590
   141  16 S        2.303    -0.084   144.564    20.236
   142   6 C        3.078    -0.049    29.134     8.849
   143   6 C        3.025     0.030    27.309     8.572
   144  16 S        2.275    -0.078   144.288    20.217
   145   6 C        3.015     0.032    27.259     8.564
   146   6 C        3.063    -0.053    29.261     8.870
   147   6 C        3.137    -0.003    27.857     8.638
   148   6 C        2.993    -0.003    28.085     8.693
   149   6 C        2.978     0.014    27.703     8.634
   150   6 C        2.922    -0.036    28.904     8.816
   151   6 C        2.983    -0.037    28.924     8.822
   152   6 C        2.959     0.037    27.181     8.551
   153  16 S        2.049    -0.179   148.639    20.520
   154   6 C        3.793     0.001    20.567     6.458
   155   6 C        3.778    -0.099    22.416     6.745
   156   6 C        2.802     0.162    24.494     8.108
   157   9 F        0.787    -0.243    11.684     4.038
   158   6 C        2.924    -0.053    29.306     8.878
   159   6 C        3.008     0.024    27.453     8.595
   160   6 C        3.141    -0.005    27.891     8.642
   161   6 C        2.992    -0.005    28.136     8.701
   162   6 C        2.977     0.014    27.698     8.633
   163   6 C        2.923    -0.040    28.989     8.829
   164   6 C        2.945    -0.042    29.036     8.838
   165   6 C        2.961     0.037    27.179     8.551
   166  16 S        2.060    -0.155   147.603    20.448
   167   6 C        3.794     0.004    20.517     6.450
   168   6 C        3.776    -0.104    22.516     6.761
   169   6 C        2.841     0.159    24.549     8.120
   170   6 C        2.923    -0.051    29.262     8.871
   171   9 F        0.789    -0.212    11.358     3.981
   172   6 C        3.005     0.028    27.367     8.581
   173  16 S        2.286    -0.083   144.508    20.232
   174   6 C        3.072    -0.052    29.203     8.861
   175   6 C        2.934    -0.009    28.246     8.716
   176  16 S        2.249    -0.058   143.450    20.158
   177   1 H        0.926     0.058     2.222     2.331
   178   1 H        0.926     0.056     2.248     2.345
   179   1 H        0.926     0.048     2.342     2.393
   180   1 H        0.926     0.048     2.339     2.391
   181   1 H        0.924     0.066     2.134     2.285
   182   1 H        0.925     0.066     2.127     2.281
   183   1 H        0.925     0.054     2.268     2.355
   184   1 H        0.925     0.058     2.226     2.333
   185   1 H        0.925     0.056     2.246     2.344
   186   1 H        0.926     0.052     2.294     2.368
   187   1 H        0.926     0.056     2.242     2.341
   188   1 H        0.925     0.060     2.201     2.320
   189   1 H        0.925     0.050     2.318     2.381
   190   1 H        0.925     0.049     2.334     2.389
   191   1 H        0.925     0.053     2.279     2.361
   192   1 H        0.925     0.049     2.337     2.391
   193   1 H        0.926     0.057     2.229     2.334
   194   1 H        0.926     0.064     2.149     2.293
   195   1 H        0.926     0.044     2.402     2.424
   196   1 H        0.926     0.041     2.430     2.438
   197   1 H        0.924     0.062     2.181     2.310
   198   1 H        0.924     0.071     2.073     2.251
   199   1 H        0.925     0.047     2.360     2.403
   200   1 H        0.925     0.054     2.266     2.354
   201   1 H        0.925     0.055     2.263     2.353
   202   1 H        0.926     0.046     2.377     2.411
   203   1 H        0.926     0.049     2.333     2.389
   204   1 H        0.924     0.067     2.114     2.274
   205   1 H        0.925     0.068     2.106     2.269
   206   1 H        0.925     0.058     2.227     2.334
   207   1 H        0.924     0.056     2.246     2.344
   208   1 H        0.925     0.056     2.246     2.344
   209   1 H        0.926     0.055     2.254     2.348
   210   1 H        0.926     0.064     2.148     2.292
   211   1 H        0.926     0.057     2.233     2.337
   212   1 H        0.926     0.049     2.336     2.390
   213   1 H        0.924     0.067     2.124     2.279
   214   1 H        0.925     0.066     2.129     2.282
   215   1 H        0.925     0.055     2.255     2.348
   216   1 H        0.924     0.056     2.246     2.344
   217   1 H        0.925     0.057     2.233     2.337
   218   1 H        0.926     0.057     2.231     2.336
   219   1 H        0.926     0.050     2.322     2.383
   220   1 H        0.924     0.067     2.124     2.279
   221   1 H        0.925     0.066     2.127     2.281
   222   1 H        0.925     0.057     2.229     2.335
   223   1 H        0.925     0.055     2.259     2.350
   224   1 H        0.924     0.057     2.239     2.340
   225   1 H        0.926     0.065     2.138     2.287
   226   1 H        0.926     0.059     2.215     2.327
   227   1 H        0.926     0.056     2.247     2.344
   228   1 H        0.926     0.065     2.143     2.289
   229   1 H        0.925     0.058     2.226     2.333
   230   1 H        0.925     0.063     2.159     2.298
   231   1 H        0.925     0.049     2.337     2.391
   232   1 H        0.925     0.042     2.423     2.434
   233   1 H        0.925     0.049     2.332     2.388
   234   1 H        0.926     0.065     2.145     2.291
   235   1 H        0.926     0.060     2.202     2.320
   236   1 H        0.926     0.066     2.134     2.284
   237   1 H        0.925     0.063     2.159     2.298
   238   1 H        0.925     0.058     2.223     2.332
   239   1 H        0.925     0.050     2.322     2.383
   240   1 H        0.925     0.049     2.338     2.391
   241   1 H        0.925     0.042     2.424     2.435
   242   1 H        0.926     0.065     2.144     2.290
   243   1 H        0.926     0.052     2.291     2.367
   244   1 H        0.926     0.062     2.180     2.309
   245   1 H        0.926     0.053     2.288     2.366
   246   1 H        0.926     0.050     2.324     2.384
   247   1 H        0.925     0.066     2.130     2.282
   248   1 H        0.924     0.066     2.134     2.284
   249   1 H        0.925     0.055     2.259     2.351
   250   1 H        0.925     0.055     2.257     2.349
   251   1 H        0.925     0.057     2.233     2.337
   252   1 H        0.926     0.050     2.314     2.379
   253   1 H        0.926     0.047     2.353     2.399
   254   1 H        0.925     0.059     2.205     2.322
   255   1 H        0.924     0.067     2.123     2.279
   256   1 H        0.925     0.044     2.390     2.418
   257   1 H        0.924     0.065     2.138     2.287
   258   1 H        0.924     0.058     2.225     2.333
   259   1 H        0.926     0.070     2.091     2.261
   260   1 H        0.926     0.053     2.281     2.362
   261   1 H        0.926     0.058     2.225     2.333
   262   1 H        0.926     0.065     2.139     2.287
   263   1 H        0.925     0.058     2.224     2.332
   264   1 H        0.925     0.064     2.154     2.295
   265   1 H        0.925     0.049     2.328     2.386
   266   1 H        0.925     0.041     2.432     2.439
   267   1 H        0.925     0.049     2.330     2.387
   268   1 H        0.926     0.065     2.136     2.285
   269   1 H        0.926     0.058     2.221     2.331
   270   1 H        0.926     0.059     2.209     2.324
   271   1 H        0.925     0.064     2.153     2.294
   272   1 H        0.925     0.052     2.296     2.369
   273   1 H        0.925     0.056     2.242     2.342
   274   1 H        0.925     0.047     2.354     2.399
   275   1 H        0.925     0.053     2.280     2.361
   276   1 H        0.926     0.073     2.052     2.240
   277   1 H        0.926     0.049     2.336     2.390
   278   1 H        0.926     0.057     2.239     2.340

 Mol. C6AA /au·bohr⁶  :    1697222.116603
 Mol. C8AA /au·bohr⁸  :   56955909.936342
 Mol. α(0) /au        :       2123.219292


Wiberg/Mayer (AO) data.
largest (>0.10) Wiberg bond orders for each atom

 ---------------------------------------------------------------------------
     #   Z sym  total        # sym  WBO       # sym  WBO       # sym  WBO
 ---------------------------------------------------------------------------
     1   6 C    3.926 --     2 C    1.677    25 S    1.141   177 H    0.968
     2   6 C    3.979 --     1 C    1.677     3 C    1.196   178 H    0.948
     3   6 C    3.969 --     4 C    1.282    24 C    1.266     2 C    1.196
     4   6 C    3.968 --    13 C    1.357     3 C    1.282     5 C    1.085
     5   6 C    3.955 --     6 C    1.560    12 Se   1.106     4 C    1.085
     6   6 C    3.978 --     5 C    1.560     7 C    1.268   179 H    0.957
     7   6 C    3.981 --     8 C    1.549     6 C    1.268   180 H    0.961
     8   6 C    3.922 --     7 C    1.549    12 Se   1.148     9 S    1.070
     9  16 S    2.286 --     8 C    1.070    10 C    0.975
    10   6 C    3.970 --    11 C    1.026     9 S    0.975   182 H    0.969
                           181 H    0.950
    11   6 C    3.991 --    10 C    1.026   184 H    0.984   183 H    0.977
                           185 H    0.969
    12  34 Se   2.735 --     8 C    1.148     5 C    1.106
    13   6 C    3.942 --     4 C    1.357    14 C    1.255    28 S    1.099
    14   6 C    3.982 --    15 C    1.268    13 C    1.255    26 C    1.229
    15   6 C    3.952 --    24 C    1.360    14 C    1.268    16 C    1.086
    16   6 C    3.960 --    17 C    1.538    23 Se   1.153    15 C    1.086
    17   6 C    3.978 --    16 C    1.538    18 C    1.276   186 H    0.958
                            23 Se   0.102
    18   6 C    3.985 --    19 C    1.571    17 C    1.276   187 H    0.960
                            23 Se   0.107
    19   6 C    3.925 --    18 C    1.571    23 Se   1.157    20 S    1.039
    20  16 S    2.166 --    19 C    1.039    21 C    0.955
    21   6 C    3.971 --    22 C    1.029   189 H    0.975   188 H    0.970
                            20 S    0.955
    22   6 C    3.994 --    21 C    1.029   191 H    0.985   192 H    0.977
                           190 H    0.976
    23  34 Se   2.750 --    19 C    1.157    16 C    1.153    18 C    0.107
                            17 C    0.102
    24   6 C    3.952 --    15 C    1.360     3 C    1.266    25 S    1.104
    25  16 S    2.549 --     1 C    1.141    24 C    1.104
    26   6 C    3.953 --    27 C    1.547    14 C    1.229   193 H    0.950
    27   6 C    3.937 --    26 C    1.547    29 C    1.156    28 S    1.083
    28  16 S    2.504 --    13 C    1.099    27 C    1.083
    29   6 C    3.925 --    30 C    1.548    27 C    1.156    53 S    1.056
    30   6 C    3.954 --    29 C    1.548    31 C    1.224   194 H    0.938
    31   6 C    3.968 --    52 C    1.260    32 C    1.259    30 C    1.224
    32   6 C    3.948 --    41 C    1.353    31 C    1.259    33 C    1.101
    33   6 C    3.955 --    34 C    1.535    40 Se   1.118    32 C    1.101
    34   6 C    3.963 --    33 C    1.535    35 C    1.288   195 H    0.957
    35   6 C    3.975 --    36 C    1.529    34 C    1.288   196 H    0.962
    36   6 C    3.918 --    35 C    1.529    40 Se   1.167    37 S    1.073
    37  16 S    2.276 --    36 C    1.073    38 C    0.972
    38   6 C    3.969 --    39 C    1.026    37 S    0.972   197 H    0.963
                           198 H    0.946
    39   6 C    3.991 --    38 C    1.026   201 H    0.985   200 H    0.984
                           199 H    0.979
    40  34 Se   2.900 --    36 C    1.167    33 C    1.118
    41   6 C    3.937 --    32 C    1.353    42 C    1.259    56 S    1.095
    42   6 C    3.969 --    41 C    1.259    43 C    1.250    54 C    1.235
    43   6 C    3.939 --    52 C    1.353    42 C    1.250    44 C    1.112
    44   6 C    3.953 --    45 C    1.524    43 C    1.112    51 Se   1.112
    45   6 C    3.974 --    44 C    1.524    46 C    1.286   202 H    0.958
    46   6 C    3.979 --    47 C    1.531    45 C    1.286   203 H    0.961
    47   6 C    3.916 --    46 C    1.531    51 Se   1.152    48 S    1.077
    48  16 S    2.287 --    47 C    1.077    49 C    0.972
    49   6 C    3.969 --    50 C    1.027    48 S    0.972   205 H    0.969
                           204 H    0.947
    50   6 C    3.991 --    49 C    1.027   208 H    0.984   206 H    0.975
                           207 H    0.970
    51  34 Se   2.791 --    47 C    1.152    44 C    1.112
    52   6 C    3.941 --    43 C    1.353    31 C    1.260    53 S    1.097
    53  16 S    2.545 --    52 C    1.097    29 C    1.056
    54   6 C    3.953 --    55 C    1.541    42 C    1.235   209 H    0.954
    55   6 C    3.930 --    54 C    1.541    57 C    1.151    56 S    1.085
    56  16 S    2.493 --    41 C    1.095    55 C    1.085
    57   6 C    3.924 --    58 C    1.535    55 C    1.151    81 S    1.078
    58   6 C    3.957 --    57 C    1.535    59 C    1.231   210 H    0.934
    59   6 C    3.965 --    80 C    1.273    58 C    1.231    60 C    1.231
    60   6 C    3.930 --    69 C    1.332    59 C    1.231    61 C    1.147
    61   6 C    3.952 --    62 C    1.503    60 C    1.147    68 Se   1.104
    62   6 C    3.948 --    61 C    1.503    63 C    1.298   211 H    0.945
    63   6 C    3.978 --    64 C    1.521    62 C    1.298   212 H    0.961
    64   6 C    3.909 --    63 C    1.521    68 Se   1.157    65 S    1.082
    65  16 S    2.287 --    64 C    1.082    66 C    0.973
    66   6 C    3.970 --    67 C    1.027    65 S    0.973   214 H    0.969
                           213 H    0.949
    67   6 C    3.991 --    66 C    1.027   217 H    0.984   215 H    0.976
                           216 H    0.970
    68  34 Se   2.758 --    64 C    1.157    61 C    1.104
    69   6 C    3.934 --    60 C    1.332    70 C    1.271    84 S    1.088
    70   6 C    3.967 --    69 C    1.271    82 C    1.236    71 C    1.232
    71   6 C    3.929 --    80 C    1.329    70 C    1.232    72 C    1.143
    72   6 C    3.952 --    73 C    1.510    71 C    1.143    79 Se   1.101
    73   6 C    3.949 --    72 C    1.510    74 C    1.295   218 H    0.946
    74   6 C    3.977 --    75 C    1.524    73 C    1.295   219 H    0.961
    75   6 C    3.909 --    74 C    1.524    79 Se   1.156    76 S    1.081
    76  16 S    2.287 --    75 C    1.081    77 C    0.974
    77   6 C    3.970 --    78 C    1.027    76 S    0.974   221 H    0.969
                           220 H    0.949
    78   6 C    3.991 --    77 C    1.027   222 H    0.984   223 H    0.977
                           224 H    0.970
    79  34 Se   2.742 --    75 C    1.156    72 C    1.101
    80   6 C    3.936 --    71 C    1.329    59 C    1.273    81 S    1.096
    81  16 S    2.501 --    80 C    1.096    57 C    1.078
    82   6 C    3.955 --    83 C    1.525    70 C    1.236   225 H    0.937
    83   6 C    3.919 --    82 C    1.525    85 C    1.162    84 S    1.064
    84  16 S    2.477 --    69 C    1.088    83 C    1.064
    85   6 C    3.927 --    86 C    1.542    83 C    1.162   113 S    1.064
    86   6 C    3.952 --    85 C    1.542    87 C    1.225   226 H    0.954
    87   6 C    3.971 --    88 C    1.288   112 C    1.240    86 C    1.225
    88   6 C    3.957 --    99 C    1.386    87 C    1.288    89 C    1.035
    89   6 C    3.985 --    98 C    1.387    90 C    1.375    88 C    1.035
    90   6 C    3.986 --    91 C    1.465    89 C    1.375   227 H    0.965
    91   6 C    3.987 --    90 C    1.465    92 C    1.376   228 H    0.966
                            98 C    0.102
    92   6 C    3.965 --    91 C    1.376    96 C    1.351    93 S    1.048
    93  16 S    2.224 --    92 C    1.048    94 C    0.972
    94   6 C    3.968 --    95 C    1.028   230 H    0.972    93 S    0.972
                           229 H    0.968
    95   6 C    3.993 --    94 C    1.028   233 H    0.986   232 H    0.985
                           231 H    0.978
    96   6 C    3.876 --    98 C    1.411    92 C    1.351    97 F    0.943
    97   9 F    1.075 --    96 C    0.943
    98   6 C    3.982 --    96 C    1.411    89 C    1.387   234 H    0.963
                            91 C    0.102
    99   6 C    3.944 --    88 C    1.386   100 C    1.255   116 S    1.087
   100   6 C    3.966 --   101 C    1.274    99 C    1.255   114 C    1.219
   101   6 C    3.969 --   112 C    1.397   100 C    1.274   102 C    1.046
   102   6 C    3.985 --   110 C    1.380   103 C    1.374   101 C    1.046
   103   6 C    3.984 --   104 C    1.466   102 C    1.374   235 H    0.962
   104   6 C    3.987 --   103 C    1.466   105 C    1.376   236 H    0.965
                           110 C    0.101
   105   6 C    3.964 --   104 C    1.376   109 C    1.348   106 S    1.050
   106  16 S    2.227 --   105 C    1.050   107 C    0.972
   107   6 C    3.968 --   108 C    1.028   237 H    0.972   106 S    0.972
                           238 H    0.968
   108   6 C    3.993 --   107 C    1.028   239 H    0.986   241 H    0.985
                           240 H    0.978
   109   6 C    3.875 --   110 C    1.416   105 C    1.348   111 F    0.942
   110   6 C    3.984 --   109 C    1.416   102 C    1.380   242 H    0.963
                           104 C    0.101
   111   9 F    1.072 --   109 C    0.942
   112   6 C    3.943 --   101 C    1.397    87 C    1.240   113 S    1.087
   113  16 S    2.470 --   112 C    1.087    85 C    1.064
   114   6 C    3.965 --   115 C    1.573   100 C    1.219   243 H    0.957
   115   6 C    3.925 --   114 C    1.573   117 C    1.129   116 S    1.068
   116  16 S    2.469 --    99 C    1.087   115 C    1.068
   117   6 C    3.925 --   118 C    1.569   115 C    1.129   141 S    1.071
   118   6 C    3.961 --   117 C    1.569   119 C    1.219   244 H    0.942
   119   6 C    3.968 --   140 C    1.264   120 C    1.259   118 C    1.219
   120   6 C    3.940 --   129 C    1.351   119 C    1.259   121 C    1.109
   121   6 C    3.954 --   122 C    1.538   120 C    1.109   128 Se   1.106
   122   6 C    3.961 --   121 C    1.538   123 C    1.279   245 H    0.952
   123   6 C    3.980 --   124 C    1.540   122 C    1.279   246 H    0.961
   124   6 C    3.919 --   123 C    1.540   128 Se   1.151   125 S    1.076
   125  16 S    2.282 --   124 C    1.076   126 C    0.973
   126   6 C    3.970 --   127 C    1.027   125 S    0.973   247 H    0.969
                           248 H    0.950
   127   6 C    3.992 --   126 C    1.027   251 H    0.984   249 H    0.977
                           250 H    0.971
   128  34 Se   2.731 --   124 C    1.151   121 C    1.106
   129   6 C    3.941 --   120 C    1.351   130 C    1.258   144 S    1.097
   130   6 C    3.971 --   129 C    1.258   131 C    1.257   142 C    1.234
   131   6 C    3.937 --   140 C    1.346   130 C    1.257   132 C    1.112
   132   6 C    3.951 --   133 C    1.528   131 C    1.112   139 Se   1.105
   133   6 C    3.958 --   132 C    1.528   134 C    1.285   252 H    0.953
   134   6 C    3.978 --   135 C    1.533   133 C    1.285   253 H    0.961
   135   6 C    3.917 --   134 C    1.533   139 Se   1.151   136 S    1.079
   136  16 S    2.292 --   135 C    1.079   137 C    0.975
   137   6 C    3.969 --   138 C    1.027   136 S    0.975   254 H    0.966
                           255 H    0.949
   138   6 C    3.990 --   137 C    1.027   256 H    0.983   258 H    0.968
                           257 H    0.959
   139  34 Se   2.749 --   135 C    1.151   132 C    1.105
   140   6 C    3.941 --   131 C    1.346   119 C    1.264   141 S    1.100
   141  16 S    2.502 --   140 C    1.100   117 C    1.071
   142   6 C    3.958 --   143 C    1.542   130 C    1.234   259 H    0.925
   143   6 C    3.928 --   142 C    1.542   145 C    1.152   144 S    1.083
   144  16 S    2.499 --   129 C    1.097   143 C    1.083
   145   6 C    3.938 --   146 C    1.559   143 C    1.152   173 S    1.076
   146   6 C    3.954 --   145 C    1.559   147 C    1.218   260 H    0.956
   147   6 C    3.981 --   148 C    1.295   172 C    1.250   146 C    1.218
   148   6 C    3.962 --   159 C    1.377   147 C    1.295   149 C    1.044
   149   6 C    3.985 --   158 C    1.382   150 C    1.373   148 C    1.044
   150   6 C    3.984 --   151 C    1.467   149 C    1.373   261 H    0.965
   151   6 C    3.987 --   150 C    1.467   152 C    1.374   262 H    0.965
                           158 C    0.101
   152   6 C    3.963 --   151 C    1.374   156 C    1.348   153 S    1.052
   153  16 S    2.232 --   152 C    1.052   154 C    0.972
   154   6 C    3.968 --   155 C    1.028   264 H    0.972   153 S    0.972
                           263 H    0.968
   155   6 C    3.993 --   154 C    1.028   267 H    0.986   266 H    0.985
                           265 H    0.978
   156   6 C    3.875 --   158 C    1.414   152 C    1.348   157 F    0.942
   157   9 F    1.073 --   156 C    0.942
   158   6 C    3.983 --   156 C    1.414   149 C    1.382   268 H    0.963
                           151 C    0.101
   159   6 C    3.952 --   148 C    1.377   160 C    1.262   176 S    1.100
   160   6 C    3.970 --   161 C    1.295   159 C    1.262   174 C    1.194
   161   6 C    3.979 --   172 C    1.378   160 C    1.295   162 C    1.050
   162   6 C    3.985 --   163 C    1.379   170 C    1.367   161 C    1.050
   163   6 C    3.986 --   164 C    1.456   162 C    1.379   269 H    0.965
   164   6 C    3.985 --   163 C    1.456   165 C    1.379   270 H    0.960
   165   6 C    3.960 --   164 C    1.379   169 C    1.333   166 S    1.057
   166  16 S    2.299 --   165 C    1.057   167 C    0.974
   167   6 C    3.968 --   168 C    1.026   166 S    0.974   271 H    0.962
                           272 H    0.959
   168   6 C    3.991 --   167 C    1.026   275 H    0.984   274 H    0.983
                           273 H    0.975
   169   6 C    3.869 --   170 C    1.431   165 C    1.333   171 F    0.934
   170   6 C    3.981 --   169 C    1.431   162 C    1.367   276 H    0.958
   171   9 F    1.141 --   169 C    0.934
   172   6 C    3.944 --   161 C    1.378   147 C    1.250   173 S    1.098
   173  16 S    2.495 --   172 C    1.098   145 C    1.076
   174   6 C    3.981 --   175 C    1.679   160 C    1.194   277 H    0.959
                           176 S    0.101
   175   6 C    3.931 --   174 C    1.679   176 S    1.152   278 H    0.968
   176  16 S    2.536 --   175 C    1.152   159 C    1.100   174 C    0.101
   177   1 H    0.996 --     1 C    0.968
   178   1 H    0.996 --     2 C    0.948
   179   1 H    0.997 --     6 C    0.957
   180   1 H    0.997 --     7 C    0.961
   181   1 H    0.996 --    10 C    0.950
   182   1 H    0.995 --    10 C    0.969
   183   1 H    0.997 --    11 C    0.977
   184   1 H    0.997 --    11 C    0.984
   185   1 H    0.997 --    11 C    0.969
   186   1 H    0.997 --    17 C    0.958
   187   1 H    0.996 --    18 C    0.960
   188   1 H    0.996 --    21 C    0.970
   189   1 H    0.997 --    21 C    0.975
   190   1 H    0.998 --    22 C    0.976
   191   1 H    0.997 --    22 C    0.985
   192   1 H    0.997 --    22 C    0.977
   193   1 H    0.996 --    26 C    0.950
   194   1 H    0.994 --    30 C    0.938
   195   1 H    0.998 --    34 C    0.957
   196   1 H    0.998 --    35 C    0.962
   197   1 H    0.996 --    38 C    0.963
   198   1 H    0.995 --    38 C    0.946
   199   1 H    0.997 --    39 C    0.979
   200   1 H    0.997 --    39 C    0.984
   201   1 H    0.997 --    39 C    0.985
   202   1 H    0.997 --    45 C    0.958
   203   1 H    0.997 --    46 C    0.961
   204   1 H    0.995 --    49 C    0.947
   205   1 H    0.995 --    49 C    0.969
   206   1 H    0.996 --    50 C    0.975
   207   1 H    0.997 --    50 C    0.970
   208   1 H    0.997 --    50 C    0.984
   209   1 H    0.996 --    54 C    0.954
   210   1 H    0.995 --    58 C    0.934
   211   1 H    0.996 --    62 C    0.945
   212   1 H    0.997 --    63 C    0.961
   213   1 H    0.995 --    66 C    0.949
   214   1 H    0.995 --    66 C    0.969
   215   1 H    0.996 --    67 C    0.976
   216   1 H    0.997 --    67 C    0.970
   217   1 H    0.997 --    67 C    0.984
   218   1 H    0.996 --    73 C    0.946
   219   1 H    0.997 --    74 C    0.961
   220   1 H    0.995 --    77 C    0.949
   221   1 H    0.995 --    77 C    0.969
   222   1 H    0.997 --    78 C    0.984
   223   1 H    0.996 --    78 C    0.977
   224   1 H    0.997 --    78 C    0.970
   225   1 H    0.995 --    82 C    0.937
   226   1 H    0.996 --    86 C    0.954
   227   1 H    0.997 --    90 C    0.965
   228   1 H    0.995 --    91 C    0.966
   229   1 H    0.996 --    94 C    0.968
   230   1 H    0.996 --    94 C    0.972
   231   1 H    0.997 --    95 C    0.978
   232   1 H    0.998 --    95 C    0.985
   233   1 H    0.998 --    95 C    0.986
   234   1 H    0.996 --    98 C    0.963
   235   1 H    0.996 --   103 C    0.962
   236   1 H    0.995 --   104 C    0.965
   237   1 H    0.996 --   107 C    0.972
   238   1 H    0.996 --   107 C    0.968
   239   1 H    0.998 --   108 C    0.986
   240   1 H    0.997 --   108 C    0.978
   241   1 H    0.998 --   108 C    0.985
   242   1 H    0.996 --   110 C    0.963
   243   1 H    0.997 --   114 C    0.957
   244   1 H    0.995 --   118 C    0.942
   245   1 H    0.997 --   122 C    0.952
   246   1 H    0.997 --   123 C    0.961
   247   1 H    0.995 --   126 C    0.969
   248   1 H    0.996 --   126 C    0.950
   249   1 H    0.996 --   127 C    0.977
   250   1 H    0.997 --   127 C    0.971
   251   1 H    0.997 --   127 C    0.984
   252   1 H    0.997 --   133 C    0.953
   253   1 H    0.997 --   134 C    0.961
   254   1 H    0.996 --   137 C    0.966
   255   1 H    0.995 --   137 C    0.949
   256   1 H    0.998 --   138 C    0.983
   257   1 H    0.995 --   138 C    0.959
   258   1 H    0.996 --   138 C    0.968
   259   1 H    0.994 --   142 C    0.925
   260   1 H    0.997 --   146 C    0.956
   261   1 H    0.996 --   150 C    0.965
   262   1 H    0.995 --   151 C    0.965
   263   1 H    0.996 --   154 C    0.968
   264   1 H    0.996 --   154 C    0.972
   265   1 H    0.997 --   155 C    0.978
   266   1 H    0.998 --   155 C    0.985
   267   1 H    0.998 --   155 C    0.986
   268   1 H    0.996 --   158 C    0.963
   269   1 H    0.997 --   163 C    0.965
   270   1 H    0.996 --   164 C    0.960
   271   1 H    0.996 --   167 C    0.962
   272   1 H    0.997 --   167 C    0.959
   273   1 H    0.996 --   168 C    0.975
   274   1 H    0.998 --   168 C    0.983
   275   1 H    0.997 --   168 C    0.984
   276   1 H    0.994 --   170 C    0.958
   277   1 H    0.997 --   174 C    0.959
   278   1 H    0.996 --   175 C    0.968
 ---------------------------------------------------------------------------

Topologies differ in bond orders
Writing corrected topology to xtbtopo.mol

molecular dipole:
                 x           y           z       tot (Debye)
 q only:       -0.101      -0.153       4.163
   full:       -0.501      -0.237       3.571       9.185
molecular quadrupole (traceless):
                xx          xy          yy          xz          yz          zz
 q only:      -30.253      42.098     -72.228      72.886       5.572     102.482
  q+dip:        6.312      34.223     -98.662      83.236     -21.923      92.349
   full:        8.304      37.178    -103.438      82.012     -23.535      95.134


           -------------------------------------------------
          | TOTAL ENERGY             -474.315375539075 Eh   |
          | GRADIENT NORM               0.013499887963 Eh/α |
          | HOMO-LUMO GAP               1.116239859192 eV   |
           -------------------------------------------------

------------------------------------------------------------------------
 * finished run on 2022/03/07 at 22:42:15.483     
------------------------------------------------------------------------
 total:
 * wall-time:     0 d,  0 h,  0 min,  1.881 sec
 *  cpu-time:     0 d,  0 h,  0 min, 14.906 sec
 * ratio c/w:     7.926 speedup
 SCF:
 * wall-time:     0 d,  0 h,  0 min,  1.705 sec
 *  cpu-time:     0 d,  0 h,  0 min, 13.610 sec
 * ratio c/w:     7.983 speedup

