      -----------------------------------------------------------      
     |                   =====================                   |     
     |                           x T B                           |     
     |                   =====================                   |     
     |                         S. Grimme                         |     
     |          Mulliken Center for Theoretical Chemistry        |     
     |                    University of Bonn                     |     
      -----------------------------------------------------------      

   * xtb version 6.4.1 (unknown) compiled by 'oda6@login1.crc.pitt.edu' on 2021-06-25

   xtb is free software: you can redistribute it and/or modify it under
   the terms of the GNU Lesser General Public License as published by
   the Free Software Foundation, either version 3 of the License, or
   (at your option) any later version.
   
   xtb is distributed in the hope that it will be useful,
   but WITHOUT ANY WARRANTY; without even the implied warranty of
   MERCHANTABILITY or FITNESS FOR A PARTICULAR PURPOSE.  See the
   GNU Lesser General Public License for more details.
   
   Cite this work as:
   * C. Bannwarth, E. Caldeweyher, S. Ehlert, A. Hansen, P. Pracht,
     J. Seibert, S. Spicher, S. Grimme, WIREs Comput. Mol. Sci., 2020, 11,
     e01493. DOI: 10.1002/wcms.1493
   
   for GFN2-xTB:
   * C. Bannwarth, S. Ehlert and S. Grimme., J. Chem. Theory Comput., 2019,
     15, 1652-1671. DOI: 10.1021/acs.jctc.8b01176
   for GFN1-xTB:
   * S. Grimme, C. Bannwarth, P. Shushkov, J. Chem. Theory Comput., 2017,
     13, 1989-2009. DOI: 10.1021/acs.jctc.7b00118
   for GFN0-xTB:
   * P. Pracht, E. Caldeweyher, S. Ehlert, S. Grimme, ChemRxiv, 2019, preprint.
     DOI: 10.26434/chemrxiv.8326202.v1
   for GFN-FF:
   * S. Spicher and S. Grimme, Angew. Chem. Int. Ed., 2020, 59, 15665-15673.
     DOI: 10.1002/anie.202004239
   
   for DFT-D4:
   * E. Caldeweyher, C. Bannwarth and S. Grimme, J. Chem. Phys., 2017,
     147, 034112. DOI: 10.1063/1.4993215
   * E. Caldeweyher, S. Ehlert, A. Hansen, H. Neugebauer, S. Spicher,
     C. Bannwarth and S. Grimme, J. Chem. Phys., 2019, 150, 154122.
     DOI: 10.1063/1.5090222
   * E. Caldeweyher, J.-M. Mewes, S. Ehlert and S. Grimme, Phys. Chem. Chem. Phys.
     2020, 22, 8499-8512. DOI: 10.1039/D0CP00502A
   
   for sTDA-xTB:
   * S. Grimme and C. Bannwarth, J. Chem. Phys., 2016, 145, 054103.
     DOI: 10.1063/1.4959605
   
   in the mass-spec context:
   * V. Asgeirsson, C. Bauer and S. Grimme, Chem. Sci., 2017, 8, 4879.
     DOI: 10.1039/c7sc00601b
   * J. Koopman and S. Grimme, ACS Omega 2019, 4, 12, 15120-15133.
     DOI: 10.1021/acsomega.9b02011
   
   for metadynamics refer to:
   * S. Grimme, J. Chem. Theory Comput., 2019, 155, 2847-2862
     DOI: 10.1021/acs.jctc.9b00143
   
   for SPH calculations refer to:
   * S. Spicher and S. Grimme, J. Chem. Theory Comput., 2021, 17, 1701-1714
     DOI: 10.1021/acs.jctc.0c01306
   
   with help from (in alphabetical order)
   P. Atkinson, C. Bannwarth, F. Bohle, G. Brandenburg, E. Caldeweyher
   M. Checinski, S. Dohm, S. Ehlert, S. Ehrlich, I. Gerasimov, J. Koopman
   C. Lavigne, S. Lehtola, F. März, M. Müller, F. Musil, H. Neugebauer
   J. Pisarek, C. Plett, P. Pracht, J. Seibert, P. Shushkov, S. Spicher
   M. Stahn, M. Steiner, T. Strunk, J. Stückrath, T. Rose, and J. Unsleber
   
 * started run on 2022/03/08 at 04:06:56.674     

           -------------------------------------------------
          |                Calculation Setup                |
           -------------------------------------------------

          program call               : /ihome/ghutchison/oda6/xtb/xtb-641/bin/xtb ../../GFN2_output/100_392_101100.mol --sp --alpb hexane
          hostname                   : smp-n44
          coordinate file            : ../../GFN2_output/100_392_101100.mol
          omp threads                :                     8
          number of atoms            :                   194
          number of electrons        :                   620
          charge                     :                     0
          spin                       :                   0.0
          first test random number   :      0.75891757873259

   ID    Z sym.   atoms
    1    6 C      1, 3-7, 9-22, 24, 25, 27-33, 35, 36, 38, 40, 41, 43, 45-49,
                  51-57, 59-63, 65-78, 80, 81, 83-89, 91, 92, 94, 96, 97,
                  99-106, 108, 109, 111-117, 119, 120, 122, 124, 125
    2   16 S      2, 8, 23, 34, 39, 42, 44, 50, 58, 64, 79, 90, 95, 98, 107,
                  118, 123, 126
    3   34 Se     26, 37, 82, 93, 110, 121
    4    1 H      127-194

           -------------------------------------------------
          |                 G F N 2 - x T B                 |
           -------------------------------------------------

        Reference                      10.1021/acs.jctc.8b01176
      * Hamiltonian:
        H0-scaling (s, p, d)           1.850000    2.230000    2.230000
        zeta-weighting                 0.500000
      * Dispersion:
        s8                             2.700000
        a1                             0.520000
        a2                             5.000000
        s9                             5.000000
      * Repulsion:
        kExp                           1.500000    1.000000
        rExp                           1.000000
      * Coulomb:
        alpha                          2.000000
        third order                    shell-resolved
        anisotropic                    true
        a3                             3.000000
        a5                             4.000000
        cn-shift                       1.200000
        cn-exp                         4.000000
        max-rad                        5.000000

      * Solvation model:               ALPB
        Solvent                        hexane
        Parameter file                 internal GFN2-xTB/ALPB
        Dielectric constant                1.8800E+00
        Reference state                gsolv [1 M gas/solution]
        Free energy shift                  4.8134E-03 Eh       3.0204E+00 kcal/mol
        Temperature                        2.9815E+02 K
        Density                            6.6000E-01 kg/L
        Solvent mass                       8.6180E+01 g/mol
        Interaction kernel             P16
        Born radius scaling (c1)           1.1040E+00
        Born radii integrator          GBOBC
        Born offset                        0.0000E+00 a0       0.0000E+00 AA
        H-bond correction              false
        Ion screening                  false
        Surface tension                    1.0000E-05 Eh       1.5569E+01 dyn/cm
        Grid points                               230 per atom

          ...................................................
          :                      SETUP                      :
          :.................................................:
          :  # basis functions                 716          :
          :  # atomic orbitals                 692          :
          :  # shells                          344          :
          :  # electrons                       620          :
          :  max. iterations                   250          :
          :  Hamiltonian                  GFN2-xTB          :
          :  restarted?                      false          :
          :  GBSA solvation                   true          :
          :  PC potential                    false          :
          :  electronic temp.          300.0000000     K    :
          :  accuracy                    1.0000000          :
          :  -> integral cutoff          0.2500000E+02      :
          :  -> integral neglect         0.1000000E-07      :
          :  -> SCF convergence          0.1000000E-05 Eh   :
          :  -> wf. convergence          0.1000000E-03 e    :
          :  Broyden damping             0.4000000          :
          ...................................................

 iter      E             dE          RMSdq      gap      omega  full diag
   1   -335.3891421 -0.335389E+03  0.469E+00    1.46       0.0  T
   2   -335.5847508 -0.195609E+00  0.255E+00    1.44       1.0  T
   3   -335.4704382  0.114313E+00  0.115E+00    1.38       1.0  T
   4   -335.6173661 -0.146928E+00  0.532E-01    1.35       1.0  T
   5   -335.6304466 -0.130805E-01  0.240E-01    1.37       1.0  T
   6   -335.6312337 -0.787095E-03  0.114E-01    1.38       1.0  T
   7   -335.6324128 -0.117913E-02  0.491E-02    1.38       1.0  T
   8   -335.6324852 -0.723183E-04  0.302E-02    1.38       1.0  T
   9   -335.6324889 -0.371844E-05  0.166E-02    1.38       1.0  T
  10   -335.6325051 -0.161869E-04  0.854E-03    1.38       1.0  T
  11   -335.6325071 -0.204855E-05  0.487E-03    1.38       1.5  T
  12   -335.6325080 -0.933233E-06  0.257E-03    1.38       2.8  T
  13   -335.6325083 -0.239389E-06  0.133E-03    1.38       5.4  T
  14   -335.6325083 -0.458780E-07  0.699E-04    1.38      10.3  T
  15   -335.6325083 -0.206437E-07  0.361E-04    1.38      19.9  T

   *** convergence criteria satisfied after 15 iterations ***

         #    Occupation            Energy/Eh            Energy/eV
      -------------------------------------------------------------
         1        2.0000           -0.7645677             -20.8049
       ...           ...                  ...                  ...
       304        2.0000           -0.3684035             -10.0248
       305        2.0000           -0.3666020              -9.9757
       306        2.0000           -0.3656941              -9.9510
       307        2.0000           -0.3626287              -9.8676
       308        2.0000           -0.3567417              -9.7074
       309        2.0000           -0.3557469              -9.6804
       310        2.0000           -0.3530543              -9.6071 (HOMO)
       311                         -0.3022896              -8.2257 (LUMO)
       312                         -0.3008325              -8.1861
       313                         -0.2885248              -7.8512
       314                         -0.2846790              -7.7465
       315                         -0.2736979              -7.4477
       ...                                ...                  ...
       692                          1.1243539              30.5952
      -------------------------------------------------------------
                  HL-Gap            0.0507646 Eh            1.3814 eV
             Fermi-level           -0.3277286 Eh           -8.9179 eV

 SCC (total)                   0 d,  0 h,  0 min,  0.829 sec
 SCC setup                      ...        0 min,  0.007 sec (  0.889%)
 Dispersion                     ...        0 min,  0.009 sec (  1.065%)
 classical contributions        ...        0 min,  0.000 sec (  0.041%)
 integral evaluation            ...        0 min,  0.043 sec (  5.182%)
 iterations                     ...        0 min,  0.632 sec ( 76.255%)
 molecular gradient             ...        0 min,  0.134 sec ( 16.125%)
 printout                       ...        0 min,  0.004 sec (  0.432%)

         :::::::::::::::::::::::::::::::::::::::::::::::::::::
         ::                     SUMMARY                     ::
         :::::::::::::::::::::::::::::::::::::::::::::::::::::
         :: total energy            -330.747866206050 Eh    ::
         :: total w/o Gsasa/hb      -330.629363207428 Eh    ::
         :: gradient norm              0.005914532888 Eh/a0 ::
         :: HOMO-LUMO gap              1.381375524162 eV    ::
         ::.................................................::
         :: SCC energy              -335.632508344522 Eh    ::
         :: -> isotropic ES            0.025057514221 Eh    ::
         :: -> anisotropic ES          0.003440983049 Eh    ::
         :: -> anisotropic XC          0.148544244936 Eh    ::
         :: -> dispersion             -0.404346745176 Eh    ::
         :: -> Gsolv                  -0.128480598147 Eh    ::
         ::    -> Gelec               -0.009977599525 Eh    ::
         ::    -> Gsasa               -0.123316354441 Eh    ::
         ::    -> Ghb                  0.000000000000 Eh    ::
         ::    -> Gshift               0.004813355820 Eh    ::
         :: repulsion energy           4.875412604950 Eh    ::
         :: add. restraining           0.000000000000 Eh    ::
         :: total charge              -0.000000000001 e     ::
         :::::::::::::::::::::::::::::::::::::::::::::::::::::

           -------------------------------------------------
          |                Property Printout                |
           -------------------------------------------------

    * Orbital Energies and Occupations

         #    Occupation            Energy/Eh            Energy/eV
      -------------------------------------------------------------
         1        2.0000           -0.7645677             -20.8049
       ...           ...                  ...                  ...
       298        2.0000           -0.3831128             -10.4250
       299        2.0000           -0.3807816             -10.3616
       300        2.0000           -0.3773937             -10.2694
       301        2.0000           -0.3751439             -10.2082
       302        2.0000           -0.3736310             -10.1670
       303        2.0000           -0.3724217             -10.1341
       304        2.0000           -0.3684035             -10.0248
       305        2.0000           -0.3666020              -9.9757
       306        2.0000           -0.3656941              -9.9510
       307        2.0000           -0.3626287              -9.8676
       308        2.0000           -0.3567417              -9.7074
       309        2.0000           -0.3557469              -9.6804
       310        2.0000           -0.3530543              -9.6071 (HOMO)
       311                         -0.3022896              -8.2257 (LUMO)
       312                         -0.3008325              -8.1861
       313                         -0.2885248              -7.8512
       314                         -0.2846790              -7.7465
       315                         -0.2736979              -7.4477
       316                         -0.2732380              -7.4352
       317                         -0.2709309              -7.3724
       318                         -0.2655068              -7.2248
       319                         -0.2618467              -7.1252
       320                         -0.2605436              -7.0898
       321                         -0.2585955              -7.0367
       ...                                ...                  ...
       692                          1.1243539              30.5952
      -------------------------------------------------------------
                  HL-Gap            0.0507646 Eh            1.3814 eV
             Fermi-level           -0.3277286 Eh           -8.9179 eV

     #   Z          covCN         q      C6AA      α(0)
     1   6 C        2.939    -0.008    28.223     8.713
     2  16 S        2.267    -0.059   143.504    20.162
     3   6 C        3.005     0.026    27.411     8.588
     4   6 C        3.153    -0.005    27.859     8.632
     5   6 C        3.077    -0.044    29.016     8.831
     6   6 C        3.156    -0.003    27.793     8.620
     7   6 C        3.008     0.023    27.485     8.600
     8  16 S        2.268    -0.069   143.916    20.191
     9   6 C        2.938    -0.010    28.266     8.719
    10   6 C        3.077    -0.046    29.055     8.837
    11   6 C        2.987     0.006    27.879     8.661
    12   6 C        2.943    -0.050    29.246     8.870
    13   6 C        2.903    -0.033    28.810     8.801
    14   6 C        2.923    -0.035    28.876     8.812
    15   6 C        2.988     0.041    27.062     8.533
    16   6 C        3.076    -0.055    29.289     8.873
    17   6 C        3.145    -0.006    27.900     8.642
    18   6 C        3.017    -0.006    28.145     8.702
    19   6 C        2.975     0.009    27.822     8.652
    20   6 C        3.091    -0.042    28.923     8.815
    21   6 C        3.109    -0.053    29.161     8.847
    22   6 C        2.965     0.047    26.942     8.514
    23  16 S        2.076    -0.161   147.867    20.466
    24   6 C        3.793     0.003    20.531     6.453
    25   6 C        3.779    -0.105    22.532     6.763
    26  34 Se       2.437    -0.096   238.988    26.937
    27   6 C        3.009     0.026    27.396     8.586
    28   6 C        3.133    -0.003    27.888     8.645
    29   6 C        3.015    -0.003    28.068     8.690
    30   6 C        2.975     0.017    27.629     8.622
    31   6 C        3.086    -0.040    28.887     8.811
    32   6 C        3.093    -0.038    28.829     8.800
    33   6 C        2.968     0.051    26.843     8.498
    34  16 S        2.110    -0.191   149.172    20.556
    35   6 C        3.793     0.004    20.522     6.451
    36   6 C        3.782    -0.102    22.461     6.751
    37  34 Se       2.464    -0.051   237.454    26.851
    38   6 C        3.008     0.025    27.427     8.591
    39  16 S        2.349    -0.063   143.676    20.174
    40   6 C        3.065    -0.051    29.191     8.860
    41   6 C        3.018     0.032    27.258     8.564
    42  16 S        2.350    -0.081   144.437    20.227
    43   6 C        3.024     0.031    27.288     8.569
    44  16 S        2.288    -0.082   144.455    20.229
    45   6 C        3.003     0.033    27.245     8.562
    46   6 C        3.138    -0.002    27.841     8.636
    47   6 C        3.069    -0.050    29.177     8.857
    48   6 C        3.159    -0.004    27.808     8.621
    49   6 C        3.012     0.025    27.425     8.590
    50  16 S        2.277    -0.049   143.102    20.134
    51   6 C        2.939    -0.013    28.328     8.729
    52   6 C        3.080    -0.048    29.104     8.844
    53   6 C        2.989     0.011    27.767     8.644
    54   6 C        2.945    -0.046    29.137     8.853
    55   6 C        2.905    -0.028    28.704     8.785
    56   6 C        2.923    -0.035    28.880     8.813
    57   6 C        2.988     0.039    27.108     8.541
    58  16 S        2.297    -0.055   143.323    20.149
    59   6 C        3.004     0.032    27.271     8.566
    60   6 C        3.142    -0.003    27.851     8.635
    61   6 C        3.071    -0.052    29.212     8.862
    62   6 C        3.158    -0.006    27.854     8.629
    63   6 C        3.012     0.022    27.489     8.600
    64  16 S        2.271    -0.067   143.852    20.186
    65   6 C        2.939    -0.010    28.276     8.721
    66   6 C        3.078    -0.048    29.100     8.844
    67   6 C        2.998     0.007    27.841     8.655
    68   6 C        2.943    -0.044    29.100     8.847
    69   6 C        2.906    -0.028    28.704     8.785
    70   6 C        2.927    -0.034    28.855     8.809
    71   6 C        2.989     0.040    27.092     8.538
    72   6 C        3.076    -0.055    29.271     8.870
    73   6 C        3.142    -0.006    27.927     8.647
    74   6 C        3.014    -0.004    28.095     8.695
    75   6 C        2.973     0.009    27.822     8.652
    76   6 C        3.087    -0.042    28.937     8.818
    77   6 C        3.105    -0.056    29.237     8.860
    78   6 C        2.965     0.047    26.951     8.515
    79  16 S        2.089    -0.144   147.097    20.413
    80   6 C        3.794     0.006    20.486     6.445
    81   6 C        3.789    -0.108    22.578     6.767
    82  34 Se       2.498    -0.095   238.951    26.935
    83   6 C        3.010     0.024    27.450     8.594
    84   6 C        3.135    -0.007    27.967     8.656
    85   6 C        3.010    -0.005    28.126     8.700
    86   6 C        2.971     0.013    27.721     8.636
    87   6 C        3.096    -0.043    28.943     8.817
    88   6 C        3.114    -0.048    29.031     8.826
    89   6 C        2.965     0.051    26.846     8.499
    90  16 S        2.069    -0.185   148.919    20.539
    91   6 C        3.793     0.006    20.483     6.445
    92   6 C        3.775    -0.105    22.530     6.763
    93  34 Se       2.652    -0.135   240.307    27.011
    94   6 C        3.006     0.024    27.444     8.593
    95  16 S        2.561    -0.081   144.439    20.228
    96   6 C        3.076    -0.057    29.330     8.879
    97   6 C        3.013     0.029    27.325     8.575
    98  16 S        2.433    -0.068   143.890    20.189
    99   6 C        3.014     0.031    27.288     8.569
   100   6 C        3.071    -0.057    29.330     8.880
   101   6 C        3.139    -0.005    27.918     8.647
   102   6 C        3.016    -0.003    28.081     8.692
   103   6 C        2.975     0.011    27.773     8.644
   104   6 C        3.084    -0.041    28.915     8.815
   105   6 C        3.108    -0.054    29.196     8.853
   106   6 C        2.965     0.053    26.812     8.493
   107  16 S        2.081    -0.166   148.086    20.481
   108   6 C        3.793     0.011    20.406     6.433
   109   6 C        3.780    -0.101    22.445     6.749
   110  34 Se       2.472    -0.117   239.685    26.976
   111   6 C        3.011     0.024    27.460     8.596
   112   6 C        3.145    -0.005    27.896     8.642
   113   6 C        3.009    -0.004    28.112     8.697
   114   6 C        2.974     0.008    27.836     8.654
   115   6 C        3.089    -0.041    28.905     8.813
   116   6 C        3.112    -0.052    29.141     8.844
   117   6 C        2.964     0.046    26.961     8.517
   118  16 S        2.077    -0.162   147.884    20.467
   119   6 C        3.793     0.003    20.531     6.453
   120   6 C        3.779    -0.105    22.524     6.761
   121  34 Se       2.364    -0.089   238.746    26.924
   122   6 C        3.007     0.024    27.451     8.595
   123  16 S        2.301    -0.078   144.320    20.219
   124   6 C        3.079    -0.045    29.021     8.832
   125   6 C        2.933    -0.009    28.237     8.715
   126  16 S        2.358    -0.056   143.376    20.153
   127   1 H        0.926     0.057     2.229     2.335
   128   1 H        0.926     0.047     2.360     2.402
   129   1 H        0.926     0.050     2.324     2.384
   130   1 H        0.926     0.049     2.336     2.390
   131   1 H        0.926     0.048     2.351     2.398
   132   1 H        0.925     0.056     2.248     2.345
   133   1 H        0.926     0.055     2.261     2.351
   134   1 H        0.926     0.045     2.381     2.413
   135   1 H        0.926     0.043     2.409     2.427
   136   1 H        0.926     0.047     2.353     2.399
   137   1 H        0.925     0.067     2.119     2.277
   138   1 H        0.924     0.066     2.136     2.285
   139   1 H        0.925     0.057     2.234     2.337
   140   1 H        0.925     0.054     2.270     2.356
   141   1 H        0.925     0.057     2.232     2.336
   142   1 H        0.926     0.049     2.328     2.386
   143   1 H        0.926     0.052     2.300     2.372
   144   1 H        0.925     0.059     2.212     2.326
   145   1 H        0.925     0.054     2.274     2.358
   146   1 H        0.925     0.054     2.267     2.355
   147   1 H        0.925     0.048     2.340     2.392
   148   1 H        0.925     0.049     2.332     2.388
   149   1 H        0.926     0.057     2.231     2.336
   150   1 H        0.926     0.052     2.299     2.371
   151   1 H        0.926     0.052     2.293     2.368
   152   1 H        0.926     0.045     2.377     2.411
   153   1 H        0.926     0.047     2.357     2.401
   154   1 H        0.925     0.065     2.144     2.290
   155   1 H        0.925     0.047     2.351     2.398
   156   1 H        0.926     0.039     2.457     2.451
   157   1 H        0.926     0.054     2.276     2.359
   158   1 H        0.926     0.042     2.418     2.431
   159   1 H        0.926     0.051     2.302     2.373
   160   1 H        0.926     0.056     2.240     2.341
   161   1 H        0.926     0.058     2.226     2.333
   162   1 H        0.926     0.056     2.249     2.345
   163   1 H        0.926     0.052     2.299     2.371
   164   1 H        0.926     0.049     2.328     2.386
   165   1 H        0.924     0.065     2.147     2.291
   166   1 H        0.924     0.065     2.136     2.286
   167   1 H        0.925     0.057     2.238     2.340
   168   1 H        0.925     0.057     2.237     2.339
   169   1 H        0.925     0.057     2.229     2.335
   170   1 H        0.926     0.045     2.380     2.412
   171   1 H        0.926     0.047     2.358     2.401
   172   1 H        0.925     0.058     2.221     2.330
   173   1 H        0.925     0.063     2.166     2.301
   174   1 H        0.925     0.054     2.272     2.357
   175   1 H        0.924     0.066     2.126     2.280
   176   1 H        0.925     0.060     2.197     2.318
   177   1 H        0.926     0.049     2.329     2.387
   178   1 H        0.926     0.048     2.341     2.393
   179   1 H        0.926     0.043     2.412     2.429
   180   1 H        0.926     0.052     2.294     2.369
   181   1 H        0.924     0.068     2.104     2.268
   182   1 H        0.925     0.065     2.144     2.290
   183   1 H        0.925     0.055     2.258     2.350
   184   1 H        0.924     0.054     2.268     2.355
   185   1 H        0.925     0.054     2.266     2.354
   186   1 H        0.926     0.049     2.335     2.390
   187   1 H        0.926     0.048     2.348     2.396
   188   1 H        0.925     0.066     2.136     2.285
   189   1 H        0.924     0.066     2.135     2.285
   190   1 H        0.925     0.054     2.267     2.355
   191   1 H        0.924     0.055     2.257     2.349
   192   1 H        0.925     0.057     2.236     2.339
   193   1 H        0.926     0.059     2.212     2.326
   194   1 H        0.926     0.055     2.252     2.347

 Mol. C6AA /au·bohr⁶  :     891628.852055
 Mol. C8AA /au·bohr⁸  :   30447428.654636
 Mol. α(0) /au        :       1549.064619


Wiberg/Mayer (AO) data.
largest (>0.10) Wiberg bond orders for each atom

 ---------------------------------------------------------------------------
     #   Z sym  total        # sym  WBO       # sym  WBO       # sym  WBO
 ---------------------------------------------------------------------------
     1   6 C    3.935 --     5 C    1.664     2 S    1.159   127 H    0.968
     2  16 S    2.544 --     1 C    1.159     3 C    1.110
     3   6 C    3.955 --    12 C    1.344     4 C    1.312     2 S    1.110
     4   6 C    3.986 --     3 C    1.312     6 C    1.233     5 C    1.209
     5   6 C    3.987 --     1 C    1.664     4 C    1.209   128 H    0.957
     6   6 C    3.986 --     7 C    1.329     4 C    1.233    10 C    1.202
     7   6 C    3.951 --     6 C    1.329    11 C    1.283     8 S    1.112
     8  16 S    2.560 --     9 C    1.161     7 C    1.112
     9   6 C    3.942 --    10 C    1.668     8 S    1.161   129 H    0.969
    10   6 C    3.987 --     9 C    1.668     6 C    1.202   130 H    0.957
    11   6 C    3.988 --    12 C    1.448     7 C    1.283    13 C    1.051
    12   6 C    3.983 --    11 C    1.448     3 C    1.344   131 H    0.966
    13   6 C    3.961 --    14 C    1.799    11 C    1.051   132 H    0.956
    14   6 C    3.980 --    13 C    1.799    15 C    1.116   133 H    0.960
    15   6 C    3.927 --    16 C    1.576    14 C    1.116    39 S    1.078
    16   6 C    3.977 --    15 C    1.576    17 C    1.225   134 H    0.954
    17   6 C    3.971 --    18 C    1.261    38 C    1.260    16 C    1.225
    18   6 C    3.948 --    27 C    1.366    17 C    1.261    19 C    1.092
    19   6 C    3.956 --    20 C    1.550    26 Se   1.112    18 C    1.092
    20   6 C    3.970 --    19 C    1.550    21 C    1.272   135 H    0.959
    21   6 C    3.981 --    22 C    1.547    20 C    1.272   136 H    0.961
    22   6 C    3.922 --    21 C    1.547    26 Se   1.153    23 S    1.066
    23  16 S    2.274 --    22 C    1.066    24 C    0.973
    24   6 C    3.970 --    25 C    1.027    23 S    0.973   137 H    0.969
                           138 H    0.947
    25   6 C    3.992 --    24 C    1.027   139 H    0.984   140 H    0.977
                           141 H    0.971
    26  34 Se   2.783 --    22 C    1.153    19 C    1.112
    27   6 C    3.942 --    18 C    1.366    28 C    1.254    42 S    1.097
    28   6 C    3.975 --    29 C    1.266    27 C    1.254    40 C    1.228
    29   6 C    3.940 --    38 C    1.359    28 C    1.266    30 C    1.088
    30   6 C    3.959 --    31 C    1.543    37 Se   1.143    29 C    1.088
    31   6 C    3.968 --    30 C    1.543    32 C    1.271   142 H    0.958
    32   6 C    3.984 --    33 C    1.558    31 C    1.271   143 H    0.953
                            37 Se   0.105
    33   6 C    3.926 --    32 C    1.558    37 Se   1.163    34 S    1.041
    34  16 S    2.232 --    33 C    1.041    35 C    0.955
    35   6 C    3.968 --    36 C    1.028   145 H    0.972   144 H    0.970
                            34 S    0.955
    36   6 C    3.992 --    35 C    1.028   146 H    0.985   147 H    0.980
                           148 H    0.977
    37  34 Se   2.776 --    33 C    1.163    30 C    1.143    32 C    0.105
    38   6 C    3.951 --    29 C    1.359    17 C    1.260    39 S    1.102
    39  16 S    2.524 --    38 C    1.102    15 C    1.078
    40   6 C    3.951 --    41 C    1.551    28 C    1.228   149 H    0.952
    41   6 C    3.931 --    40 C    1.551    43 C    1.160    42 S    1.063
    42  16 S    2.504 --    27 C    1.097    41 C    1.063
    43   6 C    3.925 --    47 C    1.526    41 C    1.160    44 S    1.088
    44  16 S    2.497 --    45 C    1.098    43 C    1.088
    45   6 C    3.944 --    54 C    1.384    46 C    1.280    44 S    1.098
    46   6 C    3.973 --    45 C    1.280    47 C    1.252    48 C    1.221
    47   6 C    3.960 --    43 C    1.526    46 C    1.252   150 H    0.957
    48   6 C    3.975 --    49 C    1.336    46 C    1.221    52 C    1.207
    49   6 C    3.942 --    48 C    1.336    53 C    1.265    50 S    1.121
    50  16 S    2.569 --    51 C    1.159    49 C    1.121
    51   6 C    3.938 --    52 C    1.669    50 S    1.159   151 H    0.969
    52   6 C    3.985 --    51 C    1.669    48 C    1.207   152 H    0.962
    53   6 C    3.970 --    54 C    1.386    49 C    1.265    55 C    1.141
    54   6 C    3.962 --    53 C    1.386    45 C    1.384   153 H    0.962
    55   6 C    3.956 --    56 C    1.688    53 C    1.141   154 H    0.947
    56   6 C    3.966 --    55 C    1.688    57 C    1.176   155 H    0.951
    57   6 C    3.939 --    61 C    1.518    56 C    1.176    58 S    1.086
    58  16 S    2.524 --    59 C    1.103    57 C    1.086
    59   6 C    3.946 --    68 C    1.355    60 C    1.291    58 S    1.103
    60   6 C    3.985 --    59 C    1.291    61 C    1.244    62 C    1.224
    61   6 C    3.950 --    57 C    1.518    60 C    1.244   156 H    0.962
    62   6 C    3.973 --    63 C    1.329    60 C    1.224    66 C    1.206
    63   6 C    3.951 --    62 C    1.329    67 C    1.289    64 S    1.109
    64  16 S    2.560 --    65 C    1.158    63 C    1.109
    65   6 C    3.937 --    66 C    1.668    64 S    1.158   157 H    0.968
    66   6 C    3.986 --    65 C    1.668    62 C    1.206   158 H    0.962
    67   6 C    3.964 --    68 C    1.441    63 C    1.289    69 C    1.035
    68   6 C    3.986 --    67 C    1.441    59 C    1.355   159 H    0.965
    69   6 C    3.975 --    70 C    1.867    67 C    1.035   160 H    0.956
    70   6 C    3.979 --    69 C    1.867    71 C    1.058   161 H    0.952
    71   6 C    3.918 --    72 C    1.629    95 S    1.059    70 C    1.058
    72   6 C    3.975 --    71 C    1.629    73 C    1.200   162 H    0.955
    73   6 C    3.968 --    74 C    1.271    94 C    1.267    72 C    1.200
    74   6 C    3.957 --    83 C    1.347    73 C    1.271    75 C    1.099
    75   6 C    3.953 --    76 C    1.538    82 Se   1.110    74 C    1.099
    76   6 C    3.967 --    75 C    1.538    77 C    1.281   163 H    0.952
    77   6 C    3.976 --    78 C    1.530    76 C    1.281   164 H    0.961
    78   6 C    3.921 --    77 C    1.530    82 Se   1.156    79 S    1.082
    79  16 S    2.292 --    78 C    1.082    80 C    0.971
    80   6 C    3.970 --    81 C    1.026    79 S    0.971   166 H    0.958
                           165 H    0.956
    81   6 C    3.989 --    80 C    1.026   168 H    0.984   169 H    0.984
                           167 H    0.978
    82  34 Se   2.757 --    78 C    1.156    75 C    1.110
    83   6 C    3.937 --    74 C    1.347    84 C    1.266    98 S    1.098
    84   6 C    3.976 --    83 C    1.266    85 C    1.244    96 C    1.235
    85   6 C    3.939 --    94 C    1.345    84 C    1.244    86 C    1.126
    86   6 C    3.954 --    87 C    1.502    93 Se   1.131    85 C    1.126
    87   6 C    3.972 --    86 C    1.502    88 C    1.297   170 H    0.956
    88   6 C    3.981 --    89 C    1.527    87 C    1.297   171 H    0.962
    89   6 C    3.909 --    88 C    1.527    93 Se   1.161    90 S    1.062
    90  16 S    2.241 --    89 C    1.062    91 C    0.963
    91   6 C    3.967 --    92 C    1.028   173 H    0.969   172 H    0.966
                            90 S    0.963
    92   6 C    3.986 --    91 C    1.028   176 H    0.981   174 H    0.976
                           175 H    0.952
    93  34 Se   2.915 --    89 C    1.161    86 C    1.131
    94   6 C    3.946 --    85 C    1.345    73 C    1.267    95 S    1.102
    95  16 S    2.563 --    94 C    1.102    71 C    1.059
    96   6 C    3.954 --    97 C    1.537    84 C    1.235   177 H    0.954
    97   6 C    3.932 --    96 C    1.537    99 C    1.151    98 S    1.080
    98  16 S    2.533 --    83 C    1.098    97 C    1.080
    99   6 C    3.936 --   100 C    1.542    97 C    1.151   123 S    1.092
   100   6 C    3.958 --    99 C    1.542   101 C    1.230   178 H    0.957
   101   6 C    3.979 --   102 C    1.263   122 C    1.257   100 C    1.230
   102   6 C    3.949 --   111 C    1.352   101 C    1.263   103 C    1.096
   103   6 C    3.955 --   104 C    1.531   110 Se   1.126   102 C    1.096
   104   6 C    3.965 --   103 C    1.531   105 C    1.281   179 H    0.959
                           110 Se   0.103
   105   6 C    3.975 --   106 C    1.531   104 C    1.281   180 H    0.956
   106   6 C    3.919 --   105 C    1.531   110 Se   1.167   107 S    1.066
   107  16 S    2.285 --   106 C    1.066   108 C    0.972
   108   6 C    3.967 --   109 C    1.027   107 S    0.972   182 H    0.966
                           181 H    0.943
   109   6 C    3.992 --   108 C    1.027   183 H    0.984   185 H    0.977
                           184 H    0.972
   110  34 Se   2.876 --   106 C    1.167   103 C    1.126   104 C    0.103
   111   6 C    3.949 --   102 C    1.352   112 C    1.274   126 S    1.097
   112   6 C    3.970 --   113 C    1.275   111 C    1.274   124 C    1.196
   113   6 C    3.955 --   122 C    1.351   112 C    1.275   114 C    1.097
   114   6 C    3.955 --   115 C    1.548   121 Se   1.107   113 C    1.097
   115   6 C    3.976 --   114 C    1.548   116 C    1.274   186 H    0.955
   116   6 C    3.981 --   117 C    1.548   115 C    1.274   187 H    0.961
   117   6 C    3.921 --   116 C    1.548   121 Se   1.146   118 S    1.073
   118  16 S    2.281 --   117 C    1.073   119 C    0.974
   119   6 C    3.971 --   120 C    1.027   118 S    0.974   188 H    0.969
                           189 H    0.950
   120   6 C    3.992 --   119 C    1.027   192 H    0.984   190 H    0.977
                           191 H    0.971
   121  34 Se   2.726 --   117 C    1.146   114 C    1.107
   122   6 C    3.942 --   113 C    1.351   101 C    1.257   123 S    1.101
   123  16 S    2.511 --   122 C    1.101    99 C    1.092
   124   6 C    3.978 --   125 C    1.676   112 C    1.196   193 H    0.940
   125   6 C    3.925 --   124 C    1.676   126 S    1.137   194 H    0.968
   126  16 S    2.563 --   125 C    1.137   111 C    1.097
   127   1 H    0.996 --     1 C    0.968
   128   1 H    0.997 --     5 C    0.957
   129   1 H    0.997 --     9 C    0.969
   130   1 H    0.997 --    10 C    0.957
   131   1 H    0.997 --    12 C    0.966
   132   1 H    0.994 --    13 C    0.956
   133   1 H    0.994 --    14 C    0.960
   134   1 H    0.997 --    16 C    0.954
   135   1 H    0.998 --    20 C    0.959
   136   1 H    0.997 --    21 C    0.961
   137   1 H    0.995 --    24 C    0.969
   138   1 H    0.996 --    24 C    0.947
   139   1 H    0.997 --    25 C    0.984
   140   1 H    0.996 --    25 C    0.977
   141   1 H    0.997 --    25 C    0.971
   142   1 H    0.997 --    31 C    0.958
   143   1 H    0.997 --    32 C    0.953
   144   1 H    0.996 --    35 C    0.970
   145   1 H    0.997 --    35 C    0.972
   146   1 H    0.997 --    36 C    0.985
   147   1 H    0.998 --    36 C    0.980
   148   1 H    0.997 --    36 C    0.977
   149   1 H    0.996 --    40 C    0.952
   150   1 H    0.997 --    47 C    0.957
   151   1 H    0.996 --    51 C    0.969
   152   1 H    0.997 --    52 C    0.962
   153   1 H    0.997 --    54 C    0.962
   154   1 H    0.995 --    55 C    0.947
   155   1 H    0.997 --    56 C    0.951
   156   1 H    0.998 --    61 C    0.962
   157   1 H    0.996 --    65 C    0.968
   158   1 H    0.998 --    66 C    0.962
   159   1 H    0.996 --    68 C    0.965
   160   1 H    0.993 --    69 C    0.956
   161   1 H    0.992 --    70 C    0.952
   162   1 H    0.995 --    72 C    0.955
   163   1 H    0.997 --    76 C    0.952
   164   1 H    0.997 --    77 C    0.961
   165   1 H    0.996 --    80 C    0.956
   166   1 H    0.995 --    80 C    0.958
   167   1 H    0.996 --    81 C    0.978
   168   1 H    0.997 --    81 C    0.984
   169   1 H    0.997 --    81 C    0.984
   170   1 H    0.997 --    87 C    0.956
   171   1 H    0.997 --    88 C    0.962
   172   1 H    0.996 --    91 C    0.966
   173   1 H    0.995 --    91 C    0.969
   174   1 H    0.997 --    92 C    0.976
   175   1 H    0.995 --    92 C    0.952
   176   1 H    0.996 --    92 C    0.981
   177   1 H    0.996 --    96 C    0.954
   178   1 H    0.997 --   100 C    0.957
   179   1 H    0.998 --   104 C    0.959
   180   1 H    0.997 --   105 C    0.956
   181   1 H    0.995 --   108 C    0.943
   182   1 H    0.995 --   108 C    0.966
   183   1 H    0.996 --   109 C    0.984
   184   1 H    0.997 --   109 C    0.972
   185   1 H    0.996 --   109 C    0.977
   186   1 H    0.997 --   115 C    0.955
   187   1 H    0.997 --   116 C    0.961
   188   1 H    0.995 --   119 C    0.969
   189   1 H    0.996 --   119 C    0.950
   190   1 H    0.996 --   120 C    0.977
   191   1 H    0.997 --   120 C    0.971
   192   1 H    0.997 --   120 C    0.984
   193   1 H    0.995 --   124 C    0.940
   194   1 H    0.996 --   125 C    0.968
 ---------------------------------------------------------------------------

Topologies differ in bond orders
Writing corrected topology to xtbtopo.mol

molecular dipole:
                 x           y           z       tot (Debye)
 q only:        0.575      -0.362       0.243
   full:        0.758      -0.135       0.056       1.961
molecular quadrupole (traceless):
                xx          xy          yy          xz          yz          zz
 q only:       -9.271      47.552      56.362       9.598     -17.545     -47.092
  q+dip:       14.471      41.644      53.418      -0.949      -1.626     -67.889
   full:       22.900      33.567      51.691      -1.907      -0.171     -74.591


           -------------------------------------------------
          | TOTAL ENERGY             -330.747866206050 Eh   |
          | GRADIENT NORM               0.005914532888 Eh/α |
          | HOMO-LUMO GAP               1.381375524162 eV   |
           -------------------------------------------------

------------------------------------------------------------------------
 * finished run on 2022/03/08 at 04:06:57.604     
------------------------------------------------------------------------
 total:
 * wall-time:     0 d,  0 h,  0 min,  0.930 sec
 *  cpu-time:     0 d,  0 h,  0 min,  7.346 sec
 * ratio c/w:     7.900 speedup
 SCF:
 * wall-time:     0 d,  0 h,  0 min,  0.832 sec
 *  cpu-time:     0 d,  0 h,  0 min,  6.641 sec
 * ratio c/w:     7.980 speedup

