      -----------------------------------------------------------      
     |                   =====================                   |     
     |                           x T B                           |     
     |                   =====================                   |     
     |                         S. Grimme                         |     
     |          Mulliken Center for Theoretical Chemistry        |     
     |                    University of Bonn                     |     
      -----------------------------------------------------------      

   * xtb version 6.4.1 (unknown) compiled by 'oda6@login1.crc.pitt.edu' on 2021-06-25

   xtb is free software: you can redistribute it and/or modify it under
   the terms of the GNU Lesser General Public License as published by
   the Free Software Foundation, either version 3 of the License, or
   (at your option) any later version.
   
   xtb is distributed in the hope that it will be useful,
   but WITHOUT ANY WARRANTY; without even the implied warranty of
   MERCHANTABILITY or FITNESS FOR A PARTICULAR PURPOSE.  See the
   GNU Lesser General Public License for more details.
   
   Cite this work as:
   * C. Bannwarth, E. Caldeweyher, S. Ehlert, A. Hansen, P. Pracht,
     J. Seibert, S. Spicher, S. Grimme, WIREs Comput. Mol. Sci., 2020, 11,
     e01493. DOI: 10.1002/wcms.1493
   
   for GFN2-xTB:
   * C. Bannwarth, S. Ehlert and S. Grimme., J. Chem. Theory Comput., 2019,
     15, 1652-1671. DOI: 10.1021/acs.jctc.8b01176
   for GFN1-xTB:
   * S. Grimme, C. Bannwarth, P. Shushkov, J. Chem. Theory Comput., 2017,
     13, 1989-2009. DOI: 10.1021/acs.jctc.7b00118
   for GFN0-xTB:
   * P. Pracht, E. Caldeweyher, S. Ehlert, S. Grimme, ChemRxiv, 2019, preprint.
     DOI: 10.26434/chemrxiv.8326202.v1
   for GFN-FF:
   * S. Spicher and S. Grimme, Angew. Chem. Int. Ed., 2020, 59, 15665-15673.
     DOI: 10.1002/anie.202004239
   
   for DFT-D4:
   * E. Caldeweyher, C. Bannwarth and S. Grimme, J. Chem. Phys., 2017,
     147, 034112. DOI: 10.1063/1.4993215
   * E. Caldeweyher, S. Ehlert, A. Hansen, H. Neugebauer, S. Spicher,
     C. Bannwarth and S. Grimme, J. Chem. Phys., 2019, 150, 154122.
     DOI: 10.1063/1.5090222
   * E. Caldeweyher, J.-M. Mewes, S. Ehlert and S. Grimme, Phys. Chem. Chem. Phys.
     2020, 22, 8499-8512. DOI: 10.1039/D0CP00502A
   
   for sTDA-xTB:
   * S. Grimme and C. Bannwarth, J. Chem. Phys., 2016, 145, 054103.
     DOI: 10.1063/1.4959605
   
   in the mass-spec context:
   * V. Asgeirsson, C. Bauer and S. Grimme, Chem. Sci., 2017, 8, 4879.
     DOI: 10.1039/c7sc00601b
   * J. Koopman and S. Grimme, ACS Omega 2019, 4, 12, 15120-15133.
     DOI: 10.1021/acsomega.9b02011
   
   for metadynamics refer to:
   * S. Grimme, J. Chem. Theory Comput., 2019, 155, 2847-2862
     DOI: 10.1021/acs.jctc.9b00143
   
   for SPH calculations refer to:
   * S. Spicher and S. Grimme, J. Chem. Theory Comput., 2021, 17, 1701-1714
     DOI: 10.1021/acs.jctc.0c01306
   
   with help from (in alphabetical order)
   P. Atkinson, C. Bannwarth, F. Bohle, G. Brandenburg, E. Caldeweyher
   M. Checinski, S. Dohm, S. Ehlert, S. Ehrlich, I. Gerasimov, J. Koopman
   C. Lavigne, S. Lehtola, F. März, M. Müller, F. Musil, H. Neugebauer
   J. Pisarek, C. Plett, P. Pracht, J. Seibert, P. Shushkov, S. Spicher
   M. Stahn, M. Steiner, T. Strunk, J. Stückrath, T. Rose, and J. Unsleber
   
 * started run on 2022/03/04 at 23:44:18.038     

           -------------------------------------------------
          |                Calculation Setup                |
           -------------------------------------------------

          program call               : /ihome/ghutchison/oda6/xtb/xtb-641/bin/xtb ../../GFN2_output/1024_635_001111.mol --sp --alpb hexane
          hostname                   : smp-n90
          coordinate file            : ../../GFN2_output/1024_635_001111.mol
          omp threads                :                     8
          number of atoms            :                   116
          number of electrons        :                   362
          charge                     :                     0
          spin                       :                   0.0
          first test random number   :      0.87845303149359

   ID    Z sym.   atoms
    1    6 C      1, 3-14, 16-26, 28, 30-32, 34, 35, 37, 38, 40, 42-44, 46,
                  47, 49, 50, 52, 54-56, 58, 59, 61, 62, 64, 66-68, 70, 71,
                  73, 74
    2   16 S      2, 15, 29, 41, 53, 65
    3    7 N      27, 33, 36, 39, 45, 48, 51, 57, 60, 63, 69, 72
    4    1 H      75-116

           -------------------------------------------------
          |                 G F N 2 - x T B                 |
           -------------------------------------------------

        Reference                      10.1021/acs.jctc.8b01176
      * Hamiltonian:
        H0-scaling (s, p, d)           1.850000    2.230000    2.230000
        zeta-weighting                 0.500000
      * Dispersion:
        s8                             2.700000
        a1                             0.520000
        a2                             5.000000
        s9                             5.000000
      * Repulsion:
        kExp                           1.500000    1.000000
        rExp                           1.000000
      * Coulomb:
        alpha                          2.000000
        third order                    shell-resolved
        anisotropic                    true
        a3                             3.000000
        a5                             4.000000
        cn-shift                       1.200000
        cn-exp                         4.000000
        max-rad                        5.000000

      * Solvation model:               ALPB
        Solvent                        hexane
        Parameter file                 internal GFN2-xTB/ALPB
        Dielectric constant                1.8800E+00
        Reference state                gsolv [1 M gas/solution]
        Free energy shift                  4.8134E-03 Eh       3.0204E+00 kcal/mol
        Temperature                        2.9815E+02 K
        Density                            6.6000E-01 kg/L
        Solvent mass                       8.6180E+01 g/mol
        Interaction kernel             P16
        Born radius scaling (c1)           1.1040E+00
        Born radii integrator          GBOBC
        Born offset                        0.0000E+00 a0       0.0000E+00 AA
        H-bond correction              false
        Ion screening                  false
        Surface tension                    1.0000E-05 Eh       1.5569E+01 dyn/cm
        Grid points                               230 per atom

          ...................................................
          :                      SETUP                      :
          :.................................................:
          :  # basis functions                 374          :
          :  # atomic orbitals                 368          :
          :  # shells                          196          :
          :  # electrons                       362          :
          :  max. iterations                   250          :
          :  Hamiltonian                  GFN2-xTB          :
          :  restarted?                      false          :
          :  GBSA solvation                   true          :
          :  PC potential                    false          :
          :  electronic temp.          300.0000000     K    :
          :  accuracy                    1.0000000          :
          :  -> integral cutoff          0.2500000E+02      :
          :  -> integral neglect         0.1000000E-07      :
          :  -> SCF convergence          0.1000000E-05 Eh   :
          :  -> wf. convergence          0.1000000E-03 e    :
          :  Broyden damping             0.4000000          :
          ...................................................

 iter      E             dE          RMSdq      gap      omega  full diag
   1   -198.5952465 -0.198595E+03  0.422E+00    0.42       0.0  T
   2   -198.8666604 -0.271414E+00  0.261E+00    0.47       1.0  T
   3   -198.8209019  0.457584E-01  0.155E+00    0.54       1.0  T
   4   -198.8535668 -0.326649E-01  0.102E+00    0.44       1.0  T
   5   -198.9544356 -0.100869E+00  0.306E-01    0.48       1.0  T
   6   -198.9613455 -0.690986E-02  0.122E-01    0.47       1.0  T
   7   -198.9613607 -0.152700E-04  0.623E-02    0.46       1.0  T
   8   -198.9615977 -0.236986E-03  0.308E-02    0.47       1.0  T
   9   -198.9616516 -0.539169E-04  0.138E-02    0.47       1.0  T
  10   -198.9616545 -0.289835E-05  0.758E-03    0.47       1.2  T
  11   -198.9616561 -0.153775E-05  0.402E-03    0.47       2.3  T
  12   -198.9616570 -0.898628E-06  0.201E-03    0.47       4.6  T
  13   -198.9616571 -0.142314E-06  0.919E-04    0.47      10.1  T
  14   -198.9616571  0.322521E-08  0.549E-04    0.47      16.9  T

   *** convergence criteria satisfied after 14 iterations ***

         #    Occupation            Energy/Eh            Energy/eV
      -------------------------------------------------------------
         1        2.0000           -0.7412201             -20.1696
       ...           ...                  ...                  ...
       175        2.0000           -0.3585368              -9.7563
       176        2.0000           -0.3578301              -9.7371
       177        2.0000           -0.3562068              -9.6929
       178        2.0000           -0.3545757              -9.6485
       179        2.0000           -0.3446766              -9.3791
       180        2.0000           -0.3329706              -9.0606
       181        1.9998           -0.3254061              -8.8548 (HOMO)
       182        0.0002           -0.3082577              -8.3881 (LUMO)
       183        0.0000           -0.3016978              -8.2096
       184                         -0.2949973              -8.0273
       185                         -0.2923163              -7.9543
       186                         -0.2875846              -7.8256
       ...                                ...                  ...
       368                          0.7403303              20.1454
      -------------------------------------------------------------
                  HL-Gap            0.0171484 Eh            0.4666 eV
             Fermi-level           -0.3168322 Eh           -8.6214 eV

 SCC (total)                   0 d,  0 h,  0 min,  0.287 sec
 SCC setup                      ...        0 min,  0.003 sec (  1.018%)
 Dispersion                     ...        0 min,  0.004 sec (  1.331%)
 classical contributions        ...        0 min,  0.000 sec (  0.055%)
 integral evaluation            ...        0 min,  0.014 sec (  4.810%)
 iterations                     ...        0 min,  0.224 sec ( 77.878%)
 molecular gradient             ...        0 min,  0.042 sec ( 14.499%)
 printout                       ...        0 min,  0.001 sec (  0.378%)

         :::::::::::::::::::::::::::::::::::::::::::::::::::::
         ::                     SUMMARY                     ::
         :::::::::::::::::::::::::::::::::::::::::::::::::::::
         :: total energy            -195.920304345784 Eh    ::
         :: total w/o Gsasa/hb      -195.848477735407 Eh    ::
         :: gradient norm              0.012117975245 Eh/a0 ::
         :: HOMO-LUMO gap              0.466631550220 eV    ::
         ::.................................................::
         :: SCC energy              -198.961657101651 Eh    ::
         :: -> isotropic ES            0.100007225573 Eh    ::
         :: -> anisotropic ES          0.008662615121 Eh    ::
         :: -> anisotropic XC          0.126486704130 Eh    ::
         :: -> dispersion             -0.177655413973 Eh    ::
         :: -> Gsolv                  -0.090662790556 Eh    ::
         ::    -> Gelec               -0.018836180180 Eh    ::
         ::    -> Gsasa               -0.076639966196 Eh    ::
         ::    -> Ghb                  0.000000000000 Eh    ::
         ::    -> Gshift               0.004813355820 Eh    ::
         :: repulsion energy           3.041069640593 Eh    ::
         :: add. restraining           0.000000000000 Eh    ::
         :: total charge              -0.000000000000 e     ::
         :::::::::::::::::::::::::::::::::::::::::::::::::::::

           -------------------------------------------------
          |                Property Printout                |
           -------------------------------------------------

    * Orbital Energies and Occupations

         #    Occupation            Energy/Eh            Energy/eV
      -------------------------------------------------------------
         1        2.0000           -0.7412201             -20.1696
       ...           ...                  ...                  ...
       169        2.0000           -0.3944138             -10.7325
       170        2.0000           -0.3877476             -10.5511
       171        2.0000           -0.3852980             -10.4845
       172        2.0000           -0.3738126             -10.1720
       173        2.0000           -0.3667105              -9.9787
       174        2.0000           -0.3591621              -9.7733
       175        2.0000           -0.3585368              -9.7563
       176        2.0000           -0.3578301              -9.7371
       177        2.0000           -0.3562068              -9.6929
       178        2.0000           -0.3545757              -9.6485
       179        2.0000           -0.3446766              -9.3791
       180        2.0000           -0.3329706              -9.0606
       181        1.9998           -0.3254061              -8.8548 (HOMO)
       182        0.0002           -0.3082577              -8.3881 (LUMO)
       183        0.0000           -0.3016978              -8.2096
       184                         -0.2949973              -8.0273
       185                         -0.2923163              -7.9543
       186                         -0.2875846              -7.8256
       187                         -0.2628666              -7.1530
       188                         -0.2485586              -6.7636
       189                         -0.2436669              -6.6305
       190                         -0.2385677              -6.4918
       191                         -0.2337402              -6.3604
       192                         -0.2258437              -6.1455
       ...                                ...                  ...
       368                          0.7403303              20.1454
      -------------------------------------------------------------
                  HL-Gap            0.0171484 Eh            0.4666 eV
             Fermi-level           -0.3168322 Eh           -8.6214 eV

     #   Z          covCN         q      C6AA      α(0)
     1   6 C        2.927    -0.030    28.759     8.795
     2  16 S        2.311    -0.028   142.222    20.072
     3   6 C        2.977     0.010    27.781     8.646
     4   6 C        3.157    -0.015    28.062     8.661
     5   6 C        3.163    -0.001    27.722     8.605
     6   6 C        2.915    -0.046    29.139     8.852
     7   6 C        2.966     0.008    27.840     8.655
     8   6 C        3.758    -0.108    22.615     6.780
     9   6 C        2.966     0.004    27.923     8.668
    10   6 C        3.758    -0.107    22.599     6.778
    11   6 C        2.915    -0.049    29.222     8.864
    12   6 C        2.927    -0.048    29.196     8.861
    13   6 C        2.973    -0.046    29.144     8.855
    14   6 C        2.968     0.019    27.592     8.616
    15  16 S        2.372    -0.060   143.543    20.165
    16   6 C        2.973     0.019    27.582     8.615
    17   6 C        3.154    -0.012    28.015     8.656
    18   6 C        3.133    -0.009    28.033     8.667
    19   6 C        2.917    -0.049    29.209     8.863
    20   6 C        2.967     0.006    27.874     8.660
    21   6 C        3.759    -0.109    22.640     6.783
    22   6 C        2.966     0.007    27.871     8.659
    23   6 C        3.758    -0.110    22.658     6.786
    24   6 C        2.917    -0.050    29.244     8.868
    25   6 C        2.933    -0.069    29.722     8.941
    26   6 C        2.840     0.009    27.809     8.642
    27   7 N        2.715    -0.078    22.749     7.084
    28   6 C        2.913     0.055    26.761     8.483
    29  16 S        2.314    -0.049   143.071    20.132
    30   6 C        2.975    -0.003    28.090     8.694
    31   6 C        3.149     0.060    26.397     8.404
    32   6 C        3.150     0.045    26.711     8.454
    33   7 N        1.834    -0.263    27.682     7.797
    34   6 C        2.917     0.049    26.912     8.507
    35   6 C        2.913     0.052    26.844     8.496
    36   7 N        1.834    -0.252    27.411     7.759
    37   6 C        2.925    -0.064    29.588     8.920
    38   6 C        2.845     0.007    27.856     8.650
    39   7 N        2.715    -0.078    22.760     7.086
    40   6 C        2.915     0.057    26.719     8.476
    41  16 S        2.319    -0.050   143.137    20.136
    42   6 C        2.973    -0.002    28.079     8.692
    43   6 C        3.152     0.060    26.392     8.402
    44   6 C        3.150     0.045    26.712     8.454
    45   7 N        1.834    -0.261    27.631     7.790
    46   6 C        2.917     0.049    26.907     8.506
    47   6 C        2.913     0.052    26.833     8.494
    48   7 N        1.834    -0.251    27.393     7.756
    49   6 C        2.927    -0.065    29.613     8.924
    50   6 C        2.840     0.008    27.832     8.646
    51   7 N        2.712    -0.080    22.790     7.090
    52   6 C        2.913     0.056    26.752     8.481
    53  16 S        2.305    -0.038   142.627    20.100
    54   6 C        2.972    -0.004    28.111     8.697
    55   6 C        3.153     0.059    26.397     8.403
    56   6 C        3.150     0.045    26.715     8.454
    57   7 N        1.834    -0.260    27.610     7.787
    58   6 C        2.917     0.048    26.918     8.508
    59   6 C        2.913     0.052    26.823     8.493
    60   7 N        1.834    -0.252    27.402     7.757
    61   6 C        2.922    -0.063    29.567     8.917
    62   6 C        2.836     0.009    27.810     8.642
    63   7 N        2.714    -0.088    22.957     7.116
    64   6 C        2.910     0.060    26.645     8.464
    65  16 S        2.340    -0.024   142.059    20.060
    66   6 C        2.974    -0.009    28.235     8.716
    67   6 C        3.151     0.062    26.344     8.395
    68   6 C        3.167     0.044    26.661     8.437
    69   7 N        1.835    -0.261    27.628     7.789
    70   6 C        2.918     0.048    26.915     8.508
    71   6 C        2.910     0.058    26.690     8.471
    72   7 N        1.834    -0.251    27.383     7.755
    73   6 C        2.927    -0.030    28.752     8.793
    74   6 C        2.842    -0.099    30.489     9.049
    75   1 H        0.927     0.047     2.354     2.399
    76   1 H        0.926     0.035     2.510     2.478
    77   1 H        0.925     0.048     2.342     2.393
    78   1 H        0.925     0.046     2.367     2.406
    79   1 H        0.925     0.043     2.407     2.426
    80   1 H        0.925     0.050     2.317     2.380
    81   1 H        0.925     0.047     2.364     2.404
    82   1 H        0.925     0.039     2.459     2.452
    83   1 H        0.926     0.024     2.668     2.554
    84   1 H        0.926     0.043     2.403     2.424
    85   1 H        0.925     0.049     2.333     2.388
    86   1 H        0.926     0.033     2.548     2.496
    87   1 H        0.925     0.040     2.453     2.449
    88   1 H        0.925     0.049     2.329     2.387
    89   1 H        0.925     0.049     2.328     2.386
    90   1 H        0.925     0.041     2.437     2.441
    91   1 H        0.925     0.049     2.327     2.386
    92   1 H        0.925     0.049     2.328     2.386
    93   1 H        0.926     0.030     2.582     2.513
    94   1 H        0.925     0.049     2.338     2.391
    95   1 H        0.926     0.073     2.051     2.240
    96   1 H        0.860     0.215     1.032     1.591
    97   1 H        0.926     0.038     2.479     2.462
    98   1 H        0.925     0.040     2.453     2.449
    99   1 H        0.926     0.064     2.151     2.294
   100   1 H        0.925     0.074     2.040     2.234
   101   1 H        0.860     0.217     1.024     1.585
   102   1 H        0.926     0.039     2.468     2.457
   103   1 H        0.925     0.040     2.448     2.447
   104   1 H        0.926     0.064     2.155     2.296
   105   1 H        0.925     0.071     2.077     2.254
   106   1 H        0.860     0.217     1.022     1.583
   107   1 H        0.926     0.039     2.468     2.457
   108   1 H        0.925     0.040     2.449     2.447
   109   1 H        0.925     0.065     2.144     2.290
   110   1 H        0.926     0.070     2.082     2.256
   111   1 H        0.860     0.216     1.026     1.587
   112   1 H        0.926     0.037     2.492     2.468
   113   1 H        0.925     0.037     2.482     2.464
   114   1 H        0.925     0.040     2.452     2.449
   115   1 H        0.926     0.040     2.454     2.449
   116   1 H        0.926     0.060     2.198     2.319

 Mol. C6AA /au·bohr⁶  :     237950.690431
 Mol. C8AA /au·bohr⁸  :    6653072.675476
 Mol. α(0) /au        :        785.253987


Wiberg/Mayer (AO) data.
largest (>0.10) Wiberg bond orders for each atom

 ---------------------------------------------------------------------------
     #   Z sym  total        # sym  WBO       # sym  WBO       # sym  WBO
 ---------------------------------------------------------------------------
     1   6 C    3.857 --     5 C    1.434     2 S    1.226    75 H    0.968
                             3 C    0.102
     2  16 S    2.641 --     1 C    1.226     3 C    1.130
     3   6 C    3.934 --     4 C    1.308    12 C    1.264     2 S    1.130
                             1 C    0.102
     4   6 C    3.947 --     3 C    1.308    11 C    1.272     5 C    1.176
     5   6 C    3.986 --     1 C    1.434     6 C    1.224     4 C    1.176
     6   6 C    3.968 --     7 C    1.571     5 C    1.224    76 H    0.966
                            11 C    0.104
     7   6 C    3.986 --     6 C    1.571     9 C    1.228     8 C    1.028
     8   6 C    3.995 --     7 C    1.028    79 H    0.985    77 H    0.970
                            78 H    0.969
     9   6 C    3.948 --    11 C    1.538     7 C    1.228    10 C    1.029
    10   6 C    3.994 --     9 C    1.029    82 H    0.985    81 H    0.969
                            80 H    0.969
    11   6 C    3.983 --     9 C    1.538     4 C    1.272    83 H    0.963
                             6 C    0.104
    12   6 C    3.933 --    13 C    1.538     3 C    1.264    84 H    0.945
    13   6 C    3.959 --    12 C    1.538    14 C    1.282    85 H    0.953
    14   6 C    3.889 --    13 C    1.282    18 C    1.277    15 S    1.120
    15  16 S    2.571 --    16 C    1.141    14 C    1.120
    16   6 C    3.889 --    17 C    1.284    25 C    1.254    15 S    1.141
    17   6 C    3.965 --    16 C    1.284    24 C    1.275    18 C    1.208
    18   6 C    3.956 --    19 C    1.278    14 C    1.277    17 C    1.208
    19   6 C    3.978 --    20 C    1.528    18 C    1.278    86 H    0.956
                            24 C    0.103
    20   6 C    3.971 --    19 C    1.528    22 C    1.252    21 C    1.029
    21   6 C    3.994 --    20 C    1.029    87 H    0.985    89 H    0.969
                            88 H    0.969
    22   6 C    3.959 --    24 C    1.531    20 C    1.252    23 C    1.029
    23   6 C    3.994 --    22 C    1.029    90 H    0.985    92 H    0.969
                            91 H    0.969
    24   6 C    3.974 --    22 C    1.531    17 C    1.275    93 H    0.963
                            19 C    0.103
    25   6 C    3.933 --    26 C    1.564    16 C    1.254    94 H    0.952
    26   6 C    3.892 --    25 C    1.564    27 N    1.200    95 H    0.947
    27   7 N    3.534 --    26 C    1.200    28 C    1.199    96 H    0.913
    28   6 C    3.886 --    32 C    1.306    27 N    1.199    29 S    1.136
    29  16 S    2.542 --    28 C    1.136    30 C    1.085
    30   6 C    3.880 --    31 C    1.328    37 C    1.242    29 S    1.085
    31   6 C    3.954 --    30 C    1.328    36 N    1.277    32 C    1.131
    32   6 C    3.955 --    28 C    1.306    33 N    1.284    31 C    1.131
    33   7 N    3.028 --    34 C    1.537    32 C    1.284
    34   6 C    3.947 --    33 N    1.537    35 C    1.269    97 H    0.963
    35   6 C    3.938 --    36 N    1.547    34 C    1.269    98 H    0.963
    36   7 N    3.031 --    35 C    1.547    31 C    1.277
    37   6 C    3.934 --    38 C    1.580    30 C    1.242    99 H    0.952
    38   6 C    3.898 --    37 C    1.580    39 N    1.190   100 H    0.943
    39   7 N    3.529 --    40 C    1.202    38 C    1.190   101 H    0.913
    40   6 C    3.889 --    44 C    1.305    39 N    1.202    41 S    1.137
    41  16 S    2.545 --    40 C    1.137    42 C    1.083
    42   6 C    3.878 --    43 C    1.329    49 C    1.243    41 S    1.083
    43   6 C    3.953 --    42 C    1.329    48 N    1.276    44 C    1.130
    44   6 C    3.953 --    40 C    1.305    45 N    1.285    43 C    1.130
    45   7 N    3.031 --    46 C    1.539    44 C    1.285
    46   6 C    3.948 --    45 N    1.539    47 C    1.267   102 H    0.963
    47   6 C    3.939 --    48 N    1.550    46 C    1.267   103 H    0.963
    48   7 N    3.034 --    47 C    1.550    43 C    1.276
    49   6 C    3.935 --    50 C    1.578    42 C    1.243   104 H    0.951
    50   6 C    3.897 --    49 C    1.578    51 N    1.190   105 H    0.947
    51   7 N    3.528 --    52 C    1.200    50 C    1.190   106 H    0.912
    52   6 C    3.895 --    56 C    1.304    51 N    1.200    53 S    1.141
    53  16 S    2.551 --    52 C    1.141    54 C    1.091
    54   6 C    3.880 --    55 C    1.335    61 C    1.227    53 S    1.091
    55   6 C    3.957 --    54 C    1.335    60 N    1.271    56 C    1.132
    56   6 C    3.957 --    52 C    1.304    57 N    1.285    55 C    1.132
    57   7 N    3.034 --    58 C    1.540    56 C    1.285
    58   6 C    3.949 --    57 N    1.540    59 C    1.265   107 H    0.963
    59   6 C    3.943 --    60 N    1.554    58 C    1.265   108 H    0.963
    60   7 N    3.036 --    59 C    1.554    55 C    1.271
    61   6 C    3.944 --    62 C    1.606    54 C    1.227   109 H    0.950
    62   6 C    3.900 --    61 C    1.606    63 N    1.170   110 H    0.950
    63   7 N    3.525 --    64 C    1.201    62 C    1.170   111 H    0.912
    64   6 C    3.931 --    68 C    1.298    63 N    1.201    65 S    1.168
    65  16 S    2.587 --    64 C    1.168    66 C    1.099
    66   6 C    3.878 --    67 C    1.376    73 C    1.165    65 S    1.099
    67   6 C    3.978 --    66 C    1.376    72 N    1.247    68 C    1.129
    68   6 C    3.965 --    64 C    1.298    69 N    1.290    67 C    1.129
    69   7 N    3.042 --    70 C    1.541    68 C    1.290
    70   6 C    3.951 --    69 N    1.541    71 C    1.257   112 H    0.963
    71   6 C    3.970 --    72 N    1.569    70 C    1.257   113 H    0.961
    72   7 N    3.045 --    71 C    1.569    67 C    1.247
    73   6 C    3.989 --    74 C    1.818    66 C    1.165   114 H    0.963
    74   6 C    3.939 --    73 C    1.818   115 H    0.978   116 H    0.971
    75   1 H    0.997 --     1 C    0.968
    76   1 H    0.998 --     6 C    0.966
    77   1 H    0.995 --     8 C    0.970
    78   1 H    0.995 --     8 C    0.969
    79   1 H    0.998 --     8 C    0.985
    80   1 H    0.993 --    10 C    0.969
    81   1 H    0.994 --    10 C    0.969
    82   1 H    0.998 --    10 C    0.985
    83   1 H    0.999 --    11 C    0.963
    84   1 H    0.998 --    12 C    0.945
    85   1 H    0.997 --    13 C    0.953
    86   1 H    0.998 --    19 C    0.956
    87   1 H    0.998 --    21 C    0.985
    88   1 H    0.994 --    21 C    0.969
    89   1 H    0.994 --    21 C    0.969
    90   1 H    0.998 --    23 C    0.985
    91   1 H    0.994 --    23 C    0.969
    92   1 H    0.994 --    23 C    0.969
    93   1 H    0.998 --    24 C    0.963
    94   1 H    0.997 --    25 C    0.952
    95   1 H    0.994 --    26 C    0.947
    96   1 H    0.953 --    27 N    0.913
    97   1 H    0.997 --    34 C    0.963
    98   1 H    0.997 --    35 C    0.963
    99   1 H    0.995 --    37 C    0.952
   100   1 H    0.994 --    38 C    0.943
   101   1 H    0.953 --    39 N    0.913
   102   1 H    0.997 --    46 C    0.963
   103   1 H    0.997 --    47 C    0.963
   104   1 H    0.995 --    49 C    0.951
   105   1 H    0.995 --    50 C    0.947
   106   1 H    0.952 --    51 N    0.912
   107   1 H    0.997 --    58 C    0.963
   108   1 H    0.997 --    59 C    0.963
   109   1 H    0.995 --    61 C    0.950
   110   1 H    0.995 --    62 C    0.950
   111   1 H    0.953 --    63 N    0.912
   112   1 H    0.997 --    70 C    0.963
   113   1 H    0.997 --    71 C    0.961
   114   1 H    0.998 --    73 C    0.963
   115   1 H    0.998 --    74 C    0.978
   116   1 H    0.996 --    74 C    0.971
 ---------------------------------------------------------------------------

Topologies differ in bond orders
Writing corrected topology to xtbtopo.mol

molecular dipole:
                 x           y           z       tot (Debye)
 q only:        0.533      -1.412      -0.915
   full:        0.179      -1.704      -1.355       5.552
molecular quadrupole (traceless):
                xx          xy          yy          xz          yz          zz
 q only:      -11.781       0.028       6.665      -5.838      21.810       5.116
  q+dip:      -22.491      -3.259      -0.582     -12.878      10.326      23.073
   full:      -16.415      -3.907       2.121     -11.635       9.952      14.295


           -------------------------------------------------
          | TOTAL ENERGY             -195.920304345784 Eh   |
          | GRADIENT NORM               0.012117975245 Eh/α |
          | HOMO-LUMO GAP               0.466631550220 eV   |
           -------------------------------------------------

------------------------------------------------------------------------
 * finished run on 2022/03/04 at 23:44:18.384     
------------------------------------------------------------------------
 total:
 * wall-time:     0 d,  0 h,  0 min,  0.347 sec
 *  cpu-time:     0 d,  0 h,  0 min,  2.690 sec
 * ratio c/w:     7.758 speedup
 SCF:
 * wall-time:     0 d,  0 h,  0 min,  0.289 sec
 *  cpu-time:     0 d,  0 h,  0 min,  2.300 sec
 * ratio c/w:     7.960 speedup

