      -----------------------------------------------------------      
     |                   =====================                   |     
     |                           x T B                           |     
     |                   =====================                   |     
     |                         S. Grimme                         |     
     |          Mulliken Center for Theoretical Chemistry        |     
     |                    University of Bonn                     |     
      -----------------------------------------------------------      

   * xtb version 6.4.1 (unknown) compiled by 'oda6@login1.crc.pitt.edu' on 2021-06-25

   xtb is free software: you can redistribute it and/or modify it under
   the terms of the GNU Lesser General Public License as published by
   the Free Software Foundation, either version 3 of the License, or
   (at your option) any later version.
   
   xtb is distributed in the hope that it will be useful,
   but WITHOUT ANY WARRANTY; without even the implied warranty of
   MERCHANTABILITY or FITNESS FOR A PARTICULAR PURPOSE.  See the
   GNU Lesser General Public License for more details.
   
   Cite this work as:
   * C. Bannwarth, E. Caldeweyher, S. Ehlert, A. Hansen, P. Pracht,
     J. Seibert, S. Spicher, S. Grimme, WIREs Comput. Mol. Sci., 2020, 11,
     e01493. DOI: 10.1002/wcms.1493
   
   for GFN2-xTB:
   * C. Bannwarth, S. Ehlert and S. Grimme., J. Chem. Theory Comput., 2019,
     15, 1652-1671. DOI: 10.1021/acs.jctc.8b01176
   for GFN1-xTB:
   * S. Grimme, C. Bannwarth, P. Shushkov, J. Chem. Theory Comput., 2017,
     13, 1989-2009. DOI: 10.1021/acs.jctc.7b00118
   for GFN0-xTB:
   * P. Pracht, E. Caldeweyher, S. Ehlert, S. Grimme, ChemRxiv, 2019, preprint.
     DOI: 10.26434/chemrxiv.8326202.v1
   for GFN-FF:
   * S. Spicher and S. Grimme, Angew. Chem. Int. Ed., 2020, 59, 15665-15673.
     DOI: 10.1002/anie.202004239
   
   for DFT-D4:
   * E. Caldeweyher, C. Bannwarth and S. Grimme, J. Chem. Phys., 2017,
     147, 034112. DOI: 10.1063/1.4993215
   * E. Caldeweyher, S. Ehlert, A. Hansen, H. Neugebauer, S. Spicher,
     C. Bannwarth and S. Grimme, J. Chem. Phys., 2019, 150, 154122.
     DOI: 10.1063/1.5090222
   * E. Caldeweyher, J.-M. Mewes, S. Ehlert and S. Grimme, Phys. Chem. Chem. Phys.
     2020, 22, 8499-8512. DOI: 10.1039/D0CP00502A
   
   for sTDA-xTB:
   * S. Grimme and C. Bannwarth, J. Chem. Phys., 2016, 145, 054103.
     DOI: 10.1063/1.4959605
   
   in the mass-spec context:
   * V. Asgeirsson, C. Bauer and S. Grimme, Chem. Sci., 2017, 8, 4879.
     DOI: 10.1039/c7sc00601b
   * J. Koopman and S. Grimme, ACS Omega 2019, 4, 12, 15120-15133.
     DOI: 10.1021/acsomega.9b02011
   
   for metadynamics refer to:
   * S. Grimme, J. Chem. Theory Comput., 2019, 155, 2847-2862
     DOI: 10.1021/acs.jctc.9b00143
   
   for SPH calculations refer to:
   * S. Spicher and S. Grimme, J. Chem. Theory Comput., 2021, 17, 1701-1714
     DOI: 10.1021/acs.jctc.0c01306
   
   with help from (in alphabetical order)
   P. Atkinson, C. Bannwarth, F. Bohle, G. Brandenburg, E. Caldeweyher
   M. Checinski, S. Dohm, S. Ehlert, S. Ehrlich, I. Gerasimov, J. Koopman
   C. Lavigne, S. Lehtola, F. März, M. Müller, F. Musil, H. Neugebauer
   J. Pisarek, C. Plett, P. Pracht, J. Seibert, P. Shushkov, S. Spicher
   M. Stahn, M. Steiner, T. Strunk, J. Stückrath, T. Rose, and J. Unsleber
   
 * started run on 2022/03/01 at 23:05:53.594     

           -------------------------------------------------
          |                Calculation Setup                |
           -------------------------------------------------

          program call               : /ihome/ghutchison/oda6/xtb/xtb-641/bin/xtb ../../GFN2_output/1050_61_000011.mol --sp --alpb hexane
          hostname                   : smp-n90
          coordinate file            : ../../GFN2_output/1050_61_000011.mol
          omp threads                :                     8
          number of atoms            :                   170
          number of electrons        :                   570
          charge                     :                     0
          spin                       :                   0.0
          first test random number   :      0.28524324635308

   ID    Z sym.   atoms
    1    6 C      1, 3-7, 9, 10, 12-14, 16-20, 22, 23, 25-27, 29-33, 35, 36,
                  38-40, 42-46, 48, 49, 51-57, 59-62, 64, 66-69, 71-75, 78,
                  80, 81, 83-87, 89-92, 94, 96-99, 101-105, 108, 110, 111
    2   16 S      2, 15, 28, 41, 58, 70, 79, 82, 88, 100, 109, 112
    3    8 O      8, 11, 21, 24, 34, 37, 47, 50
    4   17 Cl     63, 65, 76, 77, 93, 95, 106, 107
    5    1 H      113-170

           -------------------------------------------------
          |                 G F N 2 - x T B                 |
           -------------------------------------------------

        Reference                      10.1021/acs.jctc.8b01176
      * Hamiltonian:
        H0-scaling (s, p, d)           1.850000    2.230000    2.230000
        zeta-weighting                 0.500000
      * Dispersion:
        s8                             2.700000
        a1                             0.520000
        a2                             5.000000
        s9                             5.000000
      * Repulsion:
        kExp                           1.500000    1.000000
        rExp                           1.000000
      * Coulomb:
        alpha                          2.000000
        third order                    shell-resolved
        anisotropic                    true
        a3                             3.000000
        a5                             4.000000
        cn-shift                       1.200000
        cn-exp                         4.000000
        max-rad                        5.000000

      * Solvation model:               ALPB
        Solvent                        hexane
        Parameter file                 internal GFN2-xTB/ALPB
        Dielectric constant                1.8800E+00
        Reference state                gsolv [1 M gas/solution]
        Free energy shift                  4.8134E-03 Eh       3.0204E+00 kcal/mol
        Temperature                        2.9815E+02 K
        Density                            6.6000E-01 kg/L
        Solvent mass                       8.6180E+01 g/mol
        Interaction kernel             P16
        Born radius scaling (c1)           1.1040E+00
        Born radii integrator          GBOBC
        Born offset                        0.0000E+00 a0       0.0000E+00 AA
        H-bond correction              false
        Ion screening                  false
        Surface tension                    1.0000E-05 Eh       1.5569E+01 dyn/cm
        Grid points                               230 per atom

          ...................................................
          :                      SETUP                      :
          :.................................................:
          :  # basis functions                 626          :
          :  # atomic orbitals                 606          :
          :  # shells                          302          :
          :  # electrons                       570          :
          :  max. iterations                   250          :
          :  Hamiltonian                  GFN2-xTB          :
          :  restarted?                      false          :
          :  GBSA solvation                   true          :
          :  PC potential                    false          :
          :  electronic temp.          300.0000000     K    :
          :  accuracy                    1.0000000          :
          :  -> integral cutoff          0.2500000E+02      :
          :  -> integral neglect         0.1000000E-07      :
          :  -> SCF convergence          0.1000000E-05 Eh   :
          :  -> wf. convergence          0.1000000E-03 e    :
          :  Broyden damping             0.4000000          :
          ...................................................

 iter      E             dE          RMSdq      gap      omega  full diag
   1   -321.3473270 -0.321347E+03  0.445E+00    0.76       0.0  T
   2   -321.5523629 -0.205036E+00  0.242E+00    0.74       1.0  T
   3   -321.4832788  0.690841E-01  0.993E-01    0.77       1.0  T
   4   -321.5657663 -0.824875E-01  0.457E-01    0.75       1.0  T
   5   -321.5822433 -0.164770E-01  0.167E-01    0.75       1.0  T
   6   -321.5828596 -0.616353E-03  0.106E-01    0.76       1.0  T
   7   -321.5837509 -0.891253E-03  0.541E-02    0.76       1.0  T
   8   -321.5839184 -0.167492E-03  0.381E-02    0.76       1.0  T
   9   -321.5839730 -0.546291E-04  0.273E-02    0.76       1.0  T
  10   -321.5840156 -0.425427E-04  0.168E-02    0.76       1.0  T
  11   -321.5840302 -0.146512E-04  0.115E-02    0.76       1.0  T
  12   -321.5840381 -0.791625E-05  0.550E-03    0.76       1.4  T
  13   -321.5840403 -0.221088E-05  0.231E-03    0.76       3.3  T
  14   -321.5840407 -0.338950E-06  0.136E-03    0.76       5.7  T
  15   -321.5840407 -0.755622E-07  0.960E-04    0.76       8.0  T
  16   -321.5840408 -0.531124E-07  0.601E-04    0.76      12.8  T

   *** convergence criteria satisfied after 16 iterations ***

         #    Occupation            Energy/Eh            Energy/eV
      -------------------------------------------------------------
         1        2.0000           -1.0729465             -29.1964
       ...           ...                  ...                  ...
       279        2.0000           -0.3789845             -10.3127
       280        2.0000           -0.3772564             -10.2657
       281        2.0000           -0.3743052             -10.1854
       282        2.0000           -0.3706906             -10.0870
       283        2.0000           -0.3658463              -9.9552
       284        2.0000           -0.3561139              -9.6904
       285        2.0000           -0.3357776              -9.1370 (HOMO)
       286        0.0000           -0.3077171              -8.3734 (LUMO)
       287                         -0.2970760              -8.0838
       288                         -0.2865205              -7.7966
       289                         -0.2803989              -7.6300
       290                         -0.2719514              -7.4002
       ...                                ...                  ...
       606                          0.7297984              19.8588
      -------------------------------------------------------------
                  HL-Gap            0.0280606 Eh            0.7636 eV
             Fermi-level           -0.3217474 Eh           -8.7552 eV

 SCC (total)                   0 d,  0 h,  0 min,  0.712 sec
 SCC setup                      ...        0 min,  0.006 sec (  0.861%)
 Dispersion                     ...        0 min,  0.007 sec (  0.998%)
 classical contributions        ...        0 min,  0.000 sec (  0.038%)
 integral evaluation            ...        0 min,  0.033 sec (  4.679%)
 iterations                     ...        0 min,  0.573 sec ( 80.478%)
 molecular gradient             ...        0 min,  0.089 sec ( 12.518%)
 printout                       ...        0 min,  0.003 sec (  0.415%)

         :::::::::::::::::::::::::::::::::::::::::::::::::::::
         ::                     SUMMARY                     ::
         :::::::::::::::::::::::::::::::::::::::::::::::::::::
         :: total energy            -317.645862755450 Eh    ::
         :: total w/o Gsasa/hb      -317.535174743530 Eh    ::
         :: gradient norm              0.015492260128 Eh/a0 ::
         :: HOMO-LUMO gap              0.763566525037 eV    ::
         ::.................................................::
         :: SCC energy              -321.584040801906 Eh    ::
         :: -> isotropic ES            0.165014635266 Eh    ::
         :: -> anisotropic ES          0.000499116238 Eh    ::
         :: -> anisotropic XC          0.074746120733 Eh    ::
         :: -> dispersion             -0.298015844224 Eh    ::
         :: -> Gsolv                  -0.132602778263 Eh    ::
         ::    -> Gelec               -0.021914766343 Eh    ::
         ::    -> Gsasa               -0.115501367740 Eh    ::
         ::    -> Ghb                  0.000000000000 Eh    ::
         ::    -> Gshift               0.004813355820 Eh    ::
         :: repulsion energy           3.937926061868 Eh    ::
         :: add. restraining           0.000000000000 Eh    ::
         :: total charge              -0.000000000011 e     ::
         :::::::::::::::::::::::::::::::::::::::::::::::::::::

           -------------------------------------------------
          |                Property Printout                |
           -------------------------------------------------

    * Orbital Energies and Occupations

         #    Occupation            Energy/Eh            Energy/eV
      -------------------------------------------------------------
         1        2.0000           -1.0729465             -29.1964
       ...           ...                  ...                  ...
       273        2.0000           -0.3957500             -10.7689
       274        2.0000           -0.3954260             -10.7601
       275        2.0000           -0.3875934             -10.5470
       276        2.0000           -0.3851599             -10.4807
       277        2.0000           -0.3829341             -10.4202
       278        2.0000           -0.3811000             -10.3703
       279        2.0000           -0.3789845             -10.3127
       280        2.0000           -0.3772564             -10.2657
       281        2.0000           -0.3743052             -10.1854
       282        2.0000           -0.3706906             -10.0870
       283        2.0000           -0.3658463              -9.9552
       284        2.0000           -0.3561139              -9.6904
       285        2.0000           -0.3357776              -9.1370 (HOMO)
       286        0.0000           -0.3077171              -8.3734 (LUMO)
       287                         -0.2970760              -8.0838
       288                         -0.2865205              -7.7966
       289                         -0.2803989              -7.6300
       290                         -0.2719514              -7.4002
       291                         -0.2680236              -7.2933
       292                         -0.2635606              -7.1718
       293                         -0.2629812              -7.1561
       294                         -0.2590107              -7.0480
       295                         -0.2507468              -6.8232
       296                         -0.2418084              -6.5799
       ...                                ...                  ...
       606                          0.7297984              19.8588
      -------------------------------------------------------------
                  HL-Gap            0.0280606 Eh            0.7636 eV
             Fermi-level           -0.3217474 Eh           -8.7552 eV

     #   Z          covCN         q      C6AA      α(0)
     1   6 C        2.928    -0.038    28.933     8.821
     2  16 S        2.324    -0.015   141.684    20.034
     3   6 C        3.013     0.005    27.893     8.663
     4   6 C        3.160    -0.016    28.069     8.661
     5   6 C        3.166    -0.007    27.843     8.623
     6   6 C        2.907    -0.085    30.141     9.002
     7   6 C        2.863     0.130    25.157     8.221
     8   8 O        1.705    -0.273    18.528     5.812
     9   6 C        3.647     0.035    20.317     6.477
    10   6 C        2.864     0.127    25.214     8.231
    11   8 O        1.705    -0.274    18.537     5.813
    12   6 C        3.646     0.037    20.273     6.470
    13   6 C        2.906    -0.084    30.094     8.995
    14   6 C        3.008     0.009    27.794     8.648
    15  16 S        2.373    -0.027   142.150    20.067
    16   6 C        3.019     0.009    27.786     8.647
    17   6 C        3.143    -0.011    28.027     8.663
    18   6 C        3.153    -0.013    28.041     8.660
    19   6 C        2.910    -0.082    30.058     8.990
    20   6 C        2.857     0.118    25.397     8.260
    21   8 O        1.704    -0.291    18.842     5.861
    22   6 C        3.643     0.038    20.275     6.473
    23   6 C        2.850     0.127    25.221     8.231
    24   8 O        1.706    -0.290    18.810     5.856
    25   6 C        3.635     0.037    20.334     6.489
    26   6 C        2.914    -0.071    29.762     8.946
    27   6 C        3.016     0.013    27.698     8.633
    28  16 S        2.370    -0.045   142.898    20.119
    29   6 C        3.009     0.011    27.753     8.642
    30   6 C        3.147    -0.009    27.983     8.654
    31   6 C        3.148    -0.011    28.003     8.656
    32   6 C        2.909    -0.083    30.078     8.993
    33   6 C        2.865     0.131    25.122     8.216
    34   8 O        1.705    -0.268    18.448     5.799
    35   6 C        3.647     0.033    20.346     6.481
    36   6 C        2.864     0.133    25.095     8.211
    37   8 O        1.705    -0.266    18.401     5.792
    38   6 C        3.647     0.032    20.356     6.483
    39   6 C        2.910    -0.083    30.076     8.993
    40   6 C        3.006     0.017    27.609     8.619
    41  16 S        2.398    -0.040   142.724    20.107
    42   6 C        3.013     0.005    27.887     8.662
    43   6 C        3.145    -0.007    27.935     8.647
    44   6 C        3.150    -0.012    28.029     8.660
    45   6 C        2.909    -0.082    30.053     8.989
    46   6 C        2.864     0.131    25.135     8.218
    47   8 O        1.705    -0.267    18.431     5.796
    48   6 C        3.647     0.032    20.369     6.485
    49   6 C        2.864     0.134    25.070     8.207
    50   8 O        1.705    -0.266    18.416     5.794
    51   6 C        3.647     0.039    20.236     6.464
    52   6 C        2.909    -0.084    30.109     8.998
    53   6 C        3.029     0.037    27.153     8.547
    54   6 C        3.066    -0.063    29.492     8.905
    55   6 C        3.140     0.002    27.745     8.620
    56   6 C        3.011    -0.005    28.138     8.701
    57   6 C        3.012     0.007    27.841     8.655
    58  16 S        2.392     0.019   140.277    19.934
    59   6 C        3.009     0.014    27.687     8.631
    60   6 C        3.823    -0.056    21.568     6.609
    61   6 C        3.754    -0.106    22.591     6.778
    62   6 C        3.108     0.063    26.454     8.427
    63  17 Cl       0.947    -0.169   104.446    15.635
    64   6 C        3.101     0.066    26.401     8.420
    65  17 Cl       0.945    -0.167   104.378    15.630
    66   6 C        3.006     0.028    27.369     8.582
    67   6 C        3.138    -0.002    27.853     8.638
    68   6 C        3.011    -0.001    28.045     8.687
    69   6 C        3.013     0.007    27.854     8.657
    70  16 S        2.379     0.009   140.710    19.965
    71   6 C        3.009     0.013    27.706     8.634
    72   6 C        3.823    -0.059    21.608     6.615
    73   6 C        3.754    -0.107    22.597     6.778
    74   6 C        3.112     0.065    26.394     8.416
    75   6 C        3.101     0.070    26.313     8.406
    76  17 Cl       0.964    -0.156   104.048    15.605
    77  17 Cl       0.949    -0.165   104.319    15.626
    78   6 C        3.004     0.031    27.304     8.572
    79  16 S        2.346    -0.077   144.270    20.216
    80   6 C        3.069    -0.056    29.323     8.879
    81   6 C        3.016     0.032    27.270     8.566
    82  16 S        2.315    -0.054   143.272    20.146
    83   6 C        3.015     0.035    27.204     8.556
    84   6 C        3.069    -0.059    29.383     8.888
    85   6 C        3.139     0.001    27.769     8.624
    86   6 C        3.012     0.000    28.004     8.681
    87   6 C        3.013     0.006    27.861     8.658
    88  16 S        2.381     0.012   140.565    19.954
    89   6 C        3.009     0.013    27.700     8.633
    90   6 C        3.824    -0.057    21.582     6.611
    91   6 C        3.754    -0.107    22.606     6.780
    92   6 C        3.111     0.066    26.388     8.415
    93  17 Cl       0.949    -0.165   104.312    15.625
    94   6 C        3.100     0.070    26.306     8.405
    95  17 Cl       0.960    -0.156   104.028    15.604
    96   6 C        3.006     0.027    27.379     8.583
    97   6 C        3.148    -0.001    27.781     8.622
    98   6 C        3.011     0.002    27.974     8.676
    99   6 C        3.014     0.006    27.865     8.659
   100  16 S        2.378     0.013   140.530    19.952
   101   6 C        3.009     0.013    27.706     8.634
   102   6 C        3.824    -0.057    21.573     6.609
   103   6 C        3.754    -0.107    22.596     6.778
   104   6 C        3.111     0.065    26.390     8.416
   105   6 C        3.100     0.070    26.307     8.405
   106  17 Cl       0.959    -0.155   104.011    15.603
   107  17 Cl       0.949    -0.165   104.314    15.625
   108   6 C        3.006     0.029    27.348     8.578
   109  16 S        2.311    -0.047   142.992    20.126
   110   6 C        3.073    -0.050    29.151     8.853
   111   6 C        2.936    -0.007    28.197     8.709
   112  16 S        2.267    -0.044   142.863    20.117
   113   1 H        0.926     0.051     2.307     2.375
   114   1 H        0.926     0.047     2.354     2.399
   115   1 H        0.924     0.048     2.349     2.397
   116   1 H        0.925     0.071     2.072     2.251
   117   1 H        0.924     0.048     2.342     2.393
   118   1 H        0.924     0.048     2.345     2.395
   119   1 H        0.925     0.072     2.067     2.248
   120   1 H        0.924     0.042     2.417     2.431
   121   1 H        0.926     0.049     2.331     2.388
   122   1 H        0.926     0.053     2.281     2.362
   123   1 H        0.924     0.044     2.398     2.422
   124   1 H        0.924     0.047     2.358     2.402
   125   1 H        0.925     0.069     2.093     2.263
   126   1 H        0.925     0.065     2.140     2.288
   127   1 H        0.924     0.049     2.336     2.390
   128   1 H        0.924     0.057     2.238     2.339
   129   1 H        0.926     0.062     2.174     2.306
   130   1 H        0.926     0.056     2.241     2.341
   131   1 H        0.924     0.047     2.362     2.404
   132   1 H        0.924     0.054     2.272     2.357
   133   1 H        0.925     0.072     2.062     2.246
   134   1 H        0.924     0.053     2.283     2.363
   135   1 H        0.925     0.073     2.053     2.241
   136   1 H        0.924     0.051     2.313     2.378
   137   1 H        0.926     0.064     2.156     2.296
   138   1 H        0.926     0.064     2.153     2.295
   139   1 H        0.924     0.053     2.284     2.363
   140   1 H        0.924     0.050     2.316     2.380
   141   1 H        0.925     0.073     2.051     2.240
   142   1 H        0.924     0.050     2.316     2.380
   143   1 H        0.924     0.048     2.342     2.393
   144   1 H        0.925     0.070     2.080     2.256
   145   1 H        0.926     0.055     2.259     2.350
   146   1 H        0.926     0.048     2.344     2.394
   147   1 H        0.924     0.064     2.153     2.295
   148   1 H        0.924     0.065     2.137     2.286
   149   1 H        0.925     0.052     2.295     2.369
   150   1 H        0.925     0.047     2.355     2.400
   151   1 H        0.925     0.047     2.352     2.398
   152   1 H        0.924     0.066     2.129     2.282
   153   1 H        0.924     0.065     2.138     2.287
   154   1 H        0.925     0.047     2.352     2.399
   155   1 H        0.925     0.048     2.349     2.397
   156   1 H        0.925     0.052     2.298     2.371
   157   1 H        0.926     0.059     2.215     2.328
   158   1 H        0.926     0.059     2.212     2.326
   159   1 H        0.924     0.066     2.131     2.283
   160   1 H        0.924     0.064     2.152     2.294
   161   1 H        0.925     0.053     2.286     2.364
   162   1 H        0.925     0.048     2.349     2.397
   163   1 H        0.925     0.047     2.362     2.404
   164   1 H        0.924     0.063     2.163     2.300
   165   1 H        0.924     0.065     2.139     2.287
   166   1 H        0.925     0.049     2.337     2.391
   167   1 H        0.925     0.047     2.358     2.401
   168   1 H        0.925     0.052     2.300     2.372
   169   1 H        0.926     0.056     2.248     2.345
   170   1 H        0.926     0.060     2.195     2.317

 Mol. C6AA /au·bohr⁶  :     602455.233186
 Mol. C8AA /au·bohr⁸  :   18477840.938470
 Mol. α(0) /au        :       1239.808521


Wiberg/Mayer (AO) data.
largest (>0.10) Wiberg bond orders for each atom

 ---------------------------------------------------------------------------
     #   Z sym  total        # sym  WBO       # sym  WBO       # sym  WBO
 ---------------------------------------------------------------------------
     1   6 C    3.888 --     5 C    1.460     2 S    1.219   113 H    0.968
                             3 C    0.114
     2  16 S    2.640 --     1 C    1.219     3 C    1.141
     3   6 C    3.940 --     4 C    1.360    14 C    1.182     2 S    1.141
                             1 C    0.114
     4   6 C    3.967 --     3 C    1.360    13 C    1.227     5 C    1.170
     5   6 C    3.986 --     1 C    1.460     6 C    1.203     4 C    1.170
     6   6 C    3.970 --     7 C    1.546     5 C    1.203   114 H    0.962
     7   6 C    3.934 --     6 C    1.546    10 C    1.135     8 O    1.068
     8   8 O    2.231 --     7 C    1.068     9 C    0.979
     9   6 C    3.936 --     8 O    0.979   116 H    0.978   115 H    0.975
                           117 H    0.975
    10   6 C    3.916 --    13 C    1.532     7 C    1.135    11 O    1.064
    11   8 O    2.223 --    10 C    1.064    12 C    0.980
    12   6 C    3.938 --    11 O    0.980   119 H    0.978   118 H    0.975
                           120 H    0.973
    13   6 C    3.979 --    10 C    1.532     4 C    1.227   121 H    0.958
    14   6 C    3.891 --    18 C    1.330     3 C    1.182    15 S    1.144
    15  16 S    2.600 --    14 C    1.144    16 C    1.135
    16   6 C    3.914 --    17 C    1.309    27 C    1.220    15 S    1.135
    17   6 C    3.965 --    16 C    1.309    26 C    1.264    18 C    1.189
    18   6 C    3.980 --    14 C    1.330    19 C    1.245    17 C    1.189
    19   6 C    3.971 --    20 C    1.508    18 C    1.245   122 H    0.956
    20   6 C    3.918 --    19 C    1.508    23 C    1.177    21 O    1.046
    21   8 O    2.202 --    20 C    1.046    22 C    0.978
    22   6 C    3.938 --    21 O    0.978   125 H    0.978   124 H    0.975
                           123 H    0.973
    23   6 C    3.916 --    26 C    1.495    20 C    1.177    24 O    1.059
    24   8 O    2.201 --    23 C    1.059    25 C    0.969
    25   6 C    3.933 --   127 H    0.980   126 H    0.978   128 H    0.975
                            24 O    0.969
    26   6 C    3.974 --    23 C    1.495    17 C    1.264   129 H    0.959
    27   6 C    3.891 --    31 C    1.311    16 C    1.220    28 S    1.128
    28  16 S    2.585 --    27 C    1.128    29 C    1.113
    29   6 C    3.899 --    30 C    1.296    40 C    1.259    28 S    1.113
    30   6 C    3.964 --    29 C    1.296    39 C    1.257    31 C    1.205
    31   6 C    3.972 --    27 C    1.311    32 C    1.244    30 C    1.205
    32   6 C    3.969 --    33 C    1.508    31 C    1.244   130 H    0.957
    33   6 C    3.918 --    32 C    1.508    36 C    1.156    34 O    1.073
    34   8 O    2.231 --    33 C    1.073    35 C    0.977
    35   6 C    3.935 --   133 H    0.978    34 O    0.977   131 H    0.975
                           132 H    0.975
    36   6 C    3.915 --    39 C    1.498    33 C    1.156    37 O    1.079
    37   8 O    2.235 --    36 C    1.079    38 C    0.976
    38   6 C    3.933 --   135 H    0.978    37 O    0.976   136 H    0.975
                           134 H    0.975
    39   6 C    3.969 --    36 C    1.498    30 C    1.257   137 H    0.946
    40   6 C    3.917 --    44 C    1.293    29 C    1.259    41 S    1.129
    41  16 S    2.596 --    40 C    1.129    42 C    1.121
    42   6 C    3.879 --    43 C    1.311    53 C    1.213    41 S    1.121
    43   6 C    3.971 --    42 C    1.311    52 C    1.250    44 C    1.205
    44   6 C    3.960 --    40 C    1.293    45 C    1.257    43 C    1.205
    45   6 C    3.971 --    46 C    1.500    44 C    1.257   138 H    0.947
    46   6 C    3.909 --    45 C    1.500    49 C    1.156    47 O    1.075
    47   8 O    2.232 --    46 C    1.075    48 C    0.976
    48   6 C    3.934 --   141 H    0.978    47 O    0.976   140 H    0.975
                           139 H    0.975
    49   6 C    3.922 --    52 C    1.502    46 C    1.156    50 O    1.079
    50   8 O    2.236 --    49 C    1.079    51 C    0.975
    51   6 C    3.934 --   144 H    0.979   143 H    0.975    50 O    0.975
                           142 H    0.974
    52   6 C    3.967 --    49 C    1.502    43 C    1.250   145 H    0.954
    53   6 C    3.929 --    54 C    1.490    42 C    1.213    79 S    1.073
    54   6 C    3.928 --    53 C    1.490    55 C    1.252   146 H    0.954
    55   6 C    3.970 --    56 C    1.264    54 C    1.252    78 C    1.231
    56   6 C    3.940 --    66 C    1.366    55 C    1.264    57 C    1.080
    57   6 C    3.948 --    64 C    1.506    58 S    1.128    56 C    1.080
    58  16 S    2.612 --    59 C    1.161    57 C    1.128
    59   6 C    3.938 --    62 C    1.538    58 S    1.161    60 C    1.026
    60   6 C    3.988 --    59 C    1.026    61 C    0.994   147 H    0.971
                           148 H    0.962
    61   6 C    3.991 --    60 C    0.994   150 H    0.988   151 H    0.987
                           149 H    0.984
    62   6 C    3.902 --    59 C    1.538    64 C    1.225    63 Cl   0.969
    63  17 Cl   1.114 --    62 C    0.969
    64   6 C    3.894 --    57 C    1.506    62 C    1.225    65 Cl   0.971
    65  17 Cl   1.120 --    64 C    0.971
    66   6 C    3.948 --    56 C    1.366    67 C    1.249    82 S    1.110
    67   6 C    3.963 --    68 C    1.259    66 C    1.249    80 C    1.241
    68   6 C    3.950 --    78 C    1.384    67 C    1.259    69 C    1.074
    69   6 C    3.948 --    75 C    1.516    70 S    1.123    68 C    1.074
    70  16 S    2.600 --    71 C    1.156    69 C    1.123
    71   6 C    3.940 --    74 C    1.543    70 S    1.156    72 C    1.026
    72   6 C    3.987 --    71 C    1.026    73 C    0.994   153 H    0.969
                           152 H    0.962
    73   6 C    3.991 --    72 C    0.994   155 H    0.988   154 H    0.988
                           156 H    0.984
    74   6 C    3.904 --    71 C    1.543    75 C    1.219    77 Cl   0.972
    75   6 C    3.898 --    69 C    1.516    74 C    1.219    76 Cl   0.979
    76  17 Cl   1.135 --    75 C    0.979
    77  17 Cl   1.118 --    74 C    0.972
    78   6 C    3.942 --    68 C    1.384    55 C    1.231    79 S    1.105
    79  16 S    2.488 --    78 C    1.105    53 C    1.073
    80   6 C    3.954 --    81 C    1.530    67 C    1.241   157 H    0.955
    81   6 C    3.927 --    80 C    1.530    83 C    1.156    82 S    1.093
    82  16 S    2.513 --    66 C    1.110    81 C    1.093
    83   6 C    3.940 --    84 C    1.536    81 C    1.156   109 S    1.098
    84   6 C    3.951 --    83 C    1.536    85 C    1.232   158 H    0.955
    85   6 C    3.983 --    86 C    1.282   108 C    1.244    84 C    1.232
    86   6 C    3.953 --    96 C    1.365    85 C    1.282    87 C    1.071
    87   6 C    3.948 --    94 C    1.519    88 S    1.124    86 C    1.071
    88  16 S    2.601 --    89 C    1.156    87 C    1.124
    89   6 C    3.941 --    92 C    1.545    88 S    1.156    90 C    1.026
    90   6 C    3.987 --    89 C    1.026    91 C    0.994   160 H    0.967
                           159 H    0.964
    91   6 C    3.991 --    90 C    0.994   163 H    0.988   162 H    0.987
                           161 H    0.984
    92   6 C    3.904 --    89 C    1.545    94 C    1.217    93 Cl   0.973
    93  17 Cl   1.119 --    92 C    0.973
    94   6 C    3.892 --    87 C    1.519    92 C    1.217    95 Cl   0.979
    95  17 Cl   1.134 --    94 C    0.979
    96   6 C    3.955 --    86 C    1.365    97 C    1.258   112 S    1.111
    97   6 C    3.971 --    98 C    1.292    96 C    1.258   110 C    1.197
    98   6 C    3.964 --   108 C    1.368    97 C    1.292    99 C    1.066
    99   6 C    3.948 --   105 C    1.520   100 S    1.126    98 C    1.066
   100  16 S    2.602 --   101 C    1.155    99 C    1.126
   101   6 C    3.942 --   104 C    1.546   100 S    1.155   102 C    1.027
   102   6 C    3.988 --   101 C    1.027   103 C    0.994   164 H    0.967
                           165 H    0.964
   103   6 C    3.991 --   102 C    0.994   167 H    0.988   166 H    0.987
                           168 H    0.984
   104   6 C    3.904 --   101 C    1.546   105 C    1.216   107 Cl   0.973
   105   6 C    3.901 --    99 C    1.520   104 C    1.216   106 Cl   0.979
   106  17 Cl   1.135 --   105 C    0.979
   107  17 Cl   1.119 --   104 C    0.973
   108   6 C    3.949 --    98 C    1.368    85 C    1.244   109 S    1.112
   109  16 S    2.523 --   108 C    1.112    83 C    1.098
   110   6 C    3.980 --   111 C    1.678    97 C    1.197   169 H    0.958
   111   6 C    3.931 --   110 C    1.678   112 S    1.153   170 H    0.968
   112  16 S    2.549 --   111 C    1.153    96 C    1.111
   113   1 H    0.996 --     1 C    0.968
   114   1 H    0.996 --     6 C    0.962
   115   1 H    0.997 --     9 C    0.975
   116   1 H    0.995 --     9 C    0.978
   117   1 H    0.997 --     9 C    0.975
   118   1 H    0.997 --    12 C    0.975
   119   1 H    0.994 --    12 C    0.978
   120   1 H    0.997 --    12 C    0.973
   121   1 H    0.996 --    13 C    0.958
   122   1 H    0.997 --    19 C    0.956
   123   1 H    0.998 --    22 C    0.973
   124   1 H    0.997 --    22 C    0.975
   125   1 H    0.995 --    22 C    0.978
   126   1 H    0.995 --    25 C    0.978
   127   1 H    0.996 --    25 C    0.980
   128   1 H    0.995 --    25 C    0.975
   129   1 H    0.995 --    26 C    0.959
   130   1 H    0.996 --    32 C    0.957
   131   1 H    0.997 --    35 C    0.975
   132   1 H    0.996 --    35 C    0.975
   133   1 H    0.994 --    35 C    0.978
   134   1 H    0.996 --    38 C    0.975
   135   1 H    0.994 --    38 C    0.978
   136   1 H    0.996 --    38 C    0.975
   137   1 H    0.995 --    39 C    0.946
   138   1 H    0.995 --    45 C    0.947
   139   1 H    0.996 --    48 C    0.975
   140   1 H    0.997 --    48 C    0.975
   141   1 H    0.994 --    48 C    0.978
   142   1 H    0.997 --    51 C    0.974
   143   1 H    0.997 --    51 C    0.975
   144   1 H    0.995 --    51 C    0.979
   145   1 H    0.996 --    52 C    0.954
   146   1 H    0.997 --    54 C    0.954
   147   1 H    0.995 --    60 C    0.971
   148   1 H    0.995 --    60 C    0.962
   149   1 H    0.996 --    61 C    0.984
   150   1 H    0.998 --    61 C    0.988
   151   1 H    0.998 --    61 C    0.987
   152   1 H    0.995 --    72 C    0.962
   153   1 H    0.995 --    72 C    0.969
   154   1 H    0.998 --    73 C    0.988
   155   1 H    0.998 --    73 C    0.988
   156   1 H    0.996 --    73 C    0.984
   157   1 H    0.996 --    80 C    0.955
   158   1 H    0.996 --    84 C    0.955
   159   1 H    0.995 --    90 C    0.964
   160   1 H    0.995 --    90 C    0.967
   161   1 H    0.996 --    91 C    0.984
   162   1 H    0.998 --    91 C    0.987
   163   1 H    0.998 --    91 C    0.988
   164   1 H    0.995 --   102 C    0.967
   165   1 H    0.995 --   102 C    0.964
   166   1 H    0.998 --   103 C    0.987
   167   1 H    0.998 --   103 C    0.988
   168   1 H    0.996 --   103 C    0.984
   169   1 H    0.996 --   110 C    0.958
   170   1 H    0.996 --   111 C    0.968
 ---------------------------------------------------------------------------

Topologies differ in bond orders
Writing corrected topology to xtbtopo.mol

molecular dipole:
                 x           y           z       tot (Debye)
 q only:       -1.100      -0.610       1.304
   full:       -1.468      -0.668       2.389       7.326
molecular quadrupole (traceless):
                xx          xy          yy          xz          yz          zz
 q only:       12.507      -1.563     -89.706     -95.995     -69.422      77.200
  q+dip:        7.327      -0.489     -76.626     -79.592     -46.605      69.299
   full:        2.581       3.757     -69.119     -81.219     -46.417      66.537


           -------------------------------------------------
          | TOTAL ENERGY             -317.645862755450 Eh   |
          | GRADIENT NORM               0.015492260128 Eh/α |
          | HOMO-LUMO GAP               0.763566525037 eV   |
           -------------------------------------------------

------------------------------------------------------------------------
 * finished run on 2022/03/01 at 23:05:55.242     
------------------------------------------------------------------------
 total:
 * wall-time:     0 d,  0 h,  0 min,  1.648 sec
 *  cpu-time:     0 d,  0 h,  0 min,  7.379 sec
 * ratio c/w:     4.478 speedup
 SCF:
 * wall-time:     0 d,  0 h,  0 min,  0.715 sec
 *  cpu-time:     0 d,  0 h,  0 min,  5.709 sec
 * ratio c/w:     7.983 speedup

