      -----------------------------------------------------------      
     |                   =====================                   |     
     |                           x T B                           |     
     |                   =====================                   |     
     |                         S. Grimme                         |     
     |          Mulliken Center for Theoretical Chemistry        |     
     |                    University of Bonn                     |     
      -----------------------------------------------------------      

   * xtb version 6.4.1 (unknown) compiled by 'oda6@login1.crc.pitt.edu' on 2021-06-25

   xtb is free software: you can redistribute it and/or modify it under
   the terms of the GNU Lesser General Public License as published by
   the Free Software Foundation, either version 3 of the License, or
   (at your option) any later version.
   
   xtb is distributed in the hope that it will be useful,
   but WITHOUT ANY WARRANTY; without even the implied warranty of
   MERCHANTABILITY or FITNESS FOR A PARTICULAR PURPOSE.  See the
   GNU Lesser General Public License for more details.
   
   Cite this work as:
   * C. Bannwarth, E. Caldeweyher, S. Ehlert, A. Hansen, P. Pracht,
     J. Seibert, S. Spicher, S. Grimme, WIREs Comput. Mol. Sci., 2020, 11,
     e01493. DOI: 10.1002/wcms.1493
   
   for GFN2-xTB:
   * C. Bannwarth, S. Ehlert and S. Grimme., J. Chem. Theory Comput., 2019,
     15, 1652-1671. DOI: 10.1021/acs.jctc.8b01176
   for GFN1-xTB:
   * S. Grimme, C. Bannwarth, P. Shushkov, J. Chem. Theory Comput., 2017,
     13, 1989-2009. DOI: 10.1021/acs.jctc.7b00118
   for GFN0-xTB:
   * P. Pracht, E. Caldeweyher, S. Ehlert, S. Grimme, ChemRxiv, 2019, preprint.
     DOI: 10.26434/chemrxiv.8326202.v1
   for GFN-FF:
   * S. Spicher and S. Grimme, Angew. Chem. Int. Ed., 2020, 59, 15665-15673.
     DOI: 10.1002/anie.202004239
   
   for DFT-D4:
   * E. Caldeweyher, C. Bannwarth and S. Grimme, J. Chem. Phys., 2017,
     147, 034112. DOI: 10.1063/1.4993215
   * E. Caldeweyher, S. Ehlert, A. Hansen, H. Neugebauer, S. Spicher,
     C. Bannwarth and S. Grimme, J. Chem. Phys., 2019, 150, 154122.
     DOI: 10.1063/1.5090222
   * E. Caldeweyher, J.-M. Mewes, S. Ehlert and S. Grimme, Phys. Chem. Chem. Phys.
     2020, 22, 8499-8512. DOI: 10.1039/D0CP00502A
   
   for sTDA-xTB:
   * S. Grimme and C. Bannwarth, J. Chem. Phys., 2016, 145, 054103.
     DOI: 10.1063/1.4959605
   
   in the mass-spec context:
   * V. Asgeirsson, C. Bauer and S. Grimme, Chem. Sci., 2017, 8, 4879.
     DOI: 10.1039/c7sc00601b
   * J. Koopman and S. Grimme, ACS Omega 2019, 4, 12, 15120-15133.
     DOI: 10.1021/acsomega.9b02011
   
   for metadynamics refer to:
   * S. Grimme, J. Chem. Theory Comput., 2019, 155, 2847-2862
     DOI: 10.1021/acs.jctc.9b00143
   
   for SPH calculations refer to:
   * S. Spicher and S. Grimme, J. Chem. Theory Comput., 2021, 17, 1701-1714
     DOI: 10.1021/acs.jctc.0c01306
   
   with help from (in alphabetical order)
   P. Atkinson, C. Bannwarth, F. Bohle, G. Brandenburg, E. Caldeweyher
   M. Checinski, S. Dohm, S. Ehlert, S. Ehrlich, I. Gerasimov, J. Koopman
   C. Lavigne, S. Lehtola, F. März, M. Müller, F. Musil, H. Neugebauer
   J. Pisarek, C. Plett, P. Pracht, J. Seibert, P. Shushkov, S. Spicher
   M. Stahn, M. Steiner, T. Strunk, J. Stückrath, T. Rose, and J. Unsleber
   
 * started run on 2022/03/01 at 23:50:15.572     

           -------------------------------------------------
          |                Calculation Setup                |
           -------------------------------------------------

          program call               : /ihome/ghutchison/oda6/xtb/xtb-641/bin/xtb ../../GFN2_output/1118_904_110111.mol --sp --alpb hexane
          hostname                   : smp-n90
          coordinate file            : ../../GFN2_output/1118_904_110111.mol
          omp threads                :                     8
          number of atoms            :                    95
          number of electrons        :                   274
          charge                     :                     0
          spin                       :                   0.0
          first test random number   :      0.27592434382698

   ID    Z sym.   atoms
    1    7 N      1, 3, 6, 8, 9, 11, 14, 16, 28, 30, 33, 35, 36, 38, 41, 43,
                  44, 46, 49, 51
    2    6 C      2, 4, 5, 7, 10, 12, 13, 15, 17, 19-23, 26, 27, 29, 31, 32,
                  34, 37, 39, 40, 42, 45, 47, 48, 50
    3   16 S      18, 24, 25
    4    1 H      52-95

           -------------------------------------------------
          |                 G F N 2 - x T B                 |
           -------------------------------------------------

        Reference                      10.1021/acs.jctc.8b01176
      * Hamiltonian:
        H0-scaling (s, p, d)           1.850000    2.230000    2.230000
        zeta-weighting                 0.500000
      * Dispersion:
        s8                             2.700000
        a1                             0.520000
        a2                             5.000000
        s9                             5.000000
      * Repulsion:
        kExp                           1.500000    1.000000
        rExp                           1.000000
      * Coulomb:
        alpha                          2.000000
        third order                    shell-resolved
        anisotropic                    true
        a3                             3.000000
        a5                             4.000000
        cn-shift                       1.200000
        cn-exp                         4.000000
        max-rad                        5.000000

      * Solvation model:               ALPB
        Solvent                        hexane
        Parameter file                 internal GFN2-xTB/ALPB
        Dielectric constant                1.8800E+00
        Reference state                gsolv [1 M gas/solution]
        Free energy shift                  4.8134E-03 Eh       3.0204E+00 kcal/mol
        Temperature                        2.9815E+02 K
        Density                            6.6000E-01 kg/L
        Solvent mass                       8.6180E+01 g/mol
        Interaction kernel             P16
        Born radius scaling (c1)           1.1040E+00
        Born radii integrator          GBOBC
        Born offset                        0.0000E+00 a0       0.0000E+00 AA
        H-bond correction              false
        Ion screening                  false
        Surface tension                    1.0000E-05 Eh       1.5569E+01 dyn/cm
        Grid points                               230 per atom

          ...................................................
          :                      SETUP                      :
          :.................................................:
          :  # basis functions                 266          :
          :  # atomic orbitals                 263          :
          :  # shells                          149          :
          :  # electrons                       274          :
          :  max. iterations                   250          :
          :  Hamiltonian                  GFN2-xTB          :
          :  restarted?                      false          :
          :  GBSA solvation                   true          :
          :  PC potential                    false          :
          :  electronic temp.          300.0000000     K    :
          :  accuracy                    1.0000000          :
          :  -> integral cutoff          0.2500000E+02      :
          :  -> integral neglect         0.1000000E-07      :
          :  -> SCF convergence          0.1000000E-05 Eh   :
          :  -> wf. convergence          0.1000000E-03 e    :
          :  Broyden damping             0.4000000          :
          ...................................................

 iter      E             dE          RMSdq      gap      omega  full diag
   1   -152.1840968 -0.152184E+03  0.342E+00    2.29       0.0  T
   2   -152.2720954 -0.879986E-01  0.202E+00    2.38       1.0  T
   3   -152.2626487  0.944679E-02  0.758E-01    2.39       1.0  T
   4   -152.2801285 -0.174798E-01  0.320E-01    2.36       1.0  T
   5   -152.2849617 -0.483319E-02  0.112E-01    2.36       1.0  T
   6   -152.2853413 -0.379649E-03  0.538E-02    2.36       1.0  T
   7   -152.2854802 -0.138882E-03  0.204E-02    2.36       1.0  T
   8   -152.2854896 -0.937677E-05  0.694E-03    2.36       1.5  T
   9   -152.2854903 -0.723424E-06  0.350E-03    2.36       2.9  T
  10   -152.2854906 -0.299448E-06  0.161E-03    2.36       6.4  T
  11   -152.2854907 -0.849830E-07  0.666E-04    2.36      15.4  T
  12   -152.2854907 -0.693078E-08  0.323E-04    2.36      31.7  T

   *** convergence criteria satisfied after 12 iterations ***

         #    Occupation            Energy/Eh            Energy/eV
      -------------------------------------------------------------
         1        2.0000           -0.7330968             -19.9486
       ...           ...                  ...                  ...
       131        2.0000           -0.3668916              -9.9836
       132        2.0000           -0.3635940              -9.8939
       133        2.0000           -0.3617957              -9.8450
       134        2.0000           -0.3604005              -9.8070
       135        2.0000           -0.3589165              -9.7666
       136        2.0000           -0.3510001              -9.5512
       137        2.0000           -0.3415654              -9.2945 (HOMO)
       138                         -0.2549177              -6.9367 (LUMO)
       139                         -0.2309675              -6.2849
       140                         -0.2212374              -6.0202
       141                         -0.2120367              -5.7698
       142                         -0.2025799              -5.5125
       ...                                ...                  ...
       263                          0.7562177              20.5777
      -------------------------------------------------------------
                  HL-Gap            0.0866477 Eh            2.3578 eV
             Fermi-level           -0.2982415 Eh           -8.1156 eV

 SCC (total)                   0 d,  0 h,  0 min,  0.176 sec
 SCC setup                      ...        0 min,  0.010 sec (  5.901%)
 Dispersion                     ...        0 min,  0.002 sec (  1.189%)
 classical contributions        ...        0 min,  0.000 sec (  0.164%)
 integral evaluation            ...        0 min,  0.011 sec (  5.964%)
 iterations                     ...        0 min,  0.126 sec ( 71.261%)
 molecular gradient             ...        0 min,  0.027 sec ( 15.102%)
 printout                       ...        0 min,  0.001 sec (  0.368%)

         :::::::::::::::::::::::::::::::::::::::::::::::::::::
         ::                     SUMMARY                     ::
         :::::::::::::::::::::::::::::::::::::::::::::::::::::
         :: total energy            -150.670304108429 Eh    ::
         :: total w/o Gsasa/hb      -150.632249135171 Eh    ::
         :: gradient norm              0.007481372076 Eh/a0 ::
         :: HOMO-LUMO gap              2.357804202375 eV    ::
         ::.................................................::
         :: SCC energy              -152.285490712643 Eh    ::
         :: -> isotropic ES            0.162610265702 Eh    ::
         :: -> anisotropic ES          0.006774213645 Eh    ::
         :: -> anisotropic XC          0.120057178154 Eh    ::
         :: -> dispersion             -0.145243680373 Eh    ::
         :: -> Gsolv                  -0.053739222948 Eh    ::
         ::    -> Gelec               -0.015684249689 Eh    ::
         ::    -> Gsasa               -0.042868329078 Eh    ::
         ::    -> Ghb                  0.000000000000 Eh    ::
         ::    -> Gshift               0.004813355820 Eh    ::
         :: repulsion energy           1.607219222032 Eh    ::
         :: add. restraining           0.000000000000 Eh    ::
         :: total charge               0.000000000000 e     ::
         :::::::::::::::::::::::::::::::::::::::::::::::::::::

           -------------------------------------------------
          |                Property Printout                |
           -------------------------------------------------

    * Orbital Energies and Occupations

         #    Occupation            Energy/Eh            Energy/eV
      -------------------------------------------------------------
         1        2.0000           -0.7330968             -19.9486
       ...           ...                  ...                  ...
       125        2.0000           -0.3812438             -10.3742
       126        2.0000           -0.3782999             -10.2941
       127        2.0000           -0.3774529             -10.2710
       128        2.0000           -0.3766556             -10.2493
       129        2.0000           -0.3731157             -10.1530
       130        2.0000           -0.3687964             -10.0355
       131        2.0000           -0.3668916              -9.9836
       132        2.0000           -0.3635940              -9.8939
       133        2.0000           -0.3617957              -9.8450
       134        2.0000           -0.3604005              -9.8070
       135        2.0000           -0.3589165              -9.7666
       136        2.0000           -0.3510001              -9.5512
       137        2.0000           -0.3415654              -9.2945 (HOMO)
       138                         -0.2549177              -6.9367 (LUMO)
       139                         -0.2309675              -6.2849
       140                         -0.2212374              -6.0202
       141                         -0.2120367              -5.7698
       142                         -0.2025799              -5.5125
       143                         -0.1956538              -5.3240
       144                         -0.1515197              -4.1231
       145                         -0.1250025              -3.4015
       146                         -0.1195879              -3.2542
       147                         -0.0942353              -2.5643
       148                         -0.0692033              -1.8831
       ...                                ...                  ...
       263                          0.7562177              20.5777
      -------------------------------------------------------------
                  HL-Gap            0.0866477 Eh            2.3578 eV
             Fermi-level           -0.2982415 Eh           -8.1156 eV

     #   Z          covCN         q      C6AA      α(0)
     1   7 N        2.696    -0.296    27.614     7.805
     2   6 C        3.767     0.092    19.089     6.227
     3   7 N        2.690    -0.290    27.469     7.784
     4   6 C        3.836     0.111    18.733     6.158
     5   6 C        3.822     0.107    18.804     6.171
     6   7 N        2.809    -0.169    24.643     7.373
     7   6 C        3.770     0.077    19.327     6.265
     8   7 N        2.684    -0.300    27.720     7.820
     9   7 N        2.826    -0.152    24.275     7.318
    10   6 C        3.750     0.087    19.196     6.249
    11   7 N        2.692    -0.304    27.830     7.835
    12   6 C        3.836     0.113    18.709     6.154
    13   6 C        3.805     0.106    18.846     6.180
    14   7 N        2.793    -0.146    24.146     7.298
    15   6 C        3.748     0.090    19.145     6.241
    16   7 N        2.703    -0.297    27.639     7.808
    17   6 C        2.918     0.068    26.476     8.438
    18  16 S        2.337    -0.047   142.998    20.126
    19   6 C        2.931    -0.044    29.097     8.846
    20   6 C        3.204     0.026    26.846     8.440
    21   6 C        3.260    -0.038    27.733     8.510
    22   6 C        3.247    -0.017    27.409     8.479
    23   6 C        3.034     0.042    27.027     8.527
    24  16 S        2.176    -0.106   145.502    20.302
    25  16 S        2.283    -0.081   144.429    20.227
    26   6 C        2.936     0.080    26.224     8.399
    27   6 C        3.068    -0.091    30.205     9.012
    28   7 N        2.776    -0.173    24.734     7.386
    29   6 C        3.742     0.089    19.174     6.247
    30   7 N        2.693    -0.294    27.573     7.799
    31   6 C        3.809     0.115    18.702     6.156
    32   6 C        3.812     0.110    18.771     6.167
    33   7 N        2.816    -0.154    24.322     7.325
    34   6 C        3.746     0.078    19.342     6.273
    35   7 N        2.697    -0.292    27.534     7.793
    36   7 N        2.817    -0.157    24.384     7.334
    37   6 C        3.742     0.077    19.374     6.280
    38   7 N        2.684    -0.314    28.065     7.868
    39   6 C        3.793     0.110    18.780     6.171
    40   6 C        3.806     0.094    19.031     6.210
    41   7 N        2.815    -0.136    23.940     7.267
    42   6 C        3.733     0.076    19.402     6.287
    43   7 N        2.692    -0.301    27.749     7.824
    44   7 N        2.836    -0.150    24.235     7.312
    45   6 C        3.759     0.076    19.357     6.272
    46   7 N        2.696    -0.280    27.216     7.748
    47   6 C        3.815     0.115    18.699     6.155
    48   6 C        3.837     0.106    18.822     6.172
    49   7 N        2.692    -0.313    28.058     7.867
    50   6 C        3.764     0.098    18.998     6.213
    51   7 N        2.698    -0.295    27.585     7.800
    52   1 H        0.860     0.154     1.372     1.835
    53   1 H        0.924     0.043     2.405     2.425
    54   1 H        0.923     0.019     2.755     2.596
    55   1 H        0.860     0.162     1.324     1.802
    56   1 H        0.924     0.040     2.455     2.450
    57   1 H        0.923     0.012     2.864     2.647
    58   1 H        0.925     0.036     2.498     2.472
    59   1 H        0.924     0.049     2.339     2.392
    60   1 H        0.860     0.156     1.362     1.828
    61   1 H        0.924     0.051     2.306     2.375
    62   1 H        0.922     0.011     2.867     2.648
    63   1 H        0.860     0.164     1.311     1.794
    64   1 H        0.924     0.050     2.322     2.383
    65   1 H        0.923     0.029     2.602     2.523
    66   1 H        0.922     0.019     2.742     2.589
    67   1 H        0.924     0.059     2.213     2.326
    68   1 H        0.860     0.165     1.301     1.787
    69   1 H        0.927     0.062     2.179     2.308
    70   1 H        0.926     0.045     2.387     2.416
    71   1 H        0.923     0.040     2.454     2.450
    72   1 H        0.924     0.050     2.321     2.383
    73   1 H        0.860     0.161     1.330     1.807
    74   1 H        0.924     0.032     2.560     2.502
    75   1 H        0.924     0.030     2.589     2.516
    76   1 H        0.923     0.027     2.624     2.533
    77   1 H        0.924     0.059     2.207     2.323
    78   1 H        0.860     0.171     1.268     1.764
    79   1 H        0.924     0.038     2.473     2.459
    80   1 H        0.924     0.051     2.311     2.377
    81   1 H        0.860     0.151     1.393     1.849
    82   1 H        0.924     0.028     2.615     2.529
    83   1 H        0.925     0.042     2.423     2.434
    84   1 H        0.924     0.051     2.302     2.373
    85   1 H        0.923     0.027     2.623     2.533
    86   1 H        0.860     0.162     1.324     1.802
    87   1 H        0.925     0.051     2.306     2.375
    88   1 H        0.923     0.030     2.585     2.514
    89   1 H        0.860     0.161     1.328     1.805
    90   1 H        0.923     0.004     2.985     2.702
    91   1 H        0.924     0.026     2.639     2.541
    92   1 H        0.860     0.165     1.305     1.790
    93   1 H        0.924     0.044     2.393     2.419
    94   1 H        0.923     0.012     2.852     2.641
    95   1 H        0.860     0.152     1.389     1.846

 Mol. C6AA /au·bohr⁶  :     110015.379543
 Mol. C8AA /au·bohr⁸  :    2721825.618438
 Mol. α(0) /au        :        506.777783


Wiberg/Mayer (AO) data.
largest (>0.10) Wiberg bond orders for each atom

 ---------------------------------------------------------------------------
     #   Z sym  total        # sym  WBO       # sym  WBO       # sym  WBO
 ---------------------------------------------------------------------------
     1   7 N    3.064 --     5 C    1.013     2 C    0.990    52 H    0.952
     2   6 C    3.976 --     3 N    1.017     1 N    0.990    53 H    0.973
                            54 H    0.964
     3   7 N    3.063 --     2 C    1.017     4 C    1.005    55 H    0.944
     4   6 C    3.973 --     8 N    1.006     3 N    1.005    56 H    0.959
                             5 C    0.937
     5   6 C    3.973 --     1 N    1.013     6 N    0.975    57 H    0.957
                             4 C    0.937
     6   7 N    3.123 --     9 N    1.009     5 C    0.975     7 C    0.971
     7   6 C    3.977 --     8 N    1.007    58 H    0.972     6 N    0.971
                            59 H    0.965
     8   7 N    3.065 --     7 C    1.007     4 C    1.006    60 H    0.943
     9   7 N    3.132 --     6 N    1.009    13 C    0.983    10 C    0.962
    10   6 C    3.977 --    11 N    1.020    61 H    0.969     9 N    0.962
                            62 H    0.960
    11   7 N    3.054 --    10 C    1.020    12 C    0.978    63 H    0.946
    12   6 C    3.973 --    16 N    1.016    11 N    0.978    64 H    0.957
                            13 C    0.953
    13   6 C    3.970 --     9 N    0.983    14 N    0.971    65 H    0.956
                            12 C    0.953
    14   7 N    3.330 --    17 C    1.123    15 C    0.992    13 C    0.971
    15   6 C    3.970 --    16 N    0.997    14 N    0.992    67 H    0.964
                            66 H    0.955
    16   7 N    3.069 --    12 C    1.016    15 C    0.997    68 H    0.945
    17   6 C    3.936 --    21 C    1.454    14 N    1.123    18 S    1.112
                            19 C    0.105
    18  16 S    2.586 --    19 C    1.159    17 C    1.112
    19   6 C    3.926 --    20 C    1.579    18 S    1.159    69 H    0.967
                            17 C    0.105
    20   6 C    3.949 --    19 C    1.579    21 C    1.165    24 S    1.050
    21   6 C    3.973 --    17 C    1.454    20 C    1.165    22 C    1.119
    22   6 C    3.978 --    23 C    1.446    27 C    1.215    21 C    1.119
    23   6 C    3.901 --    22 C    1.446    25 S    1.134    24 S    1.077
    24  16 S    2.427 --    23 C    1.077    20 C    1.050
    25  16 S    2.525 --    23 C    1.134    26 C    1.083
    26   6 C    3.935 --    27 C    1.552    28 N    1.122    25 S    1.083
    27   6 C    3.971 --    26 C    1.552    22 C    1.215    70 H    0.952
    28   7 N    3.305 --    26 C    1.122    29 C    0.972    32 C    0.964
    29   6 C    3.970 --    30 N    1.020    28 N    0.972    72 H    0.971
                            71 H    0.956
    30   7 N    3.070 --    29 C    1.020    31 C    0.980    73 H    0.955
    31   6 C    3.980 --    35 N    1.016    30 N    0.980    74 H    0.964
                            32 C    0.955
    32   6 C    3.972 --    33 N    0.973    28 N    0.964    75 H    0.955
                            31 C    0.955
    33   7 N    3.140 --    36 N    1.006    34 C    0.991    32 C    0.973
    34   6 C    3.972 --    35 N    0.998    33 N    0.991    77 H    0.968
                            76 H    0.961
    35   7 N    3.069 --    31 C    1.016    34 C    0.998    78 H    0.943
    36   7 N    3.143 --    33 N    1.006    40 C    0.982    37 C    0.979
    37   6 C    3.976 --    38 N    1.002    36 N    0.979    79 H    0.972
                            80 H    0.962
    38   7 N    3.068 --    37 C    1.002    39 C    0.990    81 H    0.949
    39   6 C    3.977 --    43 N    1.005    38 N    0.990    82 H    0.959
                            40 C    0.947
    40   6 C    3.975 --    36 N    0.982    41 N    0.978    83 H    0.952
                            39 C    0.947
    41   7 N    3.151 --    44 N    1.013    42 C    0.993    40 C    0.978
    42   6 C    3.975 --    43 N    0.997    41 N    0.993    84 H    0.968
                            85 H    0.962
    43   7 N    3.059 --    39 C    1.005    42 C    0.997    86 H    0.946
    44   7 N    3.156 --    41 N    1.013    48 C    1.006    45 C    0.968
    45   6 C    3.974 --    46 N    1.018    87 H    0.973    44 N    0.968
                            88 H    0.959
    46   7 N    3.074 --    45 C    1.018    47 C    0.990    89 H    0.954
    47   6 C    3.980 --    51 N    1.009    46 N    0.990    90 H    0.965
                            48 C    0.943
    48   6 C    3.977 --    44 N    1.006    49 N    0.972    91 H    0.962
                            47 C    0.943
    49   7 N    3.055 --    50 C    1.017    48 C    0.972    92 H    0.940
    50   6 C    3.977 --    49 N    1.017    51 N    0.988    93 H    0.971
                            94 H    0.964
    51   7 N    3.066 --    47 C    1.009    50 C    0.988    95 H    0.954
    52   1 H    0.976 --     1 N    0.952
    53   1 H    0.998 --     2 C    0.973
    54   1 H    1.000 --     2 C    0.964
    55   1 H    0.974 --     3 N    0.944
    56   1 H    0.998 --     4 C    0.959
    57   1 H    1.000 --     5 C    0.957
    58   1 H    0.999 --     7 C    0.972
    59   1 H    0.998 --     7 C    0.965
    60   1 H    0.976 --     8 N    0.943
    61   1 H    0.997 --    10 C    0.969
    62   1 H    1.000 --    10 C    0.960
    63   1 H    0.973 --    11 N    0.946
    64   1 H    0.997 --    12 C    0.957
    65   1 H    0.999 --    13 C    0.956
    66   1 H    0.997 --    15 C    0.955
    67   1 H    0.996 --    15 C    0.964
    68   1 H    0.972 --    16 N    0.945
    69   1 H    0.995 --    19 C    0.967
    70   1 H    0.998 --    27 C    0.952
    71   1 H    0.998 --    29 C    0.956
    72   1 H    0.997 --    29 C    0.971
    73   1 H    0.974 --    30 N    0.955
    74   1 H    0.999 --    31 C    0.964
    75   1 H    0.999 --    32 C    0.955
    76   1 H    0.999 --    34 C    0.961
    77   1 H    0.996 --    34 C    0.968
    78   1 H    0.970 --    35 N    0.943
    79   1 H    0.998 --    37 C    0.972
    80   1 H    0.997 --    37 C    0.962
    81   1 H    0.977 --    38 N    0.949
    82   1 H    0.999 --    39 C    0.959
    83   1 H    0.998 --    40 C    0.952
    84   1 H    0.997 --    42 C    0.968
    85   1 H    0.999 --    42 C    0.962
    86   1 H    0.973 --    43 N    0.946
    87   1 H    0.997 --    45 C    0.973
    88   1 H    0.999 --    45 C    0.959
    89   1 H    0.974 --    46 N    0.954
    90   1 H    1.000 --    47 C    0.965
    91   1 H    0.999 --    48 C    0.962
    92   1 H    0.973 --    49 N    0.940
    93   1 H    0.998 --    50 C    0.971
    94   1 H    1.000 --    50 C    0.964
    95   1 H    0.977 --    51 N    0.954
 ---------------------------------------------------------------------------

Topologies differ in bond orders
Writing corrected topology to xtbtopo.mol

molecular dipole:
                 x           y           z       tot (Debye)
 q only:        1.445       0.210      -0.934
   full:        2.260      -0.257      -0.694       6.045
molecular quadrupole (traceless):
                xx          xy          yy          xz          yz          zz
 q only:        1.391     -14.745      -6.661       2.766       6.486       5.270
  q+dip:        8.545     -26.213      -3.927      -6.075       0.785      -4.618
   full:        8.672     -26.677      -3.487      -6.451       0.936      -5.185


           -------------------------------------------------
          | TOTAL ENERGY             -150.670304108429 Eh   |
          | GRADIENT NORM               0.007481372076 Eh/α |
          | HOMO-LUMO GAP               2.357804202375 eV   |
           -------------------------------------------------

------------------------------------------------------------------------
 * finished run on 2022/03/01 at 23:50:16.111     
------------------------------------------------------------------------
 total:
 * wall-time:     0 d,  0 h,  0 min,  0.539 sec
 *  cpu-time:     0 d,  0 h,  0 min,  2.815 sec
 * ratio c/w:     5.223 speedup
 SCF:
 * wall-time:     0 d,  0 h,  0 min,  0.178 sec
 *  cpu-time:     0 d,  0 h,  0 min,  1.389 sec
 * ratio c/w:     7.825 speedup

