      -----------------------------------------------------------      
     |                   =====================                   |     
     |                           x T B                           |     
     |                   =====================                   |     
     |                         S. Grimme                         |     
     |          Mulliken Center for Theoretical Chemistry        |     
     |                    University of Bonn                     |     
      -----------------------------------------------------------      

   * xtb version 6.4.1 (unknown) compiled by 'oda6@login1.crc.pitt.edu' on 2021-06-25

   xtb is free software: you can redistribute it and/or modify it under
   the terms of the GNU Lesser General Public License as published by
   the Free Software Foundation, either version 3 of the License, or
   (at your option) any later version.
   
   xtb is distributed in the hope that it will be useful,
   but WITHOUT ANY WARRANTY; without even the implied warranty of
   MERCHANTABILITY or FITNESS FOR A PARTICULAR PURPOSE.  See the
   GNU Lesser General Public License for more details.
   
   Cite this work as:
   * C. Bannwarth, E. Caldeweyher, S. Ehlert, A. Hansen, P. Pracht,
     J. Seibert, S. Spicher, S. Grimme, WIREs Comput. Mol. Sci., 2020, 11,
     e01493. DOI: 10.1002/wcms.1493
   
   for GFN2-xTB:
   * C. Bannwarth, S. Ehlert and S. Grimme., J. Chem. Theory Comput., 2019,
     15, 1652-1671. DOI: 10.1021/acs.jctc.8b01176
   for GFN1-xTB:
   * S. Grimme, C. Bannwarth, P. Shushkov, J. Chem. Theory Comput., 2017,
     13, 1989-2009. DOI: 10.1021/acs.jctc.7b00118
   for GFN0-xTB:
   * P. Pracht, E. Caldeweyher, S. Ehlert, S. Grimme, ChemRxiv, 2019, preprint.
     DOI: 10.26434/chemrxiv.8326202.v1
   for GFN-FF:
   * S. Spicher and S. Grimme, Angew. Chem. Int. Ed., 2020, 59, 15665-15673.
     DOI: 10.1002/anie.202004239
   
   for DFT-D4:
   * E. Caldeweyher, C. Bannwarth and S. Grimme, J. Chem. Phys., 2017,
     147, 034112. DOI: 10.1063/1.4993215
   * E. Caldeweyher, S. Ehlert, A. Hansen, H. Neugebauer, S. Spicher,
     C. Bannwarth and S. Grimme, J. Chem. Phys., 2019, 150, 154122.
     DOI: 10.1063/1.5090222
   * E. Caldeweyher, J.-M. Mewes, S. Ehlert and S. Grimme, Phys. Chem. Chem. Phys.
     2020, 22, 8499-8512. DOI: 10.1039/D0CP00502A
   
   for sTDA-xTB:
   * S. Grimme and C. Bannwarth, J. Chem. Phys., 2016, 145, 054103.
     DOI: 10.1063/1.4959605
   
   in the mass-spec context:
   * V. Asgeirsson, C. Bauer and S. Grimme, Chem. Sci., 2017, 8, 4879.
     DOI: 10.1039/c7sc00601b
   * J. Koopman and S. Grimme, ACS Omega 2019, 4, 12, 15120-15133.
     DOI: 10.1021/acsomega.9b02011
   
   for metadynamics refer to:
   * S. Grimme, J. Chem. Theory Comput., 2019, 155, 2847-2862
     DOI: 10.1021/acs.jctc.9b00143
   
   for SPH calculations refer to:
   * S. Spicher and S. Grimme, J. Chem. Theory Comput., 2021, 17, 1701-1714
     DOI: 10.1021/acs.jctc.0c01306
   
   with help from (in alphabetical order)
   P. Atkinson, C. Bannwarth, F. Bohle, G. Brandenburg, E. Caldeweyher
   M. Checinski, S. Dohm, S. Ehlert, S. Ehrlich, I. Gerasimov, J. Koopman
   C. Lavigne, S. Lehtola, F. März, M. Müller, F. Musil, H. Neugebauer
   J. Pisarek, C. Plett, P. Pracht, J. Seibert, P. Shushkov, S. Spicher
   M. Stahn, M. Steiner, T. Strunk, J. Stückrath, T. Rose, and J. Unsleber
   
 * started run on 2022/03/08 at 06:02:19.617     

           -------------------------------------------------
          |                Calculation Setup                |
           -------------------------------------------------

          program call               : /ihome/ghutchison/oda6/xtb/xtb-641/bin/xtb ../../GFN2_output/1143_99_100011.mol --sp --alpb hexane
          hostname                   : smp-n44
          coordinate file            : ../../GFN2_output/1143_99_100011.mol
          omp threads                :                     8
          number of atoms            :                   239
          number of electrons        :                   746
          charge                     :                     0
          spin                       :                   0.0
          first test random number   :      0.93496907664108

   ID    Z sym.   atoms
    1    6 C      1-8, 10-12, 14-21, 23-26, 28, 30, 31, 33, 35-37, 39, 41-43,
                  45, 46, 48-50, 52-54, 56, 58-60, 62, 63, 65-67, 69-71, 73,
                  75-77, 79, 80, 82-91, 93-95, 97-104, 106-109, 111, 113,
                  114, 116-123, 125-127, 129-136, 138-141, 143, 145, 146
    2   16 S      9, 22, 29, 32, 34, 51, 68, 92, 105, 112, 115, 124, 137,
                  144, 147
    3    9 F      13, 27, 96, 110, 128, 142
    4    7 N      38, 47, 55, 64, 72, 81
    5    8 O      40, 44, 57, 61, 74, 78
    6    1 H      148-239

           -------------------------------------------------
          |                 G F N 2 - x T B                 |
           -------------------------------------------------

        Reference                      10.1021/acs.jctc.8b01176
      * Hamiltonian:
        H0-scaling (s, p, d)           1.850000    2.230000    2.230000
        zeta-weighting                 0.500000
      * Dispersion:
        s8                             2.700000
        a1                             0.520000
        a2                             5.000000
        s9                             5.000000
      * Repulsion:
        kExp                           1.500000    1.000000
        rExp                           1.000000
      * Coulomb:
        alpha                          2.000000
        third order                    shell-resolved
        anisotropic                    true
        a3                             3.000000
        a5                             4.000000
        cn-shift                       1.200000
        cn-exp                         4.000000
        max-rad                        5.000000

      * Solvation model:               ALPB
        Solvent                        hexane
        Parameter file                 internal GFN2-xTB/ALPB
        Dielectric constant                1.8800E+00
        Reference state                gsolv [1 M gas/solution]
        Free energy shift                  4.8134E-03 Eh       3.0204E+00 kcal/mol
        Temperature                        2.9815E+02 K
        Density                            6.6000E-01 kg/L
        Solvent mass                       8.6180E+01 g/mol
        Interaction kernel             P16
        Born radius scaling (c1)           1.1040E+00
        Born radii integrator          GBOBC
        Born offset                        0.0000E+00 a0       0.0000E+00 AA
        H-bond correction              false
        Ion screening                  false
        Surface tension                    1.0000E-05 Eh       1.5569E+01 dyn/cm
        Grid points                               230 per atom

          ...................................................
          :                      SETUP                      :
          :.................................................:
          :  # basis functions                 770          :
          :  # atomic orbitals                 755          :
          :  # shells                          401          :
          :  # electrons                       746          :
          :  max. iterations                   250          :
          :  Hamiltonian                  GFN2-xTB          :
          :  restarted?                      false          :
          :  GBSA solvation                   true          :
          :  PC potential                    false          :
          :  electronic temp.          300.0000000     K    :
          :  accuracy                    1.0000000          :
          :  -> integral cutoff          0.2500000E+02      :
          :  -> integral neglect         0.1000000E-07      :
          :  -> SCF convergence          0.1000000E-05 Eh   :
          :  -> wf. convergence          0.1000000E-03 e    :
          :  Broyden damping             0.4000000          :
          ...................................................

 iter      E             dE          RMSdq      gap      omega  full diag
   1   -415.7323872 -0.415732E+03  0.442E+00    0.82       0.0  T
   2   -416.0519756 -0.319588E+00  0.249E+00    0.79       1.0  T
   3   -415.9906619  0.613136E-01  0.968E-01    0.82       1.0  T
   4   -416.0886388 -0.979769E-01  0.385E-01    0.80       1.0  T
   5   -416.1008682 -0.122293E-01  0.182E-01    0.79       1.0  T
   6   -416.1036709 -0.280270E-02  0.842E-02    0.79       1.0  T
   7   -416.1045284 -0.857495E-03  0.389E-02    0.79       1.0  T
   8   -416.1047134 -0.184983E-03  0.184E-02    0.79       1.0  T
   9   -416.1047264 -0.130544E-04  0.100E-02    0.79       1.0  T
  10   -416.1047298 -0.338950E-05  0.461E-03    0.79       1.4  T
  11   -416.1047321 -0.232873E-05  0.251E-03    0.79       2.6  T
  12   -416.1047329 -0.730210E-06  0.125E-03    0.79       5.2  T
  13   -416.1047329 -0.702013E-07  0.544E-04    0.79      11.9  T
  14   -416.1047330 -0.209507E-07  0.237E-04    0.79      27.3  T

   *** convergence criteria satisfied after 14 iterations ***

         #    Occupation            Energy/Eh            Energy/eV
      -------------------------------------------------------------
         1        2.0000           -0.8336627             -22.6851
       ...           ...                  ...                  ...
       367        2.0000           -0.3684454             -10.0259
       368        2.0000           -0.3678338             -10.0093
       369        2.0000           -0.3622265              -9.8567
       370        2.0000           -0.3617013              -9.8424
       371        2.0000           -0.3611073              -9.8262
       372        2.0000           -0.3604171              -9.8074
       373        2.0000           -0.3502091              -9.5297 (HOMO)
       374        0.0000           -0.3211374              -8.7386 (LUMO)
       375                         -0.3045349              -8.2868
       376                         -0.2990777              -8.1383
       377                         -0.2896369              -7.8814
       378                         -0.2794750              -7.6049
       ...                                ...                  ...
       755                          0.7115652              19.3627
      -------------------------------------------------------------
                  HL-Gap            0.0290717 Eh            0.7911 eV
             Fermi-level           -0.3356732 Eh           -9.1341 eV

 SCC (total)                   0 d,  0 h,  0 min,  1.061 sec
 SCC setup                      ...        0 min,  0.010 sec (  0.906%)
 Dispersion                     ...        0 min,  0.012 sec (  1.164%)
 classical contributions        ...        0 min,  0.001 sec (  0.056%)
 integral evaluation            ...        0 min,  0.054 sec (  5.096%)
 iterations                     ...        0 min,  0.764 sec ( 71.979%)
 molecular gradient             ...        0 min,  0.215 sec ( 20.271%)
 printout                       ...        0 min,  0.006 sec (  0.520%)

         :::::::::::::::::::::::::::::::::::::::::::::::::::::
         ::                     SUMMARY                     ::
         :::::::::::::::::::::::::::::::::::::::::::::::::::::
         :: total energy            -410.443346869202 Eh    ::
         :: total w/o Gsasa/hb      -410.330816759834 Eh    ::
         :: gradient norm              0.018664844437 Eh/a0 ::
         :: HOMO-LUMO gap              0.791081807018 eV    ::
         ::.................................................::
         :: SCC energy              -416.104732961654 Eh    ::
         :: -> isotropic ES            0.260856431369 Eh    ::
         :: -> anisotropic ES         -0.004033753350 Eh    ::
         :: -> anisotropic XC          0.156552941045 Eh    ::
         :: -> dispersion             -0.445977301134 Eh    ::
         :: -> Gsolv                  -0.144616539983 Eh    ::
         ::    -> Gelec               -0.032086430615 Eh    ::
         ::    -> Gsasa               -0.117343465188 Eh    ::
         ::    -> Ghb                  0.000000000000 Eh    ::
         ::    -> Gshift               0.004813355820 Eh    ::
         :: repulsion energy           5.635280560546 Eh    ::
         :: add. restraining           0.000000000000 Eh    ::
         :: total charge               0.000000000018 e     ::
         :::::::::::::::::::::::::::::::::::::::::::::::::::::

           -------------------------------------------------
          |                Property Printout                |
           -------------------------------------------------

    * Orbital Energies and Occupations

         #    Occupation            Energy/Eh            Energy/eV
      -------------------------------------------------------------
         1        2.0000           -0.8336627             -22.6851
       ...           ...                  ...                  ...
       361        2.0000           -0.3784365             -10.2978
       362        2.0000           -0.3760103             -10.2318
       363        2.0000           -0.3736528             -10.1676
       364        2.0000           -0.3729376             -10.1481
       365        2.0000           -0.3706772             -10.0866
       366        2.0000           -0.3696815             -10.0595
       367        2.0000           -0.3684454             -10.0259
       368        2.0000           -0.3678338             -10.0093
       369        2.0000           -0.3622265              -9.8567
       370        2.0000           -0.3617013              -9.8424
       371        2.0000           -0.3611073              -9.8262
       372        2.0000           -0.3604171              -9.8074
       373        2.0000           -0.3502091              -9.5297 (HOMO)
       374        0.0000           -0.3211374              -8.7386 (LUMO)
       375                         -0.3045349              -8.2868
       376                         -0.2990777              -8.1383
       377                         -0.2896369              -7.8814
       378                         -0.2794750              -7.6049
       379                         -0.2775819              -7.5534
       380                         -0.2670430              -7.2666
       381                         -0.2648690              -7.2075
       382                         -0.2614048              -7.1132
       383                         -0.2566397              -6.9835
       384                         -0.2560754              -6.9682
       ...                                ...                  ...
       755                          0.7115652              19.3627
      -------------------------------------------------------------
                  HL-Gap            0.0290717 Eh            0.7911 eV
             Fermi-level           -0.3356732 Eh           -9.1341 eV

     #   Z          covCN         q      C6AA      α(0)
     1   6 C        2.934    -0.010    28.263     8.719
     2   6 C        3.070    -0.050    29.174     8.856
     3   6 C        3.141    -0.005    27.891     8.642
     4   6 C        2.993    -0.004    28.118     8.698
     5   6 C        2.979     0.014    27.687     8.631
     6   6 C        2.924    -0.041    29.019     8.834
     7   6 C        2.943    -0.045    29.120     8.850
     8   6 C        2.961     0.031    27.306     8.571
     9  16 S        2.051    -0.163   147.929    20.471
    10   6 C        3.793    -0.003    20.642     6.470
    11   6 C        3.779    -0.107    22.566     6.768
    12   6 C        2.842     0.160    24.527     8.116
    13   9 F        0.787    -0.240    11.657     4.033
    14   6 C        2.925    -0.053    29.311     8.878
    15   6 C        3.008     0.023    27.475     8.598
    16   6 C        3.133    -0.001    27.836     8.637
    17   6 C        2.993    -0.004    28.118     8.698
    18   6 C        2.978     0.015    27.668     8.628
    19   6 C        2.922    -0.035    28.878     8.812
    20   6 C        2.981    -0.041    29.006     8.834
    21   6 C        2.960     0.031    27.316     8.573
    22  16 S        2.058    -0.177   148.534    20.512
    23   6 C        3.792     0.004    20.529     6.452
    24   6 C        3.791    -0.109    22.595     6.770
    25   6 C        2.803     0.159    24.546     8.117
    26   6 C        2.926    -0.052    29.290     8.875
    27   9 F        0.787    -0.248    11.747     4.049
    28   6 C        3.007     0.024    27.442     8.593
    29  16 S        2.248    -0.062   143.639    20.172
    30   6 C        3.063    -0.059    29.391     8.890
    31   6 C        3.020     0.035    27.202     8.555
    32  16 S        2.284    -0.052   143.210    20.141
    33   6 C        3.021     0.003    27.938     8.670
    34  16 S        2.633    -0.015   141.669    20.033
    35   6 C        2.967     0.013    27.730     8.638
    36   6 C        3.150     0.053    26.550     8.428
    37   6 C        3.171     0.060    26.293     8.377
    38   7 N        1.843    -0.297    28.548     7.918
    39   6 C        2.866     0.225    23.281     7.909
    40   8 O        1.705    -0.256    18.239     5.766
    41   6 C        3.702     0.079    19.411     6.300
    42   6 C        3.750    -0.114    22.741     6.801
    43   6 C        2.849     0.222    23.333     7.917
    44   8 O        1.705    -0.259    18.294     5.775
    45   6 C        3.695     0.074    19.505     6.318
    46   6 C        3.750    -0.117    22.803     6.810
    47   7 N        1.832    -0.303    28.701     7.939
    48   6 C        2.914    -0.039    28.977     8.827
    49   6 C        2.908    -0.038    28.952     8.823
    50   6 C        2.961     0.013    27.722     8.636
    51  16 S        2.678    -0.030   142.313    20.078
    52   6 C        2.969     0.014    27.707     8.634
    53   6 C        3.153     0.056    26.462     8.413
    54   6 C        3.178     0.055    26.371     8.385
    55   7 N        1.834    -0.305    28.751     7.946
    56   6 C        2.857     0.219    23.389     7.927
    57   8 O        1.706    -0.259    18.285     5.773
    58   6 C        3.701     0.083    19.358     6.292
    59   6 C        3.751    -0.116    22.785     6.807
    60   6 C        2.849     0.222    23.328     7.916
    61   8 O        1.705    -0.253    18.199     5.760
    62   6 C        3.696     0.075    19.492     6.316
    63   6 C        3.751    -0.114    22.747     6.802
    64   7 N        1.885    -0.294    28.471     7.910
    65   6 C        2.952    -0.039    28.971     8.828
    66   6 C        2.921    -0.036    28.887     8.814
    67   6 C        2.970     0.015    27.672     8.629
    68  16 S        2.558    -0.012   141.546    20.024
    69   6 C        2.975     0.007    27.867     8.659
    70   6 C        3.160     0.054    26.478     8.412
    71   6 C        3.170     0.053    26.457     8.403
    72   7 N        1.834    -0.296    28.515     7.913
    73   6 C        2.862     0.218    23.408     7.930
    74   8 O        1.705    -0.261    18.330     5.780
    75   6 C        3.703     0.077    19.443     6.305
    76   6 C        3.750    -0.119    22.850     6.817
    77   6 C        2.862     0.220    23.377     7.925
    78   8 O        1.705    -0.260    18.313     5.778
    79   6 C        3.704     0.076    19.452     6.306
    80   6 C        3.750    -0.118    22.823     6.813
    81   7 N        1.834    -0.302    28.670     7.935
    82   6 C        2.921    -0.030    28.759     8.794
    83   6 C        2.928    -0.047    29.177     8.858
    84   6 C        2.987     0.040    27.087     8.537
    85   6 C        3.069    -0.057    29.345     8.882
    86   6 C        3.144    -0.004    27.874     8.638
    87   6 C        2.997    -0.006    28.170     8.706
    88   6 C        2.979     0.017    27.622     8.621
    89   6 C        2.922    -0.037    28.929     8.820
    90   6 C        2.969    -0.037    28.917     8.821
    91   6 C        2.960     0.034    27.247     8.562
    92  16 S        2.043    -0.194   149.307    20.566
    93   6 C        3.793    -0.000    20.597     6.463
    94   6 C        3.781    -0.103    22.496     6.757
    95   6 C        2.807     0.163    24.471     8.104
    96   9 F        0.787    -0.241    11.663     4.034
    97   6 C        2.925    -0.054    29.338     8.883
    98   6 C        3.009     0.026    27.406     8.587
    99   6 C        3.141    -0.003    27.855     8.637
   100   6 C        2.995    -0.003    28.090     8.694
   101   6 C        2.979     0.017    27.634     8.623
   102   6 C        2.924    -0.041    29.013     8.833
   103   6 C        2.969    -0.039    28.973     8.829
   104   6 C        2.961     0.036    27.197     8.554
   105  16 S        2.039    -0.190   149.122    20.553
   106   6 C        3.793     0.001    20.574     6.459
   107   6 C        3.777    -0.100    22.428     6.747
   108   6 C        2.808     0.166    24.414     8.095
   109   6 C        2.925    -0.053    29.313     8.879
   110   9 F        0.787    -0.239    11.643     4.031
   111   6 C        3.005     0.024    27.443     8.593
   112  16 S        2.439    -0.074   144.143    20.207
   113   6 C        3.063    -0.052    29.223     8.865
   114   6 C        3.008     0.030    27.324     8.575
   115  16 S        2.305    -0.081   144.408    20.225
   116   6 C        3.036     0.031    27.285     8.568
   117   6 C        3.076    -0.056    29.294     8.874
   118   6 C        3.138    -0.004    27.884     8.642
   119   6 C        2.992    -0.006    28.172     8.707
   120   6 C        2.978     0.017    27.621     8.621
   121   6 C        2.924    -0.042    29.051     8.839
   122   6 C        2.964    -0.036    28.886     8.816
   123   6 C        2.961     0.037    27.174     8.550
   124  16 S        2.041    -0.206   149.831    20.602
   125   6 C        3.793     0.004    20.524     6.452
   126   6 C        3.781    -0.100    22.439     6.748
   127   6 C        2.810     0.168    24.375     8.089
   128   9 F        0.787    -0.235    11.605     4.024
   129   6 C        2.922    -0.052    29.298     8.876
   130   6 C        3.007     0.022    27.498     8.602
   131   6 C        3.147    -0.005    27.882     8.638
   132   6 C        2.989    -0.006    28.166     8.706
   133   6 C        2.979     0.017    27.624     8.621
   134   6 C        2.924    -0.038    28.933     8.821
   135   6 C        2.966    -0.035    28.856     8.811
   136   6 C        2.961     0.038    27.154     8.547
   137  16 S        2.043    -0.206   149.827    20.602
   138   6 C        3.793     0.006    20.492     6.446
   139   6 C        3.783    -0.103    22.486     6.755
   140   6 C        2.810     0.169    24.357     8.086
   141   6 C        2.921    -0.051    29.279     8.873
   142   9 F        0.787    -0.235    11.598     4.023
   143   6 C        3.007     0.022    27.506     8.603
   144  16 S        2.254    -0.080   144.376    20.223
   145   6 C        3.072    -0.048    29.102     8.845
   146   6 C        2.935    -0.007    28.202     8.709
   147  16 S        2.252    -0.045   142.907    20.120
   148   1 H        0.926     0.054     2.272     2.357
   149   1 H        0.926     0.048     2.344     2.394
   150   1 H        0.926     0.054     2.267     2.355
   151   1 H        0.926     0.055     2.253     2.347
   152   1 H        0.925     0.052     2.289     2.366
   153   1 H        0.925     0.061     2.191     2.315
   154   1 H        0.925     0.053     2.284     2.364
   155   1 H        0.925     0.049     2.330     2.387
   156   1 H        0.925     0.048     2.345     2.395
   157   1 H        0.926     0.078     1.997     2.210
   158   1 H        0.926     0.061     2.190     2.314
   159   1 H        0.926     0.075     2.032     2.229
   160   1 H        0.925     0.057     2.233     2.337
   161   1 H        0.925     0.049     2.337     2.390
   162   1 H        0.925     0.054     2.267     2.355
   163   1 H        0.925     0.048     2.340     2.392
   164   1 H        0.925     0.051     2.305     2.374
   165   1 H        0.926     0.064     2.148     2.292
   166   1 H        0.926     0.051     2.311     2.377
   167   1 H        0.924     0.068     2.112     2.273
   168   1 H        0.924     0.061     2.186     2.312
   169   1 H        0.925     0.057     2.230     2.335
   170   1 H        0.925     0.056     2.251     2.346
   171   1 H        0.925     0.055     2.261     2.351
   172   1 H        0.924     0.068     2.107     2.270
   173   1 H        0.924     0.061     2.185     2.312
   174   1 H        0.925     0.057     2.234     2.337
   175   1 H        0.925     0.053     2.282     2.363
   176   1 H        0.925     0.060     2.204     2.322
   177   1 H        0.925     0.066     2.128     2.281
   178   1 H        0.925     0.070     2.089     2.260
   179   1 H        0.924     0.061     2.186     2.312
   180   1 H        0.924     0.050     2.317     2.380
   181   1 H        0.925     0.062     2.178     2.308
   182   1 H        0.925     0.062     2.181     2.309
   183   1 H        0.925     0.058     2.224     2.332
   184   1 H        0.924     0.061     2.188     2.313
   185   1 H        0.924     0.064     2.154     2.295
   186   1 H        0.925     0.062     2.180     2.309
   187   1 H        0.925     0.055     2.260     2.351
   188   1 H        0.925     0.053     2.280     2.361
   189   1 H        0.925     0.059     2.208     2.324
   190   1 H        0.925     0.078     2.001     2.212
   191   1 H        0.924     0.058     2.225     2.333
   192   1 H        0.924     0.065     2.145     2.290
   193   1 H        0.925     0.066     2.130     2.282
   194   1 H        0.925     0.058     2.227     2.334
   195   1 H        0.925     0.053     2.285     2.364
   196   1 H        0.924     0.060     2.200     2.320
   197   1 H        0.924     0.066     2.126     2.280
   198   1 H        0.925     0.057     2.234     2.338
   199   1 H        0.925     0.054     2.267     2.355
   200   1 H        0.925     0.058     2.223     2.332
   201   1 H        0.925     0.067     2.122     2.278
   202   1 H        0.925     0.055     2.261     2.351
   203   1 H        0.926     0.044     2.399     2.422
   204   1 H        0.926     0.058     2.226     2.333
   205   1 H        0.926     0.065     2.138     2.287
   206   1 H        0.925     0.058     2.227     2.334
   207   1 H        0.925     0.060     2.196     2.317
   208   1 H        0.925     0.051     2.306     2.375
   209   1 H        0.925     0.049     2.331     2.387
   210   1 H        0.925     0.041     2.438     2.442
   211   1 H        0.926     0.079     1.988     2.205
   212   1 H        0.926     0.065     2.147     2.291
   213   1 H        0.926     0.071     2.079     2.255
   214   1 H        0.925     0.059     2.211     2.326
   215   1 H        0.925     0.057     2.232     2.336
   216   1 H        0.925     0.044     2.392     2.419
   217   1 H        0.925     0.036     2.505     2.475
   218   1 H        0.925     0.058     2.227     2.334
   219   1 H        0.926     0.073     2.053     2.241
   220   1 H        0.926     0.058     2.221     2.331
   221   1 H        0.926     0.060     2.200     2.319
   222   1 H        0.926     0.069     2.095     2.263
   223   1 H        0.926     0.069     2.096     2.264
   224   1 H        0.925     0.053     2.280     2.361
   225   1 H        0.925     0.056     2.247     2.344
   226   1 H        0.925     0.036     2.496     2.471
   227   1 H        0.925     0.048     2.350     2.397
   228   1 H        0.925     0.057     2.234     2.337
   229   1 H        0.926     0.069     2.095     2.263
   230   1 H        0.926     0.056     2.251     2.346
   231   1 H        0.926     0.067     2.116     2.275
   232   1 H        0.925     0.053     2.278     2.360
   233   1 H        0.925     0.055     2.254     2.348
   234   1 H        0.925     0.048     2.339     2.392
   235   1 H        0.925     0.048     2.347     2.396
   236   1 H        0.925     0.050     2.326     2.385
   237   1 H        0.926     0.072     2.067     2.248
   238   1 H        0.926     0.049     2.330     2.387
   239   1 H        0.926     0.057     2.228     2.334

 Mol. C6AA /au·bohr⁶  :     954733.739618
 Mol. C8AA /au·bohr⁸  :   27228203.293601
 Mol. α(0) /au        :       1557.607741


Wiberg/Mayer (AO) data.
largest (>0.10) Wiberg bond orders for each atom

 ---------------------------------------------------------------------------
     #   Z sym  total        # sym  WBO       # sym  WBO       # sym  WBO
 ---------------------------------------------------------------------------
     1   6 C    3.927 --     2 C    1.678    29 S    1.150   148 H    0.969
     2   6 C    3.980 --     1 C    1.678     3 C    1.196   149 H    0.960
                            29 S    0.100
     3   6 C    3.964 --     4 C    1.296    28 C    1.259     2 C    1.196
     4   6 C    3.979 --    15 C    1.380     3 C    1.296     5 C    1.050
     5   6 C    3.986 --     6 C    1.381    14 C    1.366     4 C    1.050
     6   6 C    3.987 --     7 C    1.452     5 C    1.381   150 H    0.965
     7   6 C    3.987 --     6 C    1.452     8 C    1.382   151 H    0.962
     8   6 C    3.961 --     7 C    1.382    12 C    1.331     9 S    1.056
     9  16 S    2.257 --     8 C    1.056    10 C    0.980
    10   6 C    3.973 --    11 C    1.026     9 S    0.980   152 H    0.970
                           153 H    0.969
    11   6 C    3.992 --    10 C    1.026   154 H    0.986   156 H    0.983
                           155 H    0.978
    12   6 C    3.875 --    14 C    1.429     8 C    1.331    13 F    0.943
    13   9 F    1.077 --    12 C    0.943
    14   6 C    3.981 --    12 C    1.429     5 C    1.366   157 H    0.954
    15   6 C    3.940 --     4 C    1.380    16 C    1.243    32 S    1.099
    16   6 C    3.980 --    17 C    1.283    15 C    1.243    30 C    1.238
    17   6 C    3.952 --    28 C    1.385    16 C    1.283    18 C    1.040
    18   6 C    3.985 --    26 C    1.386    19 C    1.372    17 C    1.040
    19   6 C    3.985 --    20 C    1.468    18 C    1.372   158 H    0.962
    20   6 C    3.984 --    19 C    1.468    21 C    1.373   159 H    0.957
                            26 C    0.101
    21   6 C    3.961 --    20 C    1.373    25 C    1.352    22 S    1.050
    22  16 S    2.226 --    21 C    1.050    23 C    0.968
    23   6 C    3.969 --    24 C    1.026   161 H    0.977   160 H    0.976
                            22 S    0.968
    24   6 C    3.992 --    23 C    1.026   164 H    0.983   162 H    0.983
                           163 H    0.978
    25   6 C    3.872 --    26 C    1.411    21 C    1.352    27 F    0.938
    26   6 C    3.981 --    25 C    1.411    18 C    1.386   165 H    0.962
                            20 C    0.101
    27   9 F    1.065 --    25 C    0.938
    28   6 C    3.950 --    17 C    1.385     3 C    1.259    29 S    1.097
    29  16 S    2.526 --     1 C    1.150    28 C    1.097     2 C    0.100
    30   6 C    3.929 --    31 C    1.507    16 C    1.238   166 H    0.956
    31   6 C    3.944 --    30 C    1.507    33 C    1.196    32 S    1.085
    32  16 S    2.544 --    15 C    1.099    31 C    1.085
    33   6 C    3.898 --    37 C    1.325    31 C    1.196    34 S    1.135
    34  16 S    2.633 --    33 C    1.135    35 C    1.124
    35   6 C    3.921 --    36 C    1.298    48 C    1.269    34 S    1.124
    36   6 C    3.944 --    35 C    1.298    47 N    1.219    37 C    1.198
    37   6 C    3.958 --    33 C    1.325    38 N    1.212    36 C    1.198
    38   7 N    3.063 --    39 C    1.508    37 C    1.212    40 O    0.115
    39   6 C    3.927 --    38 N    1.508    40 O    1.145    43 C    1.067
    40   8 O    2.290 --    39 C    1.145    41 C    0.929    38 N    0.115
    41   6 C    3.914 --    42 C    1.011   167 H    0.970   168 H    0.965
                            40 O    0.929
    42   6 C    3.988 --    41 C    1.011   171 H    0.986   170 H    0.983
                           169 H    0.980
    43   6 C    3.919 --    47 N    1.511    44 O    1.137    39 C    1.067
    44   8 O    2.281 --    43 C    1.137    45 C    0.930    47 N    0.114
    45   6 C    3.914 --    46 C    1.011   172 H    0.971   173 H    0.955
                            44 O    0.930
    46   6 C    3.990 --    45 C    1.011   175 H    0.986   174 H    0.983
                           176 H    0.982
    47   7 N    3.036 --    43 C    1.511    36 C    1.219    44 O    0.114
    48   6 C    3.931 --    49 C    1.544    35 C    1.269   177 H    0.948
    49   6 C    3.940 --    48 C    1.544    50 C    1.271   178 H    0.948
    50   6 C    3.914 --    54 C    1.287    49 C    1.271    51 S    1.128
    51  16 S    2.623 --    50 C    1.128    52 C    1.120
    52   6 C    3.901 --    53 C    1.312    65 C    1.234    51 S    1.120
    53   6 C    3.962 --    52 C    1.312    64 N    1.211    54 C    1.204
    54   6 C    3.947 --    50 C    1.287    55 N    1.226    53 C    1.204
    55   7 N    3.035 --    56 C    1.504    54 C    1.226    57 O    0.114
    56   6 C    3.921 --    55 N    1.504    57 O    1.136    60 C    1.077
    57   8 O    2.278 --    56 C    1.136    58 C    0.929    55 N    0.114
    58   6 C    3.916 --    59 C    1.017   179 H    0.967   180 H    0.961
                            57 O    0.929
    59   6 C    3.989 --    58 C    1.017   183 H    0.986   181 H    0.984
                           182 H    0.982
    60   6 C    3.938 --    64 N    1.499    61 O    1.141    56 C    1.077
    61   8 O    2.290 --    60 C    1.141    62 C    0.930    64 N    0.113
    62   6 C    3.916 --    63 C    1.012   184 H    0.967   185 H    0.966
                            61 O    0.930
    63   6 C    3.988 --    62 C    1.012   186 H    0.985   187 H    0.983
                           188 H    0.982
    64   7 N    3.068 --    60 C    1.499    53 C    1.211    61 O    0.113
    65   6 C    3.946 --    66 C    1.580    52 C    1.234   189 H    0.956
    66   6 C    3.943 --    65 C    1.580    67 C    1.248   190 H    0.946
    67   6 C    3.935 --    71 C    1.292    66 C    1.248    68 S    1.152
    68  16 S    2.738 --    67 C    1.152    69 C    1.152
    69   6 C    3.907 --    70 C    1.323    82 C    1.189    68 S    1.152
    70   6 C    3.967 --    69 C    1.323    81 N    1.216    71 C    1.198
    71   6 C    3.950 --    67 C    1.292    72 N    1.230    70 C    1.198
    72   7 N    3.039 --    73 C    1.506    71 C    1.230    74 O    0.111
    73   6 C    3.918 --    72 N    1.506    74 O    1.129    77 C    1.081
    74   8 O    2.275 --    73 C    1.129    75 C    0.934    72 N    0.111
    75   6 C    3.919 --    76 C    1.011   192 H    0.971   191 H    0.966
                            74 O    0.934
    76   6 C    3.988 --    75 C    1.011   195 H    0.986   194 H    0.981
                           193 H    0.980
    77   6 C    3.929 --    81 N    1.513    78 O    1.130    73 C    1.081
    78   8 O    2.279 --    77 C    1.130    79 C    0.935    81 N    0.112
    79   6 C    3.919 --    80 C    1.011   197 H    0.971   196 H    0.967
                            78 O    0.935
    80   6 C    3.989 --    79 C    1.011   199 H    0.986   200 H    0.984
                           198 H    0.983
    81   7 N    3.032 --    77 C    1.513    70 C    1.216    78 O    0.112
    82   6 C    3.973 --    83 C    1.707    69 C    1.189   201 H    0.953
    83   6 C    3.927 --    82 C    1.707    84 C    1.096   202 H    0.952
    84   6 C    3.934 --    85 C    1.606    83 C    1.096   112 S    1.070
    85   6 C    3.956 --    84 C    1.606    86 C    1.202   203 H    0.960
    86   6 C    3.970 --    87 C    1.299   111 C    1.253    85 C    1.202
    87   6 C    3.967 --    98 C    1.370    86 C    1.299    88 C    1.048
    88   6 C    3.983 --    97 C    1.378    89 C    1.375    87 C    1.048
    89   6 C    3.985 --    90 C    1.461    88 C    1.375   204 H    0.966
    90   6 C    3.986 --    89 C    1.461    91 C    1.385   205 H    0.966
                            97 C    0.100
    91   6 C    3.962 --    90 C    1.385    95 C    1.355    92 S    1.030
    92  16 S    2.176 --    91 C    1.030    93 C    0.969
    93   6 C    3.967 --    94 C    1.027   207 H    0.972   206 H    0.970
                            92 S    0.969
    94   6 C    3.993 --    93 C    1.027   208 H    0.986   210 H    0.985
                           209 H    0.978
    95   6 C    3.877 --    97 C    1.412    91 C    1.355    96 F    0.942
    96   9 F    1.074 --    95 C    0.942
    97   6 C    3.980 --    95 C    1.412    88 C    1.378   211 H    0.953
                            90 C    0.100
    98   6 C    3.946 --    87 C    1.370    99 C    1.256   115 S    1.100
    99   6 C    3.975 --   100 C    1.281    98 C    1.256   113 C    1.220
   100   6 C    3.961 --   111 C    1.377    99 C    1.281   101 C    1.059
   101   6 C    3.987 --   109 C    1.376   102 C    1.367   100 C    1.059
   102   6 C    3.982 --   103 C    1.465   101 C    1.367   212 H    0.956
   103   6 C    3.985 --   102 C    1.465   104 C    1.384   213 H    0.959
   104   6 C    3.960 --   103 C    1.384   108 C    1.353   105 S    1.032
   105  16 S    2.183 --   104 C    1.032   106 C    0.968
   106   6 C    3.971 --   107 C    1.028   214 H    0.973   215 H    0.970
                           105 S    0.968
   107   6 C    3.993 --   106 C    1.028   217 H    0.985   218 H    0.981
                           216 H    0.977
   108   6 C    3.876 --   109 C    1.414   104 C    1.353   110 F    0.946
   109   6 C    3.979 --   108 C    1.414   101 C    1.376   219 H    0.956
   110   9 F    1.078 --   108 C    0.946
   111   6 C    3.950 --   100 C    1.377    86 C    1.253   112 S    1.100
   112  16 S    2.527 --   111 C    1.100    84 C    1.070
   113   6 C    3.956 --   114 C    1.557    99 C    1.220   220 H    0.956
   114   6 C    3.936 --   113 C    1.557   116 C    1.153   115 S    1.075
   115  16 S    2.506 --    98 C    1.100   114 C    1.075
   116   6 C    3.939 --   117 C    1.551   114 C    1.153   144 S    1.083
   117   6 C    3.955 --   116 C    1.551   118 C    1.224   221 H    0.948
   118   6 C    3.983 --   119 C    1.289   143 C    1.248   117 C    1.224
   119   6 C    3.963 --   130 C    1.380   118 C    1.289   120 C    1.046
   120   6 C    3.987 --   129 C    1.389   121 C    1.368   119 C    1.046
   121   6 C    3.984 --   122 C    1.455   120 C    1.368   222 H    0.953
   122   6 C    3.986 --   121 C    1.455   123 C    1.394   223 H    0.965
                           129 C    0.101
   123   6 C    3.963 --   122 C    1.394   127 C    1.361   124 S    1.016
   124  16 S    2.136 --   123 C    1.016   125 C    0.965
   125   6 C    3.971 --   126 C    1.028   224 H    0.975   225 H    0.971
                           124 S    0.965
   126   6 C    3.994 --   125 C    1.028   226 H    0.986   228 H    0.985
                           227 H    0.978
   127   6 C    3.878 --   129 C    1.407   123 C    1.361   128 F    0.951
   128   9 F    1.083 --   127 C    0.951
   129   6 C    3.981 --   127 C    1.407   120 C    1.389   229 H    0.962
                           122 C    0.101
   130   6 C    3.954 --   119 C    1.380   131 C    1.258   147 S    1.105
   131   6 C    3.971 --   132 C    1.300   130 C    1.258   145 C    1.194
   132   6 C    3.980 --   143 C    1.384   131 C    1.300   133 C    1.038
   133   6 C    3.982 --   141 C    1.387   134 C    1.378   132 C    1.038
   134   6 C    3.987 --   135 C    1.457   133 C    1.378   230 H    0.966
   135   6 C    3.986 --   134 C    1.457   136 C    1.393   231 H    0.966
                           141 C    0.102
   136   6 C    3.965 --   135 C    1.393   140 C    1.361   137 S    1.019
   137  16 S    2.145 --   136 C    1.019   138 C    0.965
   138   6 C    3.966 --   139 C    1.028   233 H    0.972   232 H    0.971
                           137 S    0.965
   139   6 C    3.993 --   138 C    1.028   234 H    0.986   235 H    0.985
                           236 H    0.977
   140   6 C    3.879 --   141 C    1.409   136 C    1.361   142 F    0.949
   141   6 C    3.982 --   140 C    1.409   133 C    1.387   237 H    0.956
                           135 C    0.102
   142   9 F    1.084 --   140 C    0.949
   143   6 C    3.946 --   132 C    1.384   118 C    1.248   144 S    1.093
   144  16 S    2.485 --   143 C    1.093   116 C    1.083
   145   6 C    3.981 --   146 C    1.682   131 C    1.194   238 H    0.960
   146   6 C    3.932 --   145 C    1.682   147 S    1.150   239 H    0.968
   147  16 S    2.534 --   146 C    1.150   130 C    1.105
   148   1 H    0.996 --     1 C    0.969
   149   1 H    0.997 --     2 C    0.960
   150   1 H    0.997 --     6 C    0.965
   151   1 H    0.996 --     7 C    0.962
   152   1 H    0.997 --    10 C    0.970
   153   1 H    0.996 --    10 C    0.969
   154   1 H    0.997 --    11 C    0.986
   155   1 H    0.997 --    11 C    0.978
   156   1 H    0.998 --    11 C    0.983
   157   1 H    0.993 --    14 C    0.954
   158   1 H    0.996 --    19 C    0.962
   159   1 H    0.994 --    20 C    0.957
   160   1 H    0.996 --    23 C    0.976
   161   1 H    0.997 --    23 C    0.977
   162   1 H    0.997 --    24 C    0.983
   163   1 H    0.997 --    24 C    0.978
   164   1 H    0.997 --    24 C    0.983
   165   1 H    0.996 --    26 C    0.962
   166   1 H    0.997 --    30 C    0.956
   167   1 H    0.995 --    41 C    0.970
   168   1 H    0.996 --    41 C    0.965
   169   1 H    0.996 --    42 C    0.980
   170   1 H    0.997 --    42 C    0.983
   171   1 H    0.997 --    42 C    0.986
   172   1 H    0.995 --    45 C    0.971
   173   1 H    0.995 --    45 C    0.955
   174   1 H    0.997 --    46 C    0.983
   175   1 H    0.997 --    46 C    0.986
   176   1 H    0.996 --    46 C    0.982
   177   1 H    0.995 --    48 C    0.948
   178   1 H    0.994 --    49 C    0.948
   179   1 H    0.996 --    58 C    0.967
   180   1 H    0.996 --    58 C    0.961
   181   1 H    0.996 --    59 C    0.984
   182   1 H    0.995 --    59 C    0.982
   183   1 H    0.996 --    59 C    0.986
   184   1 H    0.993 --    62 C    0.967
   185   1 H    0.996 --    62 C    0.966
   186   1 H    0.996 --    63 C    0.985
   187   1 H    0.996 --    63 C    0.983
   188   1 H    0.997 --    63 C    0.982
   189   1 H    0.993 --    65 C    0.956
   190   1 H    0.992 --    66 C    0.946
   191   1 H    0.996 --    75 C    0.966
   192   1 H    0.995 --    75 C    0.971
   193   1 H    0.996 --    76 C    0.980
   194   1 H    0.996 --    76 C    0.981
   195   1 H    0.997 --    76 C    0.986
   196   1 H    0.996 --    79 C    0.967
   197   1 H    0.995 --    79 C    0.971
   198   1 H    0.996 --    80 C    0.983
   199   1 H    0.997 --    80 C    0.986
   200   1 H    0.997 --    80 C    0.984
   201   1 H    0.993 --    82 C    0.953
   202   1 H    0.993 --    83 C    0.952
   203   1 H    0.997 --    85 C    0.960
   204   1 H    0.996 --    89 C    0.966
   205   1 H    0.995 --    90 C    0.966
   206   1 H    0.996 --    93 C    0.970
   207   1 H    0.996 --    93 C    0.972
   208   1 H    0.997 --    94 C    0.986
   209   1 H    0.997 --    94 C    0.978
   210   1 H    0.998 --    94 C    0.985
   211   1 H    0.994 --    97 C    0.953
   212   1 H    0.996 --   102 C    0.956
   213   1 H    0.994 --   103 C    0.959
   214   1 H    0.996 --   106 C    0.973
   215   1 H    0.996 --   106 C    0.970
   216   1 H    0.998 --   107 C    0.977
   217   1 H    0.999 --   107 C    0.985
   218   1 H    0.997 --   107 C    0.981
   219   1 H    0.995 --   109 C    0.956
   220   1 H    0.996 --   113 C    0.956
   221   1 H    0.996 --   117 C    0.948
   222   1 H    0.995 --   121 C    0.953
   223   1 H    0.994 --   122 C    0.965
   224   1 H    0.997 --   125 C    0.975
   225   1 H    0.996 --   125 C    0.971
   226   1 H    0.999 --   126 C    0.986
   227   1 H    0.997 --   126 C    0.978
   228   1 H    0.997 --   126 C    0.985
   229   1 H    0.995 --   129 C    0.962
   230   1 H    0.997 --   134 C    0.966
   231   1 H    0.995 --   135 C    0.966
   232   1 H    0.997 --   138 C    0.971
   233   1 H    0.997 --   138 C    0.972
   234   1 H    0.998 --   139 C    0.986
   235   1 H    0.998 --   139 C    0.985
   236   1 H    0.997 --   139 C    0.977
   237   1 H    0.995 --   141 C    0.956
   238   1 H    0.997 --   145 C    0.960
   239   1 H    0.996 --   146 C    0.968
 ---------------------------------------------------------------------------

Topologies differ in bond orders
Writing corrected topology to xtbtopo.mol

molecular dipole:
                 x           y           z       tot (Debye)
 q only:       -2.519      -0.841       1.276
   full:       -3.184      -0.839       1.807       9.546
molecular quadrupole (traceless):
                xx          xy          yy          xz          yz          zz
 q only:       -2.826      29.675     -64.535      68.476      41.369      67.361
  q+dip:       -0.357      26.364     -83.795      72.083      53.348      84.152
   full:        1.601      32.637     -88.279      64.379      49.077      86.678


           -------------------------------------------------
          | TOTAL ENERGY             -410.443346869202 Eh   |
          | GRADIENT NORM               0.018664844437 Eh/α |
          | HOMO-LUMO GAP               0.791081807018 eV   |
           -------------------------------------------------

------------------------------------------------------------------------
 * finished run on 2022/03/08 at 06:02:20.801     
------------------------------------------------------------------------
 total:
 * wall-time:     0 d,  0 h,  0 min,  1.184 sec
 *  cpu-time:     0 d,  0 h,  0 min,  9.376 sec
 * ratio c/w:     7.916 speedup
 SCF:
 * wall-time:     0 d,  0 h,  0 min,  1.065 sec
 *  cpu-time:     0 d,  0 h,  0 min,  8.505 sec
 * ratio c/w:     7.986 speedup

