      -----------------------------------------------------------      
     |                   =====================                   |     
     |                           x T B                           |     
     |                   =====================                   |     
     |                         S. Grimme                         |     
     |          Mulliken Center for Theoretical Chemistry        |     
     |                    University of Bonn                     |     
      -----------------------------------------------------------      

   * xtb version 6.4.1 (unknown) compiled by 'oda6@login1.crc.pitt.edu' on 2021-06-25

   xtb is free software: you can redistribute it and/or modify it under
   the terms of the GNU Lesser General Public License as published by
   the Free Software Foundation, either version 3 of the License, or
   (at your option) any later version.
   
   xtb is distributed in the hope that it will be useful,
   but WITHOUT ANY WARRANTY; without even the implied warranty of
   MERCHANTABILITY or FITNESS FOR A PARTICULAR PURPOSE.  See the
   GNU Lesser General Public License for more details.
   
   Cite this work as:
   * C. Bannwarth, E. Caldeweyher, S. Ehlert, A. Hansen, P. Pracht,
     J. Seibert, S. Spicher, S. Grimme, WIREs Comput. Mol. Sci., 2020, 11,
     e01493. DOI: 10.1002/wcms.1493
   
   for GFN2-xTB:
   * C. Bannwarth, S. Ehlert and S. Grimme., J. Chem. Theory Comput., 2019,
     15, 1652-1671. DOI: 10.1021/acs.jctc.8b01176
   for GFN1-xTB:
   * S. Grimme, C. Bannwarth, P. Shushkov, J. Chem. Theory Comput., 2017,
     13, 1989-2009. DOI: 10.1021/acs.jctc.7b00118
   for GFN0-xTB:
   * P. Pracht, E. Caldeweyher, S. Ehlert, S. Grimme, ChemRxiv, 2019, preprint.
     DOI: 10.26434/chemrxiv.8326202.v1
   for GFN-FF:
   * S. Spicher and S. Grimme, Angew. Chem. Int. Ed., 2020, 59, 15665-15673.
     DOI: 10.1002/anie.202004239
   
   for DFT-D4:
   * E. Caldeweyher, C. Bannwarth and S. Grimme, J. Chem. Phys., 2017,
     147, 034112. DOI: 10.1063/1.4993215
   * E. Caldeweyher, S. Ehlert, A. Hansen, H. Neugebauer, S. Spicher,
     C. Bannwarth and S. Grimme, J. Chem. Phys., 2019, 150, 154122.
     DOI: 10.1063/1.5090222
   * E. Caldeweyher, J.-M. Mewes, S. Ehlert and S. Grimme, Phys. Chem. Chem. Phys.
     2020, 22, 8499-8512. DOI: 10.1039/D0CP00502A
   
   for sTDA-xTB:
   * S. Grimme and C. Bannwarth, J. Chem. Phys., 2016, 145, 054103.
     DOI: 10.1063/1.4959605
   
   in the mass-spec context:
   * V. Asgeirsson, C. Bauer and S. Grimme, Chem. Sci., 2017, 8, 4879.
     DOI: 10.1039/c7sc00601b
   * J. Koopman and S. Grimme, ACS Omega 2019, 4, 12, 15120-15133.
     DOI: 10.1021/acsomega.9b02011
   
   for metadynamics refer to:
   * S. Grimme, J. Chem. Theory Comput., 2019, 155, 2847-2862
     DOI: 10.1021/acs.jctc.9b00143
   
   for SPH calculations refer to:
   * S. Spicher and S. Grimme, J. Chem. Theory Comput., 2021, 17, 1701-1714
     DOI: 10.1021/acs.jctc.0c01306
   
   with help from (in alphabetical order)
   P. Atkinson, C. Bannwarth, F. Bohle, G. Brandenburg, E. Caldeweyher
   M. Checinski, S. Dohm, S. Ehlert, S. Ehrlich, I. Gerasimov, J. Koopman
   C. Lavigne, S. Lehtola, F. März, M. Müller, F. Musil, H. Neugebauer
   J. Pisarek, C. Plett, P. Pracht, J. Seibert, P. Shushkov, S. Spicher
   M. Stahn, M. Steiner, T. Strunk, J. Stückrath, T. Rose, and J. Unsleber
   
 * started run on 2022/03/03 at 15:40:04.553     

           -------------------------------------------------
          |                Calculation Setup                |
           -------------------------------------------------

          program call               : /ihome/ghutchison/oda6/xtb/xtb-641/bin/xtb ../../GFN2_output/121_99_100100.mol --sp --alpb hexane
          hostname                   : smp-n90
          coordinate file            : ../../GFN2_output/121_99_100100.mol
          omp threads                :                     8
          number of atoms            :                   214
          number of electrons        :                   650
          charge                     :                     0
          spin                       :                   0.0
          first test random number   :      0.63670704845344

   ID    Z sym.   atoms
    1    6 C      1-8, 10-12, 14-21, 23-26, 28, 30, 31, 33, 35-37, 39-47, 49,
                  51-53, 55-63, 65-72, 74-76, 78-85, 87-90, 92, 94, 95, 97,
                  99-101, 103-111, 113, 115-117, 119-127
    2   16 S      9, 22, 29, 32, 34, 48, 50, 64, 73, 86, 93, 96, 98, 112,
                  114, 128
    3    9 F      13, 27, 77, 91
    4    8 O      38, 54, 102, 118
    5    1 H      129-214

           -------------------------------------------------
          |                 G F N 2 - x T B                 |
           -------------------------------------------------

        Reference                      10.1021/acs.jctc.8b01176
      * Hamiltonian:
        H0-scaling (s, p, d)           1.850000    2.230000    2.230000
        zeta-weighting                 0.500000
      * Dispersion:
        s8                             2.700000
        a1                             0.520000
        a2                             5.000000
        s9                             5.000000
      * Repulsion:
        kExp                           1.500000    1.000000
        rExp                           1.000000
      * Coulomb:
        alpha                          2.000000
        third order                    shell-resolved
        anisotropic                    true
        a3                             3.000000
        a5                             4.000000
        cn-shift                       1.200000
        cn-exp                         4.000000
        max-rad                        5.000000

      * Solvation model:               ALPB
        Solvent                        hexane
        Parameter file                 internal GFN2-xTB/ALPB
        Dielectric constant                1.8800E+00
        Reference state                gsolv [1 M gas/solution]
        Free energy shift                  4.8134E-03 Eh       3.0204E+00 kcal/mol
        Temperature                        2.9815E+02 K
        Density                            6.6000E-01 kg/L
        Solvent mass                       8.6180E+01 g/mol
        Interaction kernel             P16
        Born radius scaling (c1)           1.1040E+00
        Born radii integrator          GBOBC
        Born offset                        0.0000E+00 a0       0.0000E+00 AA
        H-bond correction              false
        Ion screening                  false
        Surface tension                    1.0000E-05 Eh       1.5569E+01 dyn/cm
        Grid points                               230 per atom

          ...................................................
          :                      SETUP                      :
          :.................................................:
          :  # basis functions                 694          :
          :  # atomic orbitals                 678          :
          :  # shells                          358          :
          :  # electrons                       650          :
          :  max. iterations                   250          :
          :  Hamiltonian                  GFN2-xTB          :
          :  restarted?                      false          :
          :  GBSA solvation                   true          :
          :  PC potential                    false          :
          :  electronic temp.          300.0000000     K    :
          :  accuracy                    1.0000000          :
          :  -> integral cutoff          0.2500000E+02      :
          :  -> integral neglect         0.1000000E-07      :
          :  -> SCF convergence          0.1000000E-05 Eh   :
          :  -> wf. convergence          0.1000000E-03 e    :
          :  Broyden damping             0.4000000          :
          ...................................................

 iter      E             dE          RMSdq      gap      omega  full diag
   1   -358.7084777 -0.358708E+03  0.421E+00    1.10       0.0  T
   2   -358.9537274 -0.245250E+00  0.230E+00    1.13       1.0  T
   3   -358.8992545  0.544728E-01  0.982E-01    1.14       1.0  T
   4   -358.9871726 -0.879181E-01  0.387E-01    1.11       1.0  T
   5   -358.9953785 -0.820586E-02  0.153E-01    1.13       1.0  T
   6   -358.9961749 -0.796373E-03  0.606E-02    1.12       1.0  T
   7   -358.9964576 -0.282765E-03  0.229E-02    1.12       1.0  T
   8   -358.9964794 -0.217445E-04  0.132E-02    1.12       1.0  T
   9   -358.9964827 -0.328861E-05  0.581E-03    1.12       1.2  T
  10   -358.9964847 -0.208285E-05  0.239E-03    1.12       2.9  T
  11   -358.9964850 -0.210995E-06  0.131E-03    1.12       5.2  T
  12   -358.9964850 -0.395704E-07  0.576E-04    1.12      11.9  T
  13   -358.9964850 -0.151849E-07  0.208E-04    1.12      32.9  T

   *** convergence criteria satisfied after 13 iterations ***

         #    Occupation            Energy/Eh            Energy/eV
      -------------------------------------------------------------
         1        2.0000           -0.8297734             -22.5793
       ...           ...                  ...                  ...
       319        2.0000           -0.3687593             -10.0345
       320        2.0000           -0.3680066             -10.0140
       321        2.0000           -0.3658004              -9.9539
       322        2.0000           -0.3628762              -9.8744
       323        2.0000           -0.3607647              -9.8169
       324        2.0000           -0.3512956              -9.5592
       325        2.0000           -0.3472125              -9.4481 (HOMO)
       326                         -0.3060374              -8.3277 (LUMO)
       327                         -0.2982955              -8.1170
       328                         -0.2897096              -7.8834
       329                         -0.2797659              -7.6128
       330                         -0.2715724              -7.3899
       ...                                ...                  ...
       678                          0.7079668              19.2648
      -------------------------------------------------------------
                  HL-Gap            0.0411750 Eh            1.1204 eV
             Fermi-level           -0.3266187 Eh           -8.8877 eV

 SCC (total)                   0 d,  0 h,  0 min,  0.753 sec
 SCC setup                      ...        0 min,  0.008 sec (  1.092%)
 Dispersion                     ...        0 min,  0.010 sec (  1.262%)
 classical contributions        ...        0 min,  0.000 sec (  0.044%)
 integral evaluation            ...        0 min,  0.041 sec (  5.447%)
 iterations                     ...        0 min,  0.580 sec ( 77.061%)
 molecular gradient             ...        0 min,  0.110 sec ( 14.561%)
 printout                       ...        0 min,  0.004 sec (  0.523%)

         :::::::::::::::::::::::::::::::::::::::::::::::::::::
         ::                     SUMMARY                     ::
         :::::::::::::::::::::::::::::::::::::::::::::::::::::
         :: total energy            -354.056860815146 Eh    ::
         :: total w/o Gsasa/hb      -353.927663925310 Eh    ::
         :: gradient norm              0.016472660186 Eh/a0 ::
         :: HOMO-LUMO gap              1.120429382709 eV    ::
         ::.................................................::
         :: SCC energy              -358.996485005690 Eh    ::
         :: -> isotropic ES            0.148003249655 Eh    ::
         :: -> anisotropic ES          0.021363909943 Eh    ::
         :: -> anisotropic XC          0.119045719311 Eh    ::
         :: -> dispersion             -0.328710559195 Eh    ::
         :: -> Gsolv                  -0.148697984670 Eh    ::
         ::    -> Gelec               -0.019501094834 Eh    ::
         ::    -> Gsasa               -0.134010245656 Eh    ::
         ::    -> Ghb                  0.000000000000 Eh    ::
         ::    -> Gshift               0.004813355820 Eh    ::
         :: repulsion energy           4.941399180337 Eh    ::
         :: add. restraining           0.000000000000 Eh    ::
         :: total charge               0.000000000010 e     ::
         :::::::::::::::::::::::::::::::::::::::::::::::::::::

           -------------------------------------------------
          |                Property Printout                |
           -------------------------------------------------

    * Orbital Energies and Occupations

         #    Occupation            Energy/Eh            Energy/eV
      -------------------------------------------------------------
         1        2.0000           -0.8297734             -22.5793
       ...           ...                  ...                  ...
       313        2.0000           -0.3938674             -10.7177
       314        2.0000           -0.3924981             -10.6804
       315        2.0000           -0.3909685             -10.6388
       316        2.0000           -0.3760286             -10.2323
       317        2.0000           -0.3751193             -10.2075
       318        2.0000           -0.3712576             -10.1024
       319        2.0000           -0.3687593             -10.0345
       320        2.0000           -0.3680066             -10.0140
       321        2.0000           -0.3658004              -9.9539
       322        2.0000           -0.3628762              -9.8744
       323        2.0000           -0.3607647              -9.8169
       324        2.0000           -0.3512956              -9.5592
       325        2.0000           -0.3472125              -9.4481 (HOMO)
       326                         -0.3060374              -8.3277 (LUMO)
       327                         -0.2982955              -8.1170
       328                         -0.2897096              -7.8834
       329                         -0.2797659              -7.6128
       330                         -0.2715724              -7.3899
       331                         -0.2657482              -7.2314
       332                         -0.2610756              -7.1042
       333                         -0.2529313              -6.8826
       334                         -0.2516103              -6.8467
       335                         -0.2481679              -6.7530
       336                         -0.2442521              -6.6464
       ...                                ...                  ...
       678                          0.7079668              19.2648
      -------------------------------------------------------------
                  HL-Gap            0.0411750 Eh            1.1204 eV
             Fermi-level           -0.3266187 Eh           -8.8877 eV

     #   Z          covCN         q      C6AA      α(0)
     1   6 C        2.934    -0.010    28.257     8.718
     2   6 C        3.072    -0.050    29.167     8.855
     3   6 C        3.145    -0.006    27.901     8.642
     4   6 C        2.993    -0.005    28.130     8.700
     5   6 C        2.978     0.015    27.671     8.629
     6   6 C        2.922    -0.036    28.907     8.817
     7   6 C        2.979    -0.037    28.905     8.819
     8   6 C        2.960     0.036    27.196     8.554
     9  16 S        2.047    -0.185   148.887    20.537
    10   6 C        3.793     0.000    20.584     6.461
    11   6 C        3.779    -0.100    22.432     6.747
    12   6 C        2.803     0.162    24.490     8.107
    13   9 F        0.787    -0.243    11.694     4.039
    14   6 C        2.924    -0.053    29.324     8.880
    15   6 C        3.006     0.025    27.422     8.590
    16   6 C        3.135    -0.003    27.887     8.644
    17   6 C        2.992    -0.007    28.179     8.708
    18   6 C        2.978     0.015    27.681     8.630
    19   6 C        2.922    -0.038    28.950     8.824
    20   6 C        2.984    -0.040    28.982     8.831
    21   6 C        2.959     0.035    27.214     8.557
    22  16 S        2.050    -0.181   148.747    20.527
    23   6 C        3.793     0.001    20.574     6.459
    24   6 C        3.778    -0.100    22.432     6.748
    25   6 C        2.801     0.162    24.487     8.107
    26   6 C        2.925    -0.052    29.302     8.877
    27   9 F        0.787    -0.243    11.688     4.038
    28   6 C        3.007     0.024    27.460     8.596
    29  16 S        2.251    -0.065   143.757    20.180
    30   6 C        3.064    -0.063    29.495     8.906
    31   6 C        3.017     0.031    27.279     8.567
    32  16 S        2.310    -0.075   144.168    20.209
    33   6 C        3.025     0.015    27.658     8.627
    34  16 S        2.334    -0.026   142.119    20.065
    35   6 C        3.023     0.022    27.483     8.599
    36   6 C        3.014    -0.016    28.399     8.742
    37   6 C        3.041     0.139    24.927     8.189
    38   8 O        1.702    -0.292    18.847     5.861
    39   6 C        3.791     0.141    18.322     6.096
    40   6 C        3.805    -0.063    21.704     6.632
    41   6 C        3.751    -0.106    22.587     6.778
    42   6 C        3.804    -0.064    21.724     6.636
    43   6 C        3.752    -0.103    22.532     6.769
    44   6 C        3.152    -0.028    28.410     8.718
    45   6 C        3.089    -0.057    29.315     8.875
    46   6 C        3.077    -0.080    29.903     8.965
    47   6 C        3.026     0.023    27.470     8.597
    48  16 S        2.335    -0.033   142.410    20.085
    49   6 C        3.026     0.017    27.600     8.617
    50  16 S        2.333    -0.024   142.051    20.060
    51   6 C        3.023     0.021    27.502     8.602
    52   6 C        3.014    -0.015    28.361     8.736
    53   6 C        3.044     0.139    24.938     8.191
    54   8 O        1.702    -0.291    18.840     5.860
    55   6 C        3.792     0.141    18.321     6.095
    56   6 C        3.805    -0.063    21.708     6.633
    57   6 C        3.751    -0.106    22.584     6.777
    58   6 C        3.804    -0.064    21.723     6.635
    59   6 C        3.752    -0.104    22.546     6.771
    60   6 C        3.150    -0.027    28.377     8.713
    61   6 C        3.087    -0.058    29.341     8.879
    62   6 C        3.077    -0.077    29.821     8.953
    63   6 C        3.028     0.021    27.509     8.603
    64  16 S        2.337    -0.023   142.007    20.057
    65   6 C        3.020     0.030    27.300     8.571
    66   6 C        3.064    -0.059    29.391     8.890
    67   6 C        3.135    -0.004    27.900     8.646
    68   6 C        2.993    -0.006    28.156     8.704
    69   6 C        2.978     0.012    27.753     8.641
    70   6 C        2.924    -0.041    29.025     8.835
    71   6 C        2.942    -0.047    29.155     8.856
    72   6 C        2.960     0.034    27.247     8.562
    73  16 S        2.054    -0.152   147.451    20.437
    74   6 C        3.793    -0.004    20.663     6.473
    75   6 C        3.778    -0.107    22.562     6.767
    76   6 C        2.846     0.163    24.479     8.109
    77   9 F        0.788    -0.237    11.620     4.027
    78   6 C        2.923    -0.051    29.273     8.873
    79   6 C        3.005     0.026    27.408     8.588
    80   6 C        3.134    -0.002    27.866     8.641
    81   6 C        2.994    -0.006    28.169     8.706
    82   6 C        2.978     0.015    27.677     8.630
    83   6 C        2.922    -0.037    28.913     8.818
    84   6 C        2.980    -0.037    28.908     8.819
    85   6 C        2.960     0.036    27.192     8.553
    86  16 S        2.048    -0.184   148.875    20.536
    87   6 C        3.793     0.001    20.572     6.459
    88   6 C        3.779    -0.100    22.433     6.748
    89   6 C        2.803     0.162    24.491     8.107
    90   6 C        2.925    -0.053    29.319     8.880
    91   9 F        0.787    -0.243    11.691     4.039
    92   6 C        3.006     0.026    27.402     8.587
    93  16 S        2.312    -0.070   143.979    20.195
    94   6 C        3.064    -0.060    29.424     8.895
    95   6 C        3.017     0.032    27.273     8.566
    96  16 S        2.271    -0.085   144.603    20.239
    97   6 C        3.024     0.015    27.652     8.626
    98  16 S        2.292    -0.039   142.662    20.103
    99   6 C        3.023     0.024    27.448     8.594
   100   6 C        3.013    -0.017    28.414     8.744
   101   6 C        3.043     0.139    24.925     8.188
   102   8 O        1.702    -0.299    18.975     5.881
   103   6 C        3.793     0.141    18.310     6.094
   104   6 C        3.804    -0.060    21.657     6.625
   105   6 C        3.751    -0.106    22.593     6.779
   106   6 C        3.803    -0.062    21.694     6.631
   107   6 C        3.751    -0.107    22.610     6.781
   108   6 C        3.144    -0.029    28.468     8.730
   109   6 C        3.087    -0.054    29.233     8.863
   110   6 C        3.075    -0.077    29.845     8.957
   111   6 C        3.025     0.024    27.451     8.594
   112  16 S        2.296    -0.045   142.906    20.120
   113   6 C        3.026     0.016    27.638     8.623
   114  16 S        2.294    -0.036   142.534    20.094
   115   6 C        3.022     0.023    27.473     8.598
   116   6 C        3.014    -0.020    28.476     8.753
   117   6 C        3.058     0.136    24.981     8.196
   118   8 O        1.702    -0.298    18.964     5.880
   119   6 C        3.793     0.141    18.319     6.095
   120   6 C        3.802    -0.064    21.724     6.636
   121   6 C        3.751    -0.109    22.641     6.786
   122   6 C        3.804    -0.063    21.706     6.633
   123   6 C        3.752    -0.103    22.530     6.769
   124   6 C        3.146    -0.024    28.331     8.708
   125   6 C        3.088    -0.055    29.261     8.867
   126   6 C        3.087    -0.067    29.558     8.912
   127   6 C        2.944    -0.021    28.528     8.760
   128  16 S        2.278    -0.025   142.075    20.061
   129   1 H        0.926     0.054     2.268     2.355
   130   1 H        0.926     0.047     2.357     2.401
   131   1 H        0.926     0.059     2.209     2.324
   132   1 H        0.926     0.066     2.131     2.283
   133   1 H        0.925     0.063     2.165     2.301
   134   1 H        0.925     0.057     2.230     2.336
   135   1 H        0.925     0.050     2.320     2.382
   136   1 H        0.925     0.040     2.450     2.448
   137   1 H        0.925     0.048     2.346     2.395
   138   1 H        0.926     0.066     2.135     2.285
   139   1 H        0.926     0.056     2.250     2.346
   140   1 H        0.926     0.062     2.174     2.306
   141   1 H        0.925     0.057     2.232     2.336
   142   1 H        0.925     0.064     2.152     2.294
   143   1 H        0.925     0.043     2.414     2.430
   144   1 H        0.925     0.049     2.337     2.390
   145   1 H        0.925     0.048     2.339     2.392
   146   1 H        0.926     0.068     2.104     2.268
   147   1 H        0.926     0.047     2.360     2.402
   148   1 H        0.924     0.034     2.528     2.487
   149   1 H        0.924     0.041     2.434     2.440
   150   1 H        0.925     0.042     2.419     2.432
   151   1 H        0.925     0.048     2.347     2.396
   152   1 H        0.925     0.043     2.413     2.429
   153   1 H        0.925     0.045     2.379     2.412
   154   1 H        0.925     0.058     2.222     2.331
   155   1 H        0.925     0.042     2.418     2.432
   156   1 H        0.925     0.042     2.419     2.432
   157   1 H        0.925     0.037     2.491     2.468
   158   1 H        0.926     0.048     2.341     2.393
   159   1 H        0.926     0.058     2.220     2.330
   160   1 H        0.924     0.041     2.434     2.440
   161   1 H        0.924     0.034     2.529     2.487
   162   1 H        0.925     0.043     2.412     2.428
   163   1 H        0.925     0.048     2.346     2.395
   164   1 H        0.925     0.042     2.419     2.432
   165   1 H        0.925     0.058     2.218     2.329
   166   1 H        0.925     0.046     2.375     2.410
   167   1 H        0.925     0.043     2.412     2.429
   168   1 H        0.925     0.038     2.478     2.462
   169   1 H        0.925     0.043     2.415     2.430
   170   1 H        0.926     0.051     2.313     2.378
   171   1 H        0.926     0.060     2.201     2.320
   172   1 H        0.926     0.050     2.321     2.383
   173   1 H        0.926     0.053     2.283     2.363
   174   1 H        0.926     0.056     2.241     2.341
   175   1 H        0.925     0.054     2.273     2.358
   176   1 H        0.925     0.061     2.183     2.311
   177   1 H        0.925     0.049     2.335     2.390
   178   1 H        0.925     0.049     2.336     2.390
   179   1 H        0.925     0.053     2.286     2.364
   180   1 H        0.926     0.068     2.104     2.268
   181   1 H        0.926     0.059     2.207     2.323
   182   1 H        0.926     0.066     2.131     2.283
   183   1 H        0.925     0.063     2.166     2.302
   184   1 H        0.925     0.057     2.235     2.338
   185   1 H        0.925     0.042     2.426     2.436
   186   1 H        0.925     0.050     2.318     2.381
   187   1 H        0.925     0.048     2.349     2.397
   188   1 H        0.926     0.066     2.132     2.283
   189   1 H        0.926     0.051     2.306     2.375
   190   1 H        0.924     0.045     2.389     2.417
   191   1 H        0.925     0.051     2.311     2.377
   192   1 H        0.925     0.042     2.418     2.431
   193   1 H        0.925     0.050     2.324     2.384
   194   1 H        0.925     0.042     2.420     2.433
   195   1 H        0.924     0.030     2.591     2.517
   196   1 H        0.924     0.052     2.296     2.369
   197   1 H        0.925     0.044     2.401     2.423
   198   1 H        0.925     0.039     2.460     2.453
   199   1 H        0.925     0.045     2.385     2.415
   200   1 H        0.926     0.054     2.271     2.357
   201   1 H        0.926     0.062     2.170     2.303
   202   1 H        0.924     0.047     2.363     2.404
   203   1 H        0.924     0.033     2.542     2.493
   204   1 H        0.925     0.043     2.407     2.426
   205   1 H        0.925     0.042     2.429     2.437
   206   1 H        0.925     0.046     2.373     2.409
   207   1 H        0.925     0.051     2.304     2.374
   208   1 H        0.924     0.051     2.307     2.376
   209   1 H        0.925     0.037     2.482     2.464
   210   1 H        0.925     0.044     2.401     2.423
   211   1 H        0.925     0.043     2.414     2.430
   212   1 H        0.926     0.057     2.233     2.337
   213   1 H        0.926     0.061     2.190     2.314
   214   1 H        0.926     0.064     2.154     2.295

 Mol. C6AA /au·bohr⁶  :     780497.211933
 Mol. C8AA /au·bohr⁸  :   22863896.868993
 Mol. α(0) /au        :       1410.937555


Wiberg/Mayer (AO) data.
largest (>0.10) Wiberg bond orders for each atom

 ---------------------------------------------------------------------------
     #   Z sym  total        # sym  WBO       # sym  WBO       # sym  WBO
 ---------------------------------------------------------------------------
     1   6 C    3.930 --     2 C    1.683    29 S    1.147   129 H    0.968
     2   6 C    3.981 --     1 C    1.683     3 C    1.192   130 H    0.960
     3   6 C    3.968 --     4 C    1.298    28 C    1.262     2 C    1.192
     4   6 C    3.980 --    15 C    1.384     3 C    1.298     5 C    1.042
     5   6 C    3.985 --    14 C    1.383     6 C    1.375     4 C    1.042
     6   6 C    3.985 --     7 C    1.464     5 C    1.375   131 H    0.964
     7   6 C    3.987 --     6 C    1.464     8 C    1.379   132 H    0.966
                            14 C    0.101
     8   6 C    3.964 --     7 C    1.379    12 C    1.351     9 S    1.044
     9  16 S    2.212 --     8 C    1.044    10 C    0.972
    10   6 C    3.968 --    11 C    1.028   133 H    0.973     9 S    0.972
                           134 H    0.969
    11   6 C    3.994 --    10 C    1.028   135 H    0.986   136 H    0.985
                           137 H    0.978
    12   6 C    3.875 --    14 C    1.414     8 C    1.351    13 F    0.941
    13   9 F    1.072 --    12 C    0.941
    14   6 C    3.984 --    12 C    1.414     5 C    1.383   138 H    0.963
                             7 C    0.101
    15   6 C    3.943 --     4 C    1.384    16 C    1.246    32 S    1.097
    16   6 C    3.982 --    17 C    1.291    15 C    1.246    30 C    1.225
    17   6 C    3.959 --    28 C    1.377    16 C    1.291    18 C    1.045
    18   6 C    3.985 --    26 C    1.385    19 C    1.370    17 C    1.045
    19   6 C    3.986 --    20 C    1.470    18 C    1.370   139 H    0.966
    20   6 C    3.987 --    19 C    1.470    21 C    1.371   140 H    0.966
                            26 C    0.100
    21   6 C    3.962 --    20 C    1.371    25 C    1.351    22 S    1.050
    22  16 S    2.230 --    21 C    1.050    23 C    0.973
    23   6 C    3.968 --    24 C    1.027    22 S    0.973   142 H    0.972
                           141 H    0.968
    24   6 C    3.994 --    23 C    1.027   144 H    0.986   143 H    0.985
                           145 H    0.978
    25   6 C    3.875 --    26 C    1.411    21 C    1.351    27 F    0.941
    26   6 C    3.981 --    25 C    1.411    18 C    1.385   146 H    0.961
                            20 C    0.100
    27   9 F    1.072 --    25 C    0.941
    28   6 C    3.951 --    17 C    1.377     3 C    1.262    29 S    1.099
    29  16 S    2.528 --     1 C    1.147    28 C    1.099
    30   6 C    3.952 --    31 C    1.533    16 C    1.225   147 H    0.958
    31   6 C    3.940 --    30 C    1.533    33 C    1.169    32 S    1.089
    32  16 S    2.497 --    15 C    1.097    31 C    1.089
    33   6 C    3.920 --    45 C    1.455    31 C    1.169    34 S    1.122
    34  16 S    2.576 --    35 C    1.142    33 C    1.122
    35   6 C    3.938 --    44 C    1.406    36 C    1.194    34 S    1.142
    36   6 C    3.911 --    37 C    1.354    35 C    1.194    48 S    1.122
    37   6 C    3.924 --    36 C    1.354    46 C    1.297    38 O    1.080
    38   8 O    2.231 --    37 C    1.080    39 C    0.919
    39   6 C    3.925 --    44 C    0.979    42 C    0.975    40 C    0.960
                            38 O    0.919
    40   6 C    3.991 --    41 C    1.018   148 H    0.977   149 H    0.975
                            39 C    0.960
    41   6 C    3.993 --    40 C    1.018   150 H    0.986   151 H    0.985
                           152 H    0.985
    42   6 C    3.992 --    43 C    1.020    39 C    0.975   153 H    0.974
                           154 H    0.972
    43   6 C    3.995 --    42 C    1.020   155 H    0.987   156 H    0.986
                           157 H    0.985
    44   6 C    3.958 --    35 C    1.406    45 C    1.338    39 C    0.979
    45   6 C    3.965 --    33 C    1.455    44 C    1.338   158 H    0.960
    46   6 C    3.956 --    47 C    1.446    37 C    1.297   159 H    0.961
    47   6 C    3.929 --    46 C    1.446    49 C    1.190    48 S    1.128
    48  16 S    2.562 --    47 C    1.128    36 C    1.122
    49   6 C    3.925 --    61 C    1.441    47 C    1.190    50 S    1.120
    50  16 S    2.572 --    51 C    1.140    49 C    1.120
    51   6 C    3.928 --    60 C    1.404    52 C    1.193    50 S    1.140
    52   6 C    3.920 --    53 C    1.354    51 C    1.193    64 S    1.130
    53   6 C    3.921 --    52 C    1.354    62 C    1.296    54 O    1.079
    54   8 O    2.229 --    53 C    1.079    55 C    0.919
    55   6 C    3.925 --    60 C    0.979    58 C    0.976    56 C    0.960
                            54 O    0.919
    56   6 C    3.992 --    57 C    1.018   161 H    0.977   160 H    0.975
                            55 C    0.960
    57   6 C    3.993 --    56 C    1.018   164 H    0.986   163 H    0.985
                           162 H    0.985
    58   6 C    3.992 --    59 C    1.020    55 C    0.976   166 H    0.974
                           165 H    0.972
    59   6 C    3.995 --    58 C    1.020   167 H    0.987   169 H    0.986
                           168 H    0.985
    60   6 C    3.962 --    51 C    1.404    61 C    1.343    55 C    0.979
    61   6 C    3.964 --    49 C    1.441    60 C    1.343   170 H    0.960
    62   6 C    3.958 --    63 C    1.457    53 C    1.296   171 H    0.961
    63   6 C    3.925 --    62 C    1.457    65 C    1.170    64 S    1.131
    64  16 S    2.574 --    63 C    1.131    52 C    1.130
    65   6 C    3.933 --    66 C    1.526    63 C    1.170    93 S    1.089
    66   6 C    3.953 --    65 C    1.526    67 C    1.234   172 H    0.958
    67   6 C    3.967 --    68 C    1.278    92 C    1.244    66 C    1.234
    68   6 C    3.957 --    79 C    1.392    67 C    1.278    69 C    1.045
    69   6 C    3.987 --    70 C    1.382    78 C    1.369    68 C    1.045
    70   6 C    3.986 --    71 C    1.451    69 C    1.382   173 H    0.966
    71   6 C    3.987 --    70 C    1.451    72 C    1.381   174 H    0.961
    72   6 C    3.962 --    71 C    1.381    76 C    1.328    73 S    1.064
    73  16 S    2.276 --    72 C    1.064    74 C    0.982
    74   6 C    3.973 --    75 C    1.026    73 S    0.982   175 H    0.969
                           176 H    0.969
    75   6 C    3.992 --    74 C    1.026   179 H    0.986   177 H    0.984
                           178 H    0.978
    76   6 C    3.876 --    78 C    1.430    72 C    1.328    77 F    0.947
    77   9 F    1.083 --    76 C    0.947
    78   6 C    3.981 --    76 C    1.430    69 C    1.369   180 H    0.961
    79   6 C    3.941 --    68 C    1.392    80 C    1.244    96 S    1.092
    80   6 C    3.968 --    81 C    1.282    79 C    1.244    94 C    1.233
    81   6 C    3.957 --    92 C    1.386    80 C    1.282    82 C    1.045
    82   6 C    3.984 --    90 C    1.381    83 C    1.374    81 C    1.045
    83   6 C    3.983 --    84 C    1.465    82 C    1.374   181 H    0.964
    84   6 C    3.986 --    83 C    1.465    85 C    1.378   182 H    0.966
                            90 C    0.101
    85   6 C    3.963 --    84 C    1.378    89 C    1.350    86 S    1.045
    86  16 S    2.216 --    85 C    1.045    87 C    0.972
    87   6 C    3.968 --    88 C    1.028   183 H    0.973    86 S    0.972
                           184 H    0.969
    88   6 C    3.993 --    87 C    1.028   186 H    0.986   185 H    0.985
                           187 H    0.978
    89   6 C    3.875 --    90 C    1.415    85 C    1.350    91 F    0.941
    90   6 C    3.983 --    89 C    1.415    82 C    1.381   188 H    0.963
                            84 C    0.101
    91   9 F    1.072 --    89 C    0.941
    92   6 C    3.942 --    81 C    1.386    67 C    1.244    93 S    1.098
    93  16 S    2.498 --    92 C    1.098    65 C    1.089
    94   6 C    3.951 --    95 C    1.531    80 C    1.233   189 H    0.955
    95   6 C    3.932 --    94 C    1.531    97 C    1.178    96 S    1.076
    96  16 S    2.477 --    79 C    1.092    95 C    1.076
    97   6 C    3.919 --   109 C    1.457    95 C    1.178    98 S    1.108
    98  16 S    2.559 --    99 C    1.139    97 C    1.108
    99   6 C    3.935 --   108 C    1.406   100 C    1.197    98 S    1.139
   100   6 C    3.911 --   101 C    1.357    99 C    1.197   112 S    1.116
   101   6 C    3.921 --   100 C    1.357   110 C    1.295   102 O    1.077
   102   8 O    2.221 --   101 C    1.077   103 C    0.914
   103   6 C    3.923 --   108 C    0.978   104 C    0.977   106 C    0.961
                           102 O    0.914
   104   6 C    3.992 --   105 C    1.019   103 C    0.977   190 H    0.976
                           191 H    0.970
   105   6 C    3.994 --   104 C    1.019   194 H    0.986   193 H    0.986
                           192 H    0.986
   106   6 C    3.991 --   107 C    1.020   195 H    0.976   196 H    0.971
                           103 C    0.961
   107   6 C    3.994 --   106 C    1.020   197 H    0.985   199 H    0.985
                           198 H    0.984
   108   6 C    3.957 --    99 C    1.406   109 C    1.339   103 C    0.978
   109   6 C    3.964 --    97 C    1.457   108 C    1.339   200 H    0.956
   110   6 C    3.960 --   111 C    1.458   101 C    1.295   201 H    0.958
   111   6 C    3.928 --   110 C    1.458   113 C    1.190   112 S    1.115
   112  16 S    2.546 --   100 C    1.116   111 C    1.115
   113   6 C    3.933 --   125 C    1.454   111 C    1.190   114 S    1.107
   114  16 S    2.568 --   115 C    1.141   113 C    1.107
   115   6 C    3.928 --   124 C    1.420   116 C    1.177   114 S    1.141
   116   6 C    3.935 --   117 C    1.396   115 C    1.177   128 S    1.123
   117   6 C    3.918 --   116 C    1.396   126 C    1.245   118 O    1.077
   118   8 O    2.223 --   117 C    1.077   119 C    0.915
   119   6 C    3.924 --   124 C    0.980   122 C    0.977   120 C    0.960
                           118 O    0.915
   120   6 C    3.992 --   121 C    1.020   203 H    0.976   202 H    0.973
                           119 C    0.960
   121   6 C    3.994 --   120 C    1.020   204 H    0.985   206 H    0.985
                           205 H    0.983
   122   6 C    3.992 --   123 C    1.019   119 C    0.977   208 H    0.974
                           207 H    0.970
   123   6 C    3.995 --   122 C    1.019   210 H    0.986   211 H    0.986
                           209 H    0.985
   124   6 C    3.976 --   115 C    1.420   125 C    1.332   119 C    0.980
   125   6 C    3.966 --   113 C    1.454   124 C    1.332   212 H    0.956
   126   6 C    3.981 --   127 C    1.603   117 C    1.245   213 H    0.962
   127   6 C    3.921 --   126 C    1.603   128 S    1.195   214 H    0.969
   128  16 S    2.599 --   127 C    1.195   116 C    1.123
   129   1 H    0.996 --     1 C    0.968
   130   1 H    0.997 --     2 C    0.960
   131   1 H    0.996 --     6 C    0.964
   132   1 H    0.995 --     7 C    0.966
   133   1 H    0.996 --    10 C    0.973
   134   1 H    0.996 --    10 C    0.969
   135   1 H    0.997 --    11 C    0.986
   136   1 H    0.998 --    11 C    0.985
   137   1 H    0.997 --    11 C    0.978
   138   1 H    0.996 --    14 C    0.963
   139   1 H    0.997 --    19 C    0.966
   140   1 H    0.995 --    20 C    0.966
   141   1 H    0.996 --    23 C    0.968
   142   1 H    0.996 --    23 C    0.972
   143   1 H    0.998 --    24 C    0.985
   144   1 H    0.998 --    24 C    0.986
   145   1 H    0.997 --    24 C    0.978
   146   1 H    0.995 --    26 C    0.961
   147   1 H    0.997 --    30 C    0.958
   148   1 H    0.999 --    40 C    0.977
   149   1 H    0.998 --    40 C    0.975
   150   1 H    0.998 --    41 C    0.986
   151   1 H    0.998 --    41 C    0.985
   152   1 H    0.997 --    41 C    0.985
   153   1 H    0.997 --    42 C    0.974
   154   1 H    0.996 --    42 C    0.972
   155   1 H    0.998 --    43 C    0.987
   156   1 H    0.998 --    43 C    0.986
   157   1 H    0.999 --    43 C    0.985
   158   1 H    0.997 --    45 C    0.960
   159   1 H    0.996 --    46 C    0.961
   160   1 H    0.998 --    56 C    0.975
   161   1 H    0.999 --    56 C    0.977
   162   1 H    0.997 --    57 C    0.985
   163   1 H    0.998 --    57 C    0.985
   164   1 H    0.998 --    57 C    0.986
   165   1 H    0.996 --    58 C    0.972
   166   1 H    0.997 --    58 C    0.974
   167   1 H    0.998 --    59 C    0.987
   168   1 H    0.999 --    59 C    0.985
   169   1 H    0.998 --    59 C    0.986
   170   1 H    0.997 --    61 C    0.960
   171   1 H    0.996 --    62 C    0.961
   172   1 H    0.997 --    66 C    0.958
   173   1 H    0.997 --    70 C    0.966
   174   1 H    0.996 --    71 C    0.961
   175   1 H    0.997 --    74 C    0.969
   176   1 H    0.996 --    74 C    0.969
   177   1 H    0.998 --    75 C    0.984
   178   1 H    0.997 --    75 C    0.978
   179   1 H    0.997 --    75 C    0.986
   180   1 H    0.995 --    78 C    0.961
   181   1 H    0.996 --    83 C    0.964
   182   1 H    0.995 --    84 C    0.966
   183   1 H    0.996 --    87 C    0.973
   184   1 H    0.996 --    87 C    0.969
   185   1 H    0.998 --    88 C    0.985
   186   1 H    0.997 --    88 C    0.986
   187   1 H    0.998 --    88 C    0.978
   188   1 H    0.996 --    90 C    0.963
   189   1 H    0.997 --    94 C    0.955
   190   1 H    0.998 --   104 C    0.976
   191   1 H    0.997 --   104 C    0.970
   192   1 H    0.998 --   105 C    0.986
   193   1 H    0.997 --   105 C    0.986
   194   1 H    0.998 --   105 C    0.986
   195   1 H    0.999 --   106 C    0.976
   196   1 H    0.996 --   106 C    0.971
   197   1 H    0.998 --   107 C    0.985
   198   1 H    0.998 --   107 C    0.984
   199   1 H    0.998 --   107 C    0.985
   200   1 H    0.996 --   109 C    0.956
   201   1 H    0.995 --   110 C    0.958
   202   1 H    0.997 --   120 C    0.973
   203   1 H    0.999 --   120 C    0.976
   204   1 H    0.998 --   121 C    0.985
   205   1 H    0.998 --   121 C    0.983
   206   1 H    0.997 --   121 C    0.985
   207   1 H    0.997 --   122 C    0.970
   208   1 H    0.996 --   122 C    0.974
   209   1 H    0.999 --   123 C    0.985
   210   1 H    0.998 --   123 C    0.986
   211   1 H    0.998 --   123 C    0.986
   212   1 H    0.996 --   125 C    0.956
   213   1 H    0.996 --   126 C    0.962
   214   1 H    0.995 --   127 C    0.969
 ---------------------------------------------------------------------------

Topologies differ in bond orders
Writing corrected topology to xtbtopo.mol

molecular dipole:
                 x           y           z       tot (Debye)
 q only:        1.409      -2.185       0.086
   full:        1.334      -2.575       0.422       7.449
molecular quadrupole (traceless):
                xx          xy          yy          xz          yz          zz
 q only:       18.674      33.170      89.118     -49.165       4.732    -107.792
  q+dip:        9.609      27.896     106.204     -35.047      10.393    -115.814
   full:       21.219      26.722     101.333     -35.145      10.797    -122.553


           -------------------------------------------------
          | TOTAL ENERGY             -354.056860815146 Eh   |
          | GRADIENT NORM               0.016472660186 Eh/α |
          | HOMO-LUMO GAP               1.120429382709 eV   |
           -------------------------------------------------

------------------------------------------------------------------------
 * finished run on 2022/03/03 at 15:40:05.656     
------------------------------------------------------------------------
 total:
 * wall-time:     0 d,  0 h,  0 min,  1.103 sec
 *  cpu-time:     0 d,  0 h,  0 min,  7.794 sec
 * ratio c/w:     7.067 speedup
 SCF:
 * wall-time:     0 d,  0 h,  0 min,  0.756 sec
 *  cpu-time:     0 d,  0 h,  0 min,  6.033 sec
 * ratio c/w:     7.982 speedup

