      -----------------------------------------------------------      
     |                   =====================                   |     
     |                           x T B                           |     
     |                   =====================                   |     
     |                         S. Grimme                         |     
     |          Mulliken Center for Theoretical Chemistry        |     
     |                    University of Bonn                     |     
      -----------------------------------------------------------      

   * xtb version 6.4.1 (unknown) compiled by 'oda6@login1.crc.pitt.edu' on 2021-06-25

   xtb is free software: you can redistribute it and/or modify it under
   the terms of the GNU Lesser General Public License as published by
   the Free Software Foundation, either version 3 of the License, or
   (at your option) any later version.
   
   xtb is distributed in the hope that it will be useful,
   but WITHOUT ANY WARRANTY; without even the implied warranty of
   MERCHANTABILITY or FITNESS FOR A PARTICULAR PURPOSE.  See the
   GNU Lesser General Public License for more details.
   
   Cite this work as:
   * C. Bannwarth, E. Caldeweyher, S. Ehlert, A. Hansen, P. Pracht,
     J. Seibert, S. Spicher, S. Grimme, WIREs Comput. Mol. Sci., 2020, 11,
     e01493. DOI: 10.1002/wcms.1493
   
   for GFN2-xTB:
   * C. Bannwarth, S. Ehlert and S. Grimme., J. Chem. Theory Comput., 2019,
     15, 1652-1671. DOI: 10.1021/acs.jctc.8b01176
   for GFN1-xTB:
   * S. Grimme, C. Bannwarth, P. Shushkov, J. Chem. Theory Comput., 2017,
     13, 1989-2009. DOI: 10.1021/acs.jctc.7b00118
   for GFN0-xTB:
   * P. Pracht, E. Caldeweyher, S. Ehlert, S. Grimme, ChemRxiv, 2019, preprint.
     DOI: 10.26434/chemrxiv.8326202.v1
   for GFN-FF:
   * S. Spicher and S. Grimme, Angew. Chem. Int. Ed., 2020, 59, 15665-15673.
     DOI: 10.1002/anie.202004239
   
   for DFT-D4:
   * E. Caldeweyher, C. Bannwarth and S. Grimme, J. Chem. Phys., 2017,
     147, 034112. DOI: 10.1063/1.4993215
   * E. Caldeweyher, S. Ehlert, A. Hansen, H. Neugebauer, S. Spicher,
     C. Bannwarth and S. Grimme, J. Chem. Phys., 2019, 150, 154122.
     DOI: 10.1063/1.5090222
   * E. Caldeweyher, J.-M. Mewes, S. Ehlert and S. Grimme, Phys. Chem. Chem. Phys.
     2020, 22, 8499-8512. DOI: 10.1039/D0CP00502A
   
   for sTDA-xTB:
   * S. Grimme and C. Bannwarth, J. Chem. Phys., 2016, 145, 054103.
     DOI: 10.1063/1.4959605
   
   in the mass-spec context:
   * V. Asgeirsson, C. Bauer and S. Grimme, Chem. Sci., 2017, 8, 4879.
     DOI: 10.1039/c7sc00601b
   * J. Koopman and S. Grimme, ACS Omega 2019, 4, 12, 15120-15133.
     DOI: 10.1021/acsomega.9b02011
   
   for metadynamics refer to:
   * S. Grimme, J. Chem. Theory Comput., 2019, 155, 2847-2862
     DOI: 10.1021/acs.jctc.9b00143
   
   for SPH calculations refer to:
   * S. Spicher and S. Grimme, J. Chem. Theory Comput., 2021, 17, 1701-1714
     DOI: 10.1021/acs.jctc.0c01306
   
   with help from (in alphabetical order)
   P. Atkinson, C. Bannwarth, F. Bohle, G. Brandenburg, E. Caldeweyher
   M. Checinski, S. Dohm, S. Ehlert, S. Ehrlich, I. Gerasimov, J. Koopman
   C. Lavigne, S. Lehtola, F. März, M. Müller, F. Musil, H. Neugebauer
   J. Pisarek, C. Plett, P. Pracht, J. Seibert, P. Shushkov, S. Spicher
   M. Stahn, M. Steiner, T. Strunk, J. Stückrath, T. Rose, and J. Unsleber
   
 * started run on 2022/03/02 at 15:24:37.627     

           -------------------------------------------------
          |                Calculation Setup                |
           -------------------------------------------------

          program call               : /ihome/ghutchison/oda6/xtb/xtb-641/bin/xtb ../../GFN2_output/121_689_111011.mol --sp --alpb hexane
          hostname                   : smp-n90
          coordinate file            : ../../GFN2_output/121_689_111011.mol
          omp threads                :                     8
          number of atoms            :                   135
          number of electrons        :                   424
          charge                     :                     0
          spin                       :                   0.0
          first test random number   :      0.14449333319530

   ID    Z sym.   atoms
    1    6 C      1, 3-6, 8-10, 12-14, 16-19, 21-23, 25-27, 29-32, 34-36,
                  38-40, 42-44, 46-54, 56, 58-61, 63-65, 67-69, 71-74, 76-78,
                  80, 81
    2   16 S      2, 15, 28, 41, 55, 57, 70
    3    9 F      7, 11, 20, 24, 33, 37, 62, 66, 75, 79
    4    8 O      45
    5    1 H      82-135

           -------------------------------------------------
          |                 G F N 2 - x T B                 |
           -------------------------------------------------

        Reference                      10.1021/acs.jctc.8b01176
      * Hamiltonian:
        H0-scaling (s, p, d)           1.850000    2.230000    2.230000
        zeta-weighting                 0.500000
      * Dispersion:
        s8                             2.700000
        a1                             0.520000
        a2                             5.000000
        s9                             5.000000
      * Repulsion:
        kExp                           1.500000    1.000000
        rExp                           1.000000
      * Coulomb:
        alpha                          2.000000
        third order                    shell-resolved
        anisotropic                    true
        a3                             3.000000
        a5                             4.000000
        cn-shift                       1.200000
        cn-exp                         4.000000
        max-rad                        5.000000

      * Solvation model:               ALPB
        Solvent                        hexane
        Parameter file                 internal GFN2-xTB/ALPB
        Dielectric constant                1.8800E+00
        Reference state                gsolv [1 M gas/solution]
        Free energy shift                  4.8134E-03 Eh       3.0204E+00 kcal/mol
        Temperature                        2.9815E+02 K
        Density                            6.6000E-01 kg/L
        Solvent mass                       8.6180E+01 g/mol
        Interaction kernel             P16
        Born radius scaling (c1)           1.1040E+00
        Born radii integrator          GBOBC
        Born offset                        0.0000E+00 a0       0.0000E+00 AA
        H-bond correction              false
        Ion screening                  false
        Surface tension                    1.0000E-05 Eh       1.5569E+01 dyn/cm
        Grid points                               230 per atom

          ...................................................
          :                      SETUP                      :
          :.................................................:
          :  # basis functions                 420          :
          :  # atomic orbitals                 413          :
          :  # shells                          223          :
          :  # electrons                       424          :
          :  max. iterations                   250          :
          :  Hamiltonian                  GFN2-xTB          :
          :  restarted?                      false          :
          :  GBSA solvation                   true          :
          :  PC potential                    false          :
          :  electronic temp.          300.0000000     K    :
          :  accuracy                    1.0000000          :
          :  -> integral cutoff          0.2500000E+02      :
          :  -> integral neglect         0.1000000E-07      :
          :  -> SCF convergence          0.1000000E-05 Eh   :
          :  -> wf. convergence          0.1000000E-03 e    :
          :  Broyden damping             0.4000000          :
          ...................................................

 iter      E             dE          RMSdq      gap      omega  full diag
   1   -239.3335192 -0.239334E+03  0.409E+00    1.32       0.0  T
   2   -239.5652701 -0.231751E+00  0.226E+00    1.34       1.0  T
   3   -239.5605384  0.473169E-02  0.835E-01    1.35       1.0  T
   4   -239.5740639 -0.135255E-01  0.315E-01    1.30       1.0  T
   5   -239.5813763 -0.731240E-02  0.121E-01    1.34       1.0  T
   6   -239.5819573 -0.580966E-03  0.505E-02    1.32       1.0  T
   7   -239.5820523 -0.950157E-04  0.223E-02    1.33       1.0  T
   8   -239.5820885 -0.361679E-04  0.954E-03    1.33       1.0  T
   9   -239.5820887 -0.225741E-06  0.523E-03    1.33       1.6  T
  10   -239.5820906 -0.186814E-05  0.188E-03    1.33       4.6  T
  11   -239.5820908 -0.173811E-06  0.844E-04    1.33      10.2  T
  12   -239.5820908 -0.110771E-07  0.454E-04    1.33      19.0  T

   *** convergence criteria satisfied after 12 iterations ***

         #    Occupation            Energy/Eh            Energy/eV
      -------------------------------------------------------------
         1        2.0000           -0.8165995             -22.2208
       ...           ...                  ...                  ...
       206        2.0000           -0.3969866             -10.8026
       207        2.0000           -0.3949841             -10.7481
       208        2.0000           -0.3911014             -10.6424
       209        2.0000           -0.3837267             -10.4417
       210        2.0000           -0.3709653             -10.0945
       211        2.0000           -0.3657008              -9.9512
       212        2.0000           -0.3516209              -9.5681 (HOMO)
       213                         -0.3027677              -8.2387 (LUMO)
       214                         -0.2967657              -8.0754
       215                         -0.2829235              -7.6987
       216                         -0.2715328              -7.3888
       217                         -0.2609737              -7.1015
       ...                                ...                  ...
       413                          0.6890607              18.7503
      -------------------------------------------------------------
                  HL-Gap            0.0488532 Eh            1.3294 eV
             Fermi-level           -0.3271943 Eh           -8.9034 eV

 SCC (total)                   0 d,  0 h,  0 min,  0.279 sec
 SCC setup                      ...        0 min,  0.003 sec (  1.140%)
 Dispersion                     ...        0 min,  0.004 sec (  1.370%)
 classical contributions        ...        0 min,  0.000 sec (  0.059%)
 integral evaluation            ...        0 min,  0.017 sec (  5.953%)
 iterations                     ...        0 min,  0.204 sec ( 73.049%)
 molecular gradient             ...        0 min,  0.050 sec ( 17.893%)
 printout                       ...        0 min,  0.001 sec (  0.509%)

         :::::::::::::::::::::::::::::::::::::::::::::::::::::
         ::                     SUMMARY                     ::
         :::::::::::::::::::::::::::::::::::::::::::::::::::::
         :: total energy            -236.733165310658 Eh    ::
         :: total w/o Gsasa/hb      -236.664835142381 Eh    ::
         :: gradient norm              0.020663843526 Eh/a0 ::
         :: HOMO-LUMO gap              1.329363414036 eV    ::
         ::.................................................::
         :: SCC energy              -239.582090777844 Eh    ::
         :: -> isotropic ES            0.197532540949 Eh    ::
         :: -> anisotropic ES          0.001592843217 Eh    ::
         :: -> anisotropic XC          0.031769673508 Eh    ::
         :: -> dispersion             -0.192648985583 Eh    ::
         :: -> Gsolv                  -0.096767348185 Eh    ::
         ::    -> Gelec               -0.028437179908 Eh    ::
         ::    -> Gsasa               -0.073143524097 Eh    ::
         ::    -> Ghb                  0.000000000000 Eh    ::
         ::    -> Gshift               0.004813355820 Eh    ::
         :: repulsion energy           2.847739547295 Eh    ::
         :: add. restraining           0.000000000000 Eh    ::
         :: total charge              -0.000000000000 e     ::
         :::::::::::::::::::::::::::::::::::::::::::::::::::::

           -------------------------------------------------
          |                Property Printout                |
           -------------------------------------------------

    * Orbital Energies and Occupations

         #    Occupation            Energy/Eh            Energy/eV
      -------------------------------------------------------------
         1        2.0000           -0.8165995             -22.2208
       ...           ...                  ...                  ...
       200        2.0000           -0.4093397             -11.1387
       201        2.0000           -0.4078343             -11.0977
       202        2.0000           -0.4064094             -11.0590
       203        2.0000           -0.4057263             -11.0404
       204        2.0000           -0.4033422             -10.9755
       205        2.0000           -0.3997933             -10.8789
       206        2.0000           -0.3969866             -10.8026
       207        2.0000           -0.3949841             -10.7481
       208        2.0000           -0.3911014             -10.6424
       209        2.0000           -0.3837267             -10.4417
       210        2.0000           -0.3709653             -10.0945
       211        2.0000           -0.3657008              -9.9512
       212        2.0000           -0.3516209              -9.5681 (HOMO)
       213                         -0.3027677              -8.2387 (LUMO)
       214                         -0.2967657              -8.0754
       215                         -0.2829235              -7.6987
       216                         -0.2715328              -7.3888
       217                         -0.2609737              -7.1015
       218                         -0.2460003              -6.6940
       219                         -0.2408329              -6.5534
       220                         -0.2331652              -6.3447
       221                         -0.2269272              -6.1750
       222                         -0.2188435              -5.9550
       223                         -0.2129554              -5.7948
       ...                                ...                  ...
       413                          0.6890607              18.7503
      -------------------------------------------------------------
                  HL-Gap            0.0488532 Eh            1.3294 eV
             Fermi-level           -0.3271943 Eh           -8.9034 eV

     #   Z          covCN         q      C6AA      α(0)
     1   6 C        2.935    -0.028    28.698     8.786
     2  16 S        2.351     0.007   140.766    19.969
     3   6 C        2.986     0.021    27.529     8.607
     4   6 C        3.154    -0.027    28.361     8.709
     5   6 C        3.168    -0.016    28.041     8.652
     6   6 C        3.666     0.147    18.442     6.159
     7   9 F        0.785    -0.288    12.183     4.123
     8   6 C        3.808    -0.063    21.710     6.633
     9   6 C        3.809    -0.063    21.711     6.633
    10   6 C        3.665     0.149    18.429     6.157
    11   9 F        0.784    -0.288    12.182     4.123
    12   6 C        2.947    -0.040    28.996     8.832
    13   6 C        2.963    -0.039    28.967     8.828
    14   6 C        2.983     0.023    27.479     8.599
    15  16 S        2.406    -0.007   141.338    20.009
    16   6 C        2.978     0.027    27.398     8.586
    17   6 C        3.167    -0.027    28.316     8.695
    18   6 C        3.138    -0.027    28.445     8.729
    19   6 C        3.664     0.150    18.406     6.154
    20   9 F        0.785    -0.281    12.106     4.110
    21   6 C        3.809    -0.069    21.811     6.648
    22   6 C        3.809    -0.068    21.803     6.647
    23   6 C        3.666     0.151    18.394     6.150
    24   9 F        0.785    -0.281    12.108     4.110
    25   6 C        2.920    -0.033    28.823     8.804
    26   6 C        2.920    -0.034    28.836     8.806
    27   6 C        2.983     0.024    27.462     8.596
    28  16 S        2.363    -0.006   141.316    20.008
    29   6 C        2.994     0.026    27.423     8.590
    30   6 C        3.154    -0.025    28.334     8.705
    31   6 C        3.159    -0.023    28.260     8.691
    32   6 C        3.665     0.149    18.417     6.155
    33   9 F        0.784    -0.287    12.173     4.121
    34   6 C        3.808    -0.063    21.710     6.633
    35   6 C        3.809    -0.063    21.708     6.632
    36   6 C        3.665     0.151    18.397     6.151
    37   9 F        0.784    -0.289    12.192     4.124
    38   6 C        2.921    -0.046    29.144     8.853
    39   6 C        2.921    -0.033    28.824     8.804
    40   6 C        2.987     0.026    27.408     8.588
    41  16 S        2.306    -0.028   142.215    20.071
    42   6 C        3.028     0.022    27.492     8.601
    43   6 C        3.015    -0.012    28.289     8.725
    44   6 C        3.049     0.138    24.958     8.193
    45   8 O        1.702    -0.301    19.009     5.886
    46   6 C        3.793     0.141    18.318     6.095
    47   6 C        3.803    -0.063    21.714     6.634
    48   6 C        3.751    -0.109    22.645     6.786
    49   6 C        3.804    -0.062    21.682     6.629
    50   6 C        3.752    -0.104    22.541     6.771
    51   6 C        3.147    -0.023    28.311     8.704
    52   6 C        3.101    -0.053    29.179     8.852
    53   6 C        3.077    -0.070    29.662     8.929
    54   6 C        3.040     0.023    27.463     8.595
    55  16 S        2.393    -0.031   142.329    20.079
    56   6 C        3.027     0.020    27.543     8.609
    57  16 S        2.480    -0.015   141.678    20.033
    58   6 C        2.978     0.027    27.389     8.585
    59   6 C        3.145    -0.025    28.367     8.714
    60   6 C        3.151    -0.027    28.390     8.715
    61   6 C        3.666     0.151    18.392     6.150
    62   9 F        0.785    -0.281    12.105     4.110
    63   6 C        3.809    -0.068    21.803     6.647
    64   6 C        3.809    -0.069    21.810     6.648
    65   6 C        3.665     0.149    18.421     6.156
    66   9 F        0.785    -0.282    12.121     4.113
    67   6 C        2.967    -0.037    28.913     8.820
    68   6 C        2.925    -0.038    28.956     8.825
    69   6 C        2.984     0.025    27.446     8.594
    70  16 S        2.376    -0.027   142.161    20.067
    71   6 C        2.983     0.026    27.415     8.589
    72   6 C        3.144    -0.026    28.390     8.718
    73   6 C        3.157    -0.029    28.402     8.714
    74   6 C        3.665     0.149    18.417     6.155
    75   9 F        0.785    -0.285    12.150     4.117
    76   6 C        3.809    -0.068    21.795     6.645
    77   6 C        3.809    -0.068    21.803     6.647
    78   6 C        3.665     0.152    18.381     6.149
    79   9 F        0.785    -0.280    12.099     4.109
    80   6 C        2.946    -0.029    28.725     8.790
    81   6 C        2.838    -0.083    30.067     8.986
    82   1 H        0.926     0.062     2.175     2.306
    83   1 H        0.924     0.053     2.278     2.361
    84   1 H        0.924     0.060     2.201     2.320
    85   1 H        0.924     0.063     2.166     2.302
    86   1 H        0.924     0.061     2.188     2.313
    87   1 H        0.924     0.060     2.203     2.321
    88   1 H        0.923     0.055     2.260     2.351
    89   1 H        0.926     0.064     2.149     2.292
    90   1 H        0.926     0.069     2.096     2.264
    91   1 H        0.923     0.055     2.253     2.348
    92   1 H        0.924     0.061     2.188     2.313
    93   1 H        0.924     0.062     2.178     2.308
    94   1 H        0.924     0.061     2.185     2.312
    95   1 H        0.924     0.061     2.189     2.314
    96   1 H        0.923     0.056     2.247     2.344
    97   1 H        0.925     0.061     2.190     2.314
    98   1 H        0.925     0.059     2.212     2.326
    99   1 H        0.923     0.055     2.253     2.347
   100   1 H        0.924     0.061     2.191     2.315
   101   1 H        0.924     0.062     2.173     2.305
   102   1 H        0.924     0.059     2.215     2.328
   103   1 H        0.924     0.062     2.175     2.306
   104   1 H        0.923     0.049     2.327     2.386
   105   1 H        0.925     0.054     2.275     2.359
   106   1 H        0.925     0.054     2.265     2.353
   107   1 H        0.924     0.034     2.532     2.488
   108   1 H        0.924     0.044     2.391     2.418
   109   1 H        0.925     0.040     2.449     2.447
   110   1 H        0.925     0.047     2.361     2.403
   111   1 H        0.925     0.045     2.380     2.413
   112   1 H        0.924     0.050     2.318     2.381
   113   1 H        0.925     0.049     2.336     2.390
   114   1 H        0.925     0.038     2.476     2.461
   115   1 H        0.925     0.042     2.428     2.437
   116   1 H        0.925     0.045     2.382     2.413
   117   1 H        0.926     0.050     2.319     2.381
   118   1 H        0.926     0.065     2.138     2.287
   119   1 H        0.923     0.055     2.261     2.352
   120   1 H        0.924     0.062     2.175     2.307
   121   1 H        0.924     0.062     2.176     2.307
   122   1 H        0.924     0.062     2.181     2.310
   123   1 H        0.924     0.062     2.177     2.307
   124   1 H        0.923     0.061     2.184     2.311
   125   1 H        0.925     0.062     2.178     2.308
   126   1 H        0.926     0.073     2.056     2.242
   127   1 H        0.923     0.059     2.212     2.326
   128   1 H        0.924     0.060     2.196     2.317
   129   1 H        0.924     0.060     2.199     2.319
   130   1 H        0.924     0.060     2.194     2.316
   131   1 H        0.924     0.060     2.196     2.317
   132   1 H        0.923     0.055     2.262     2.352
   133   1 H        0.925     0.052     2.291     2.367
   134   1 H        0.926     0.051     2.307     2.375
   135   1 H        0.926     0.053     2.279     2.361

 Mol. C6AA /au·bohr⁶  :     266203.722581
 Mol. C8AA /au·bohr⁸  :    7344002.630888
 Mol. α(0) /au        :        805.381083


Wiberg/Mayer (AO) data.
largest (>0.10) Wiberg bond orders for each atom

 ---------------------------------------------------------------------------
     #   Z sym  total        # sym  WBO       # sym  WBO       # sym  WBO
 ---------------------------------------------------------------------------
     1   6 C    3.932 --     5 C    1.572     2 S    1.213    82 H    0.968
     2  16 S    2.622 --     1 C    1.213     3 C    1.137
     3   6 C    3.952 --     4 C    1.477    12 C    1.164     2 S    1.137
     4   6 C    3.949 --     3 C    1.477     5 C    1.257    10 C    0.995
     5   6 C    3.981 --     1 C    1.572     4 C    1.257     6 C    0.990
     6   6 C    3.893 --     8 C    0.996     5 C    0.990    83 H    0.958
                             7 F    0.895
     7   9 F    0.973 --     6 C    0.895
     8   6 C    3.993 --     9 C    1.009     6 C    0.996    84 H    0.973
                            85 H    0.972
     9   6 C    3.994 --     8 C    1.009    10 C    0.994    86 H    0.973
                            87 H    0.973
    10   6 C    3.893 --     4 C    0.995     9 C    0.994    88 H    0.954
                            11 F    0.892
    11   9 F    0.974 --    10 C    0.892
    12   6 C    3.971 --    13 C    1.678     3 C    1.164    89 H    0.955
    13   6 C    3.986 --    12 C    1.678    14 C    1.175    90 H    0.954
    14   6 C    3.944 --    18 C    1.445    13 C    1.175    15 S    1.137
    15  16 S    2.612 --    16 C    1.149    14 C    1.137
    16   6 C    3.939 --    17 C    1.457    15 S    1.149    25 C    1.144
    17   6 C    3.964 --    16 C    1.457    18 C    1.293    23 C    0.992
    18   6 C    3.953 --    14 C    1.445    17 C    1.293    19 C    0.992
    19   6 C    3.892 --    18 C    0.992    21 C    0.991    91 H    0.949
                            20 F    0.903
    20   9 F    0.980 --    19 C    0.903
    21   6 C    3.992 --    22 C    1.008    19 C    0.991    92 H    0.974
                            93 H    0.973
    22   6 C    3.992 --    21 C    1.008    23 C    0.991    94 H    0.974
                            95 H    0.973
    23   6 C    3.893 --    17 C    0.992    22 C    0.991    96 H    0.948
                            24 F    0.906
    24   9 F    0.979 --    23 C    0.906
    25   6 C    3.983 --    26 C    1.736    16 C    1.144    97 H    0.951
    26   6 C    3.971 --    25 C    1.736    27 C    1.131    98 H    0.947
    27   6 C    3.951 --    31 C    1.497    28 S    1.132    26 C    1.131
    28  16 S    2.614 --    29 C    1.148    27 C    1.132
    29   6 C    3.945 --    30 C    1.517    28 S    1.148    38 C    1.064
    30   6 C    3.977 --    29 C    1.517    31 C    1.255    36 C    0.991
    31   6 C    3.964 --    27 C    1.497    30 C    1.255    32 C    0.994
    32   6 C    3.893 --    34 C    0.995    31 C    0.994    99 H    0.952
                            33 F    0.895
    33   9 F    0.973 --    32 C    0.895
    34   6 C    3.994 --    35 C    1.009    32 C    0.995   100 H    0.972
                           101 H    0.972
    35   6 C    3.994 --    34 C    1.009    36 C    0.995   102 H    0.973
                           103 H    0.973
    36   6 C    3.893 --    35 C    0.995    30 C    0.991   104 H    0.958
                            37 F    0.893
    37   9 F    0.974 --    36 C    0.893
    38   6 C    3.952 --    39 C    1.758    29 C    1.064   105 H    0.952
    39   6 C    3.984 --    38 C    1.758    40 C    1.163   106 H    0.956
    40   6 C    3.923 --    52 C    1.466    39 C    1.163    41 S    1.126
    41  16 S    2.621 --    42 C    1.151    40 C    1.126
    42   6 C    3.956 --    51 C    1.409    43 C    1.186    41 S    1.151
    43   6 C    3.920 --    44 C    1.362    42 C    1.186    55 S    1.131
    44   6 C    3.925 --    43 C    1.362    53 C    1.291    45 O    1.075
    45   8 O    2.217 --    44 C    1.075    46 C    0.913
    46   6 C    3.923 --    51 C    0.981    49 C    0.978    47 C    0.959
                            45 O    0.913
    47   6 C    3.992 --    48 C    1.020   107 H    0.976   108 H    0.974
                            46 C    0.959
    48   6 C    3.994 --    47 C    1.020   111 H    0.985   109 H    0.985
                           110 H    0.984
    49   6 C    3.992 --    50 C    1.019    46 C    0.978   112 H    0.974
                           113 H    0.970
    50   6 C    3.995 --    49 C    1.019   115 H    0.986   116 H    0.986
                           114 H    0.985
    51   6 C    3.962 --    42 C    1.409    52 C    1.333    46 C    0.981
    52   6 C    3.978 --    40 C    1.466    51 C    1.333   117 H    0.961
    53   6 C    3.965 --    54 C    1.464    44 C    1.291   118 H    0.958
    54   6 C    3.929 --    53 C    1.464    56 C    1.174    55 S    1.120
    55  16 S    2.574 --    43 C    1.131    54 C    1.120
    56   6 C    3.934 --    60 C    1.431    54 C    1.174    57 S    1.139
    57  16 S    2.579 --    56 C    1.139    58 C    1.126
    58   6 C    3.928 --    59 C    1.429    67 C    1.195    57 S    1.126
    59   6 C    3.945 --    58 C    1.429    60 C    1.303    65 C    0.992
    60   6 C    3.959 --    56 C    1.431    59 C    1.303    61 C    0.992
    61   6 C    3.892 --    60 C    0.992    63 C    0.991   119 H    0.948
                            62 F    0.905
    62   9 F    0.980 --    61 C    0.905
    63   6 C    3.992 --    64 C    1.008    61 C    0.991   121 H    0.974
                           120 H    0.973
    64   6 C    3.992 --    63 C    1.008    65 C    0.992   123 H    0.974
                           122 H    0.973
    65   6 C    3.891 --    59 C    0.992    64 C    0.992   124 H    0.948
                            66 F    0.902
    66   9 F    0.978 --    65 C    0.902
    67   6 C    3.972 --    68 C    1.650    58 C    1.195   125 H    0.952
    68   6 C    3.964 --    67 C    1.650    69 C    1.191   126 H    0.949
    69   6 C    3.953 --    73 C    1.440    68 C    1.191    70 S    1.131
    70  16 S    2.588 --    71 C    1.142    69 C    1.131
    71   6 C    3.927 --    72 C    1.467    70 S    1.142    80 C    1.134
    72   6 C    3.977 --    71 C    1.467    73 C    1.291    78 C    0.991
    73   6 C    3.943 --    69 C    1.440    72 C    1.291    74 C    0.992
    74   6 C    3.891 --    76 C    0.992    73 C    0.992   127 H    0.950
                            75 F    0.901
    75   9 F    0.976 --    74 C    0.901
    76   6 C    3.993 --    77 C    1.008    74 C    0.992   129 H    0.974
                           128 H    0.973
    77   6 C    3.993 --    76 C    1.008    78 C    0.991   131 H    0.974
                           130 H    0.973
    78   6 C    3.893 --    77 C    0.991    72 C    0.991   132 H    0.949
                            79 F    0.906
    79   9 F    0.981 --    78 C    0.906
    80   6 C    3.989 --    81 C    1.860    71 C    1.134   133 H    0.960
    81   6 C    3.963 --    80 C    1.860   134 H    0.976   135 H    0.973
    82   1 H    0.995 --     1 C    0.968
    83   1 H    0.997 --     6 C    0.958
    84   1 H    0.995 --     8 C    0.973
    85   1 H    0.996 --     8 C    0.972
    86   1 H    0.996 --     9 C    0.973
    87   1 H    0.995 --     9 C    0.973
    88   1 H    0.996 --    10 C    0.954
    89   1 H    0.995 --    12 C    0.955
    90   1 H    0.995 --    13 C    0.954
    91   1 H    0.996 --    19 C    0.949
    92   1 H    0.995 --    21 C    0.974
    93   1 H    0.996 --    21 C    0.973
    94   1 H    0.995 --    22 C    0.974
    95   1 H    0.996 --    22 C    0.973
    96   1 H    0.996 --    23 C    0.948
    97   1 H    0.994 --    25 C    0.951
    98   1 H    0.995 --    26 C    0.947
    99   1 H    0.996 --    32 C    0.952
   100   1 H    0.995 --    34 C    0.972
   101   1 H    0.996 --    34 C    0.972
   102   1 H    0.995 --    35 C    0.973
   103   1 H    0.996 --    35 C    0.973
   104   1 H    0.997 --    36 C    0.958
   105   1 H    0.994 --    38 C    0.952
   106   1 H    0.996 --    39 C    0.956
   107   1 H    0.999 --    47 C    0.976
   108   1 H    0.997 --    47 C    0.974
   109   1 H    0.998 --    48 C    0.985
   110   1 H    0.998 --    48 C    0.984
   111   1 H    0.997 --    48 C    0.985
   112   1 H    0.997 --    49 C    0.974
   113   1 H    0.997 --    49 C    0.970
   114   1 H    0.999 --    50 C    0.985
   115   1 H    0.998 --    50 C    0.986
   116   1 H    0.998 --    50 C    0.986
   117   1 H    0.997 --    52 C    0.961
   118   1 H    0.995 --    53 C    0.958
   119   1 H    0.995 --    61 C    0.948
   120   1 H    0.996 --    63 C    0.973
   121   1 H    0.995 --    63 C    0.974
   122   1 H    0.996 --    64 C    0.973
   123   1 H    0.995 --    64 C    0.974
   124   1 H    0.995 --    65 C    0.948
   125   1 H    0.995 --    67 C    0.952
   126   1 H    0.994 --    68 C    0.949
   127   1 H    0.995 --    74 C    0.950
   128   1 H    0.996 --    76 C    0.973
   129   1 H    0.995 --    76 C    0.974
   130   1 H    0.996 --    77 C    0.973
   131   1 H    0.995 --    77 C    0.974
   132   1 H    0.997 --    78 C    0.949
   133   1 H    0.996 --    80 C    0.960
   134   1 H    0.997 --    81 C    0.976
   135   1 H    0.997 --    81 C    0.973
 ---------------------------------------------------------------------------

Topologies differ in bond orders
Writing corrected topology to xtbtopo.mol

molecular dipole:
                 x           y           z       tot (Debye)
 q only:       -0.553      -0.156       0.406
   full:       -1.288      -0.443       0.063       3.466
molecular quadrupole (traceless):
                xx          xy          yy          xz          yz          zz
 q only:       -6.149     -20.685      24.179      13.431      -0.030     -18.031
  q+dip:       -6.579     -18.972      40.989      22.856      13.063     -34.410
   full:       -7.043     -17.044      38.063      20.139      10.471     -31.020


           -------------------------------------------------
          | TOTAL ENERGY             -236.733165310658 Eh   |
          | GRADIENT NORM               0.020663843526 Eh/α |
          | HOMO-LUMO GAP               1.329363414036 eV   |
           -------------------------------------------------

------------------------------------------------------------------------
 * finished run on 2022/03/02 at 15:24:38.361     
------------------------------------------------------------------------
 total:
 * wall-time:     0 d,  0 h,  0 min,  0.734 sec
 *  cpu-time:     0 d,  0 h,  0 min,  3.800 sec
 * ratio c/w:     5.178 speedup
 SCF:
 * wall-time:     0 d,  0 h,  0 min,  0.281 sec
 *  cpu-time:     0 d,  0 h,  0 min,  2.239 sec
 * ratio c/w:     7.964 speedup

