      -----------------------------------------------------------      
     |                   =====================                   |     
     |                           x T B                           |     
     |                   =====================                   |     
     |                         S. Grimme                         |     
     |          Mulliken Center for Theoretical Chemistry        |     
     |                    University of Bonn                     |     
      -----------------------------------------------------------      

   * xtb version 6.4.1 (unknown) compiled by 'oda6@login1.crc.pitt.edu' on 2021-06-25

   xtb is free software: you can redistribute it and/or modify it under
   the terms of the GNU Lesser General Public License as published by
   the Free Software Foundation, either version 3 of the License, or
   (at your option) any later version.
   
   xtb is distributed in the hope that it will be useful,
   but WITHOUT ANY WARRANTY; without even the implied warranty of
   MERCHANTABILITY or FITNESS FOR A PARTICULAR PURPOSE.  See the
   GNU Lesser General Public License for more details.
   
   Cite this work as:
   * C. Bannwarth, E. Caldeweyher, S. Ehlert, A. Hansen, P. Pracht,
     J. Seibert, S. Spicher, S. Grimme, WIREs Comput. Mol. Sci., 2020, 11,
     e01493. DOI: 10.1002/wcms.1493
   
   for GFN2-xTB:
   * C. Bannwarth, S. Ehlert and S. Grimme., J. Chem. Theory Comput., 2019,
     15, 1652-1671. DOI: 10.1021/acs.jctc.8b01176
   for GFN1-xTB:
   * S. Grimme, C. Bannwarth, P. Shushkov, J. Chem. Theory Comput., 2017,
     13, 1989-2009. DOI: 10.1021/acs.jctc.7b00118
   for GFN0-xTB:
   * P. Pracht, E. Caldeweyher, S. Ehlert, S. Grimme, ChemRxiv, 2019, preprint.
     DOI: 10.26434/chemrxiv.8326202.v1
   for GFN-FF:
   * S. Spicher and S. Grimme, Angew. Chem. Int. Ed., 2020, 59, 15665-15673.
     DOI: 10.1002/anie.202004239
   
   for DFT-D4:
   * E. Caldeweyher, C. Bannwarth and S. Grimme, J. Chem. Phys., 2017,
     147, 034112. DOI: 10.1063/1.4993215
   * E. Caldeweyher, S. Ehlert, A. Hansen, H. Neugebauer, S. Spicher,
     C. Bannwarth and S. Grimme, J. Chem. Phys., 2019, 150, 154122.
     DOI: 10.1063/1.5090222
   * E. Caldeweyher, J.-M. Mewes, S. Ehlert and S. Grimme, Phys. Chem. Chem. Phys.
     2020, 22, 8499-8512. DOI: 10.1039/D0CP00502A
   
   for sTDA-xTB:
   * S. Grimme and C. Bannwarth, J. Chem. Phys., 2016, 145, 054103.
     DOI: 10.1063/1.4959605
   
   in the mass-spec context:
   * V. Asgeirsson, C. Bauer and S. Grimme, Chem. Sci., 2017, 8, 4879.
     DOI: 10.1039/c7sc00601b
   * J. Koopman and S. Grimme, ACS Omega 2019, 4, 12, 15120-15133.
     DOI: 10.1021/acsomega.9b02011
   
   for metadynamics refer to:
   * S. Grimme, J. Chem. Theory Comput., 2019, 155, 2847-2862
     DOI: 10.1021/acs.jctc.9b00143
   
   for SPH calculations refer to:
   * S. Spicher and S. Grimme, J. Chem. Theory Comput., 2021, 17, 1701-1714
     DOI: 10.1021/acs.jctc.0c01306
   
   with help from (in alphabetical order)
   P. Atkinson, C. Bannwarth, F. Bohle, G. Brandenburg, E. Caldeweyher
   M. Checinski, S. Dohm, S. Ehlert, S. Ehrlich, I. Gerasimov, J. Koopman
   C. Lavigne, S. Lehtola, F. März, M. Müller, F. Musil, H. Neugebauer
   J. Pisarek, C. Plett, P. Pracht, J. Seibert, P. Shushkov, S. Spicher
   M. Stahn, M. Steiner, T. Strunk, J. Stückrath, T. Rose, and J. Unsleber
   
 * started run on 2022/03/02 at 21:58:06.051     

           -------------------------------------------------
          |                Calculation Setup                |
           -------------------------------------------------

          program call               : /ihome/ghutchison/oda6/xtb/xtb-641/bin/xtb ../../GFN2_output/121_61_000001.mol --sp --alpb hexane
          hostname                   : smp-n90
          coordinate file            : ../../GFN2_output/121_61_000001.mol
          omp threads                :                     8
          number of atoms            :                   184
          number of electrons        :                   564
          charge                     :                     0
          spin                       :                   0.0
          first test random number   :      0.65650842422769

   ID    Z sym.   atoms
    1    6 C      1, 3-5, 7-15, 17, 19-21, 23-31, 33, 35-37, 39-47, 49,
                  51-53, 55-63, 65, 67-69, 71-79, 81-85, 87-90, 92, 94-97,
                  99-103, 106, 108, 109
    2   16 S      2, 16, 18, 32, 34, 48, 50, 64, 66, 80, 86, 98, 107, 110
    3    8 O      6, 22, 38, 54, 70
    4   17 Cl     91, 93, 104, 105
    5    1 H      111-184

           -------------------------------------------------
          |                 G F N 2 - x T B                 |
           -------------------------------------------------

        Reference                      10.1021/acs.jctc.8b01176
      * Hamiltonian:
        H0-scaling (s, p, d)           1.850000    2.230000    2.230000
        zeta-weighting                 0.500000
      * Dispersion:
        s8                             2.700000
        a1                             0.520000
        a2                             5.000000
        s9                             5.000000
      * Repulsion:
        kExp                           1.500000    1.000000
        rExp                           1.000000
      * Coulomb:
        alpha                          2.000000
        third order                    shell-resolved
        anisotropic                    true
        a3                             3.000000
        a5                             4.000000
        cn-shift                       1.200000
        cn-exp                         4.000000
        max-rad                        5.000000

      * Solvation model:               ALPB
        Solvent                        hexane
        Parameter file                 internal GFN2-xTB/ALPB
        Dielectric constant                1.8800E+00
        Reference state                gsolv [1 M gas/solution]
        Free energy shift                  4.8134E-03 Eh       3.0204E+00 kcal/mol
        Temperature                        2.9815E+02 K
        Density                            6.6000E-01 kg/L
        Solvent mass                       8.6180E+01 g/mol
        Interaction kernel             P16
        Born radius scaling (c1)           1.1040E+00
        Born radii integrator          GBOBC
        Born offset                        0.0000E+00 a0       0.0000E+00 AA
        H-bond correction              false
        Ion screening                  false
        Surface tension                    1.0000E-05 Eh       1.5569E+01 dyn/cm
        Grid points                               230 per atom

          ...................................................
          :                      SETUP                      :
          :.................................................:
          :  # basis functions                 622          :
          :  # atomic orbitals                 604          :
          :  # shells                          312          :
          :  # electrons                       564          :
          :  max. iterations                   250          :
          :  Hamiltonian                  GFN2-xTB          :
          :  restarted?                      false          :
          :  GBSA solvation                   true          :
          :  PC potential                    false          :
          :  electronic temp.          300.0000000     K    :
          :  accuracy                    1.0000000          :
          :  -> integral cutoff          0.2500000E+02      :
          :  -> integral neglect         0.1000000E-07      :
          :  -> SCF convergence          0.1000000E-05 Eh   :
          :  -> wf. convergence          0.1000000E-03 e    :
          :  Broyden damping             0.4000000          :
          ...................................................

 iter      E             dE          RMSdq      gap      omega  full diag
   1   -312.2020923 -0.312202E+03  0.404E+00    0.96       0.0  T
   2   -312.4021611 -0.200069E+00  0.217E+00    0.96       1.0  T
   3   -312.3516618  0.504993E-01  0.977E-01    1.01       1.0  T
   4   -312.4245761 -0.729144E-01  0.389E-01    0.94       1.0  T
   5   -312.4340668 -0.949070E-02  0.139E-01    0.97       1.0  T
   6   -312.4344936 -0.426780E-03  0.669E-02    0.96       1.0  T
   7   -312.4347962 -0.302569E-03  0.347E-02    0.96       1.0  T
   8   -312.4348524 -0.562378E-04  0.250E-02    0.97       1.0  T
   9   -312.4348814 -0.289499E-04  0.158E-02    0.97       1.0  T
  10   -312.4348960 -0.146122E-04  0.104E-02    0.97       1.0  T
  11   -312.4349022 -0.618391E-05  0.596E-03    0.97       1.2  T
  12   -312.4349047 -0.250883E-05  0.270E-03    0.97       2.7  T
  13   -312.4349052 -0.502659E-06  0.131E-03    0.97       5.6  T
  14   -312.4349052 -0.765336E-07  0.877E-04    0.97       8.4  T
  15   -312.4349053 -0.302960E-07  0.533E-04    0.97      13.8  T

   *** convergence criteria satisfied after 15 iterations ***

         #    Occupation            Energy/Eh            Energy/eV
      -------------------------------------------------------------
         1        2.0000           -1.0707327             -29.1361
       ...           ...                  ...                  ...
       276        2.0000           -0.3927269             -10.6866
       277        2.0000           -0.3768321             -10.2541
       278        2.0000           -0.3720815             -10.1249
       279        2.0000           -0.3683976             -10.0246
       280        2.0000           -0.3596667              -9.7870
       281        2.0000           -0.3503964              -9.5348
       282        2.0000           -0.3417712              -9.3001 (HOMO)
       283                         -0.3061021              -8.3295 (LUMO)
       284                         -0.2986438              -8.1265
       285                         -0.2897015              -7.8832
       286                         -0.2811820              -7.6514
       287                         -0.2731124              -7.4318
       ...                                ...                  ...
       604                          0.7079208              19.2635
      -------------------------------------------------------------
                  HL-Gap            0.0356691 Eh            0.9706 eV
             Fermi-level           -0.3239368 Eh           -8.8148 eV

 SCC (total)                   0 d,  0 h,  0 min,  0.652 sec
 SCC setup                      ...        0 min,  0.007 sec (  1.018%)
 Dispersion                     ...        0 min,  0.008 sec (  1.170%)
 classical contributions        ...        0 min,  0.000 sec (  0.044%)
 integral evaluation            ...        0 min,  0.033 sec (  5.021%)
 iterations                     ...        0 min,  0.519 sec ( 79.587%)
 molecular gradient             ...        0 min,  0.083 sec ( 12.689%)
 printout                       ...        0 min,  0.003 sec (  0.461%)

         :::::::::::::::::::::::::::::::::::::::::::::::::::::
         ::                     SUMMARY                     ::
         :::::::::::::::::::::::::::::::::::::::::::::::::::::
         :: total energy            -308.379906081180 Eh    ::
         :: total w/o Gsasa/hb      -308.265039254863 Eh    ::
         :: gradient norm              0.012611977229 Eh/a0 ::
         :: HOMO-LUMO gap              0.970604569635 eV    ::
         ::.................................................::
         :: SCC energy              -312.434905268831 Eh    ::
         :: -> isotropic ES            0.120301940384 Eh    ::
         :: -> anisotropic ES          0.011657109608 Eh    ::
         :: -> anisotropic XC          0.095270351252 Eh    ::
         :: -> dispersion             -0.293898181367 Eh    ::
         :: -> Gsolv                  -0.129213243868 Eh    ::
         ::    -> Gelec               -0.014346417551 Eh    ::
         ::    -> Gsasa               -0.119680182136 Eh    ::
         ::    -> Ghb                  0.000000000000 Eh    ::
         ::    -> Gshift               0.004813355820 Eh    ::
         :: repulsion energy           4.055815944836 Eh    ::
         :: add. restraining           0.000000000000 Eh    ::
         :: total charge              -0.000000000004 e     ::
         :::::::::::::::::::::::::::::::::::::::::::::::::::::

           -------------------------------------------------
          |                Property Printout                |
           -------------------------------------------------

    * Orbital Energies and Occupations

         #    Occupation            Energy/Eh            Energy/eV
      -------------------------------------------------------------
         1        2.0000           -1.0707327             -29.1361
       ...           ...                  ...                  ...
       270        2.0000           -0.3972695             -10.8103
       271        2.0000           -0.3969133             -10.8006
       272        2.0000           -0.3964511             -10.7880
       273        2.0000           -0.3957114             -10.7679
       274        2.0000           -0.3951171             -10.7517
       275        2.0000           -0.3934225             -10.7056
       276        2.0000           -0.3927269             -10.6866
       277        2.0000           -0.3768321             -10.2541
       278        2.0000           -0.3720815             -10.1249
       279        2.0000           -0.3683976             -10.0246
       280        2.0000           -0.3596667              -9.7870
       281        2.0000           -0.3503964              -9.5348
       282        2.0000           -0.3417712              -9.3001 (HOMO)
       283                         -0.3061021              -8.3295 (LUMO)
       284                         -0.2986438              -8.1265
       285                         -0.2897015              -7.8832
       286                         -0.2811820              -7.6514
       287                         -0.2731124              -7.4318
       288                         -0.2642663              -7.1911
       289                         -0.2640328              -7.1847
       290                         -0.2531358              -6.8882
       291                         -0.2460677              -6.6958
       292                         -0.2426356              -6.6024
       293                         -0.2382405              -6.4829
       ...                                ...                  ...
       604                          0.7079208              19.2635
      -------------------------------------------------------------
                  HL-Gap            0.0356691 Eh            0.9706 eV
             Fermi-level           -0.3239368 Eh           -8.8148 eV

     #   Z          covCN         q      C6AA      α(0)
     1   6 C        2.942    -0.025    28.634     8.776
     2  16 S        2.279    -0.033   142.405    20.085
     3   6 C        3.022     0.018    27.590     8.616
     4   6 C        3.012    -0.017    28.415     8.744
     5   6 C        3.048     0.136    24.983     8.198
     6   8 O        1.702    -0.294    18.888     5.868
     7   6 C        3.793     0.140    18.322     6.096
     8   6 C        3.802    -0.060    21.659     6.626
     9   6 C        3.751    -0.105    22.559     6.774
    10   6 C        3.806    -0.061    21.661     6.625
    11   6 C        3.751    -0.102    22.519     6.768
    12   6 C        3.168    -0.037    28.553     8.731
    13   6 C        3.098    -0.054    29.205     8.856
    14   6 C        3.077    -0.077    29.829     8.954
    15   6 C        3.026     0.021    27.506     8.603
    16  16 S        2.299    -0.051   143.150    20.137
    17   6 C        3.025     0.017    27.598     8.617
    18  16 S        2.292    -0.041   142.767    20.110
    19   6 C        3.022     0.022    27.496     8.601
    20   6 C        3.012    -0.015    28.374     8.738
    21   6 C        3.044     0.138    24.955     8.193
    22   8 O        1.702    -0.302    19.023     5.889
    23   6 C        3.793     0.141    18.311     6.094
    24   6 C        3.803    -0.060    21.658     6.626
    25   6 C        3.751    -0.106    22.595     6.779
    26   6 C        3.803    -0.062    21.693     6.631
    27   6 C        3.751    -0.108    22.621     6.783
    28   6 C        3.143    -0.028    28.453     8.728
    29   6 C        3.089    -0.057    29.314     8.875
    30   6 C        3.076    -0.077    29.831     8.955
    31   6 C        3.029     0.022    27.476     8.598
    32  16 S        2.294    -0.047   142.991    20.126
    33   6 C        3.025     0.017    27.603     8.618
    34  16 S        2.297    -0.039   142.684    20.104
    35   6 C        3.024     0.022    27.490     8.600
    36   6 C        3.014    -0.016    28.400     8.742
    37   6 C        3.040     0.140    24.920     8.188
    38   8 O        1.702    -0.290    18.827     5.858
    39   6 C        3.790     0.141    18.323     6.096
    40   6 C        3.805    -0.063    21.704     6.632
    41   6 C        3.751    -0.106    22.586     6.778
    42   6 C        3.804    -0.064    21.733     6.637
    43   6 C        3.752    -0.103    22.533     6.769
    44   6 C        3.148    -0.027    28.409     8.719
    45   6 C        3.086    -0.057    29.308     8.874
    46   6 C        3.076    -0.080    29.917     8.968
    47   6 C        3.027     0.023    27.471     8.597
    48  16 S        2.343    -0.040   142.723    20.107
    49   6 C        3.027     0.016    27.623     8.621
    50  16 S        2.339    -0.032   142.361    20.082
    51   6 C        3.024     0.022    27.488     8.600
    52   6 C        3.014    -0.016    28.388     8.740
    53   6 C        3.042     0.140    24.916     8.187
    54   8 O        1.702    -0.295    18.903     5.870
    55   6 C        3.793     0.141    18.322     6.095
    56   6 C        3.803    -0.064    21.730     6.637
    57   6 C        3.751    -0.108    22.635     6.785
    58   6 C        3.804    -0.063    21.700     6.632
    59   6 C        3.752    -0.104    22.546     6.771
    60   6 C        3.145    -0.024    28.347     8.711
    61   6 C        3.085    -0.057    29.302     8.874
    62   6 C        3.074    -0.077    29.834     8.955
    63   6 C        3.026     0.023    27.476     8.598
    64  16 S        2.298    -0.043   142.837    20.115
    65   6 C        3.029     0.018    27.588     8.615
    66  16 S        2.291    -0.031   142.333    20.080
    67   6 C        3.023     0.022    27.493     8.601
    68   6 C        3.013    -0.012    28.303     8.727
    69   6 C        3.046     0.138    24.959     8.194
    70   8 O        1.702    -0.299    18.984     5.883
    71   6 C        3.794     0.141    18.317     6.095
    72   6 C        3.804    -0.063    21.708     6.633
    73   6 C        3.752    -0.104    22.542     6.771
    74   6 C        3.802    -0.064    21.725     6.636
    75   6 C        3.751    -0.109    22.651     6.787
    76   6 C        3.144    -0.021    28.261     8.698
    77   6 C        3.087    -0.055    29.273     8.869
    78   6 C        3.077    -0.074    29.767     8.945
    79   6 C        3.028     0.021    27.519     8.605
    80  16 S        2.339    -0.018   141.785    20.041
    81   6 C        3.020     0.034    27.206     8.556
    82   6 C        3.064    -0.059    29.399     8.891
    83   6 C        3.137     0.001    27.780     8.627
    84   6 C        3.011    -0.001    28.025     8.684
    85   6 C        3.014     0.006    27.862     8.659
    86  16 S        2.378     0.012   140.568    19.955
    87   6 C        3.008     0.013    27.705     8.634
    88   6 C        3.824    -0.057    21.576     6.610
    89   6 C        3.754    -0.107    22.595     6.778
    90   6 C        3.110     0.065    26.395     8.417
    91  17 Cl       0.949    -0.165   104.317    15.626
    92   6 C        3.100     0.070    26.314     8.406
    93  17 Cl       0.958    -0.156   104.049    15.606
    94   6 C        3.006     0.027    27.378     8.583
    95   6 C        3.150    -0.000    27.749     8.616
    96   6 C        3.014     0.001    27.975     8.676
    97   6 C        3.015     0.006    27.865     8.659
    98  16 S        2.388     0.022   140.172    19.927
    99   6 C        3.009     0.014    27.682     8.631
   100   6 C        3.824    -0.057    21.577     6.610
   101   6 C        3.754    -0.107    22.604     6.779
   102   6 C        3.108     0.065    26.413     8.420
   103   6 C        3.100     0.070    26.322     8.408
   104  17 Cl       0.945    -0.163   104.271    15.622
   105  17 Cl       0.947    -0.166   104.343    15.627
   106   6 C        3.007     0.028    27.370     8.582
   107  16 S        2.328    -0.052   143.197    20.140
   108   6 C        3.072    -0.046    29.058     8.839
   109   6 C        2.936    -0.007    28.187     8.707
   110  16 S        2.266    -0.046   142.960    20.124
   111   1 H        0.926     0.053     2.278     2.360
   112   1 H        0.924     0.045     2.389     2.417
   113   1 H        0.924     0.042     2.420     2.433
   114   1 H        0.925     0.048     2.351     2.398
   115   1 H        0.925     0.039     2.469     2.457
   116   1 H        0.925     0.048     2.342     2.393
   117   1 H        0.924     0.029     2.595     2.519
   118   1 H        0.924     0.038     2.481     2.463
   119   1 H        0.925     0.047     2.359     2.402
   120   1 H        0.925     0.043     2.409     2.427
   121   1 H        0.925     0.039     2.465     2.455
   122   1 H        0.926     0.044     2.390     2.417
   123   1 H        0.926     0.060     2.196     2.317
   124   1 H        0.924     0.044     2.396     2.421
   125   1 H        0.925     0.050     2.316     2.380
   126   1 H        0.925     0.043     2.413     2.429
   127   1 H        0.925     0.042     2.428     2.437
   128   1 H        0.925     0.050     2.321     2.383
   129   1 H        0.924     0.052     2.291     2.367
   130   1 H        0.924     0.029     2.594     2.519
   131   1 H        0.925     0.045     2.386     2.416
   132   1 H        0.925     0.040     2.448     2.447
   133   1 H        0.925     0.044     2.400     2.423
   134   1 H        0.926     0.054     2.273     2.357
   135   1 H        0.926     0.062     2.173     2.305
   136   1 H        0.924     0.042     2.429     2.437
   137   1 H        0.924     0.034     2.525     2.485
   138   1 H        0.925     0.042     2.417     2.431
   139   1 H        0.925     0.048     2.347     2.396
   140   1 H        0.925     0.042     2.418     2.432
   141   1 H        0.925     0.058     2.228     2.334
   142   1 H        0.925     0.047     2.360     2.402
   143   1 H        0.925     0.038     2.478     2.462
   144   1 H        0.925     0.043     2.415     2.430
   145   1 H        0.925     0.041     2.430     2.438
   146   1 H        0.926     0.054     2.275     2.358
   147   1 H        0.926     0.058     2.224     2.332
   148   1 H        0.924     0.035     2.522     2.483
   149   1 H        0.924     0.047     2.363     2.404
   150   1 H        0.925     0.042     2.420     2.433
   151   1 H        0.925     0.046     2.367     2.406
   152   1 H        0.925     0.041     2.437     2.441
   153   1 H        0.924     0.051     2.302     2.373
   154   1 H        0.925     0.050     2.324     2.384
   155   1 H        0.925     0.038     2.478     2.462
   156   1 H        0.925     0.045     2.380     2.413
   157   1 H        0.925     0.042     2.419     2.432
   158   1 H        0.926     0.052     2.290     2.366
   159   1 H        0.926     0.063     2.162     2.300
   160   1 H        0.924     0.052     2.294     2.369
   161   1 H        0.925     0.052     2.297     2.370
   162   1 H        0.925     0.044     2.390     2.418
   163   1 H        0.925     0.038     2.481     2.463
   164   1 H        0.925     0.043     2.411     2.428
   165   1 H        0.924     0.033     2.538     2.492
   166   1 H        0.924     0.048     2.351     2.398
   167   1 H        0.925     0.043     2.406     2.425
   168   1 H        0.925     0.043     2.414     2.429
   169   1 H        0.925     0.047     2.360     2.402
   170   1 H        0.926     0.059     2.216     2.328
   171   1 H        0.926     0.063     2.158     2.297
   172   1 H        0.926     0.056     2.243     2.342
   173   1 H        0.924     0.064     2.155     2.296
   174   1 H        0.924     0.065     2.136     2.286
   175   1 H        0.925     0.047     2.364     2.404
   176   1 H        0.925     0.048     2.344     2.394
   177   1 H        0.925     0.052     2.294     2.368
   178   1 H        0.924     0.064     2.152     2.294
   179   1 H        0.924     0.065     2.140     2.288
   180   1 H        0.925     0.051     2.314     2.379
   181   1 H        0.925     0.052     2.295     2.369
   182   1 H        0.925     0.047     2.360     2.402
   183   1 H        0.926     0.052     2.293     2.368
   184   1 H        0.926     0.059     2.211     2.325

 Mol. C6AA /au·bohr⁶  :     611504.345257
 Mol. C8AA /au·bohr⁸  :   18362576.080033
 Mol. α(0) /au        :       1243.445297


Wiberg/Mayer (AO) data.
largest (>0.10) Wiberg bond orders for each atom

 ---------------------------------------------------------------------------
     #   Z sym  total        # sym  WBO       # sym  WBO       # sym  WBO
 ---------------------------------------------------------------------------
     1   6 C    3.915 --    13 C    1.601     2 S    1.183   111 H    0.970
     2  16 S    2.596 --     1 C    1.183     3 C    1.136
     3   6 C    3.952 --    12 C    1.456     4 C    1.173     2 S    1.136
     4   6 C    3.909 --     5 C    1.375     3 C    1.173    16 S    1.121
     5   6 C    3.936 --     4 C    1.375    14 C    1.290     6 O    1.070
     6   8 O    2.226 --     5 C    1.070     7 C    0.924
     7   6 C    3.927 --    12 C    0.976     8 C    0.972    10 C    0.962
                             6 O    0.924
     8   6 C    3.992 --     9 C    1.019   113 H    0.976   112 H    0.975
                             7 C    0.972
     9   6 C    3.993 --     8 C    1.019   114 H    0.986   115 H    0.986
                           116 H    0.983
    10   6 C    3.994 --    11 C    1.018   117 H    0.976   118 H    0.975
                             7 C    0.962
    11   6 C    3.994 --    10 C    1.018   119 H    0.985   121 H    0.985
                           120 H    0.985
    12   6 C    3.957 --     3 C    1.456    13 C    1.282     7 C    0.976
    13   6 C    3.985 --     1 C    1.601    12 C    1.282   122 H    0.963
    14   6 C    3.957 --    15 C    1.462     5 C    1.290   123 H    0.959
    15   6 C    3.937 --    14 C    1.462    17 C    1.190    16 S    1.111
    16  16 S    2.548 --     4 C    1.121    15 C    1.111
    17   6 C    3.921 --    29 C    1.449    15 C    1.190    18 S    1.107
    18  16 S    2.553 --    19 C    1.132    17 C    1.107
    19   6 C    3.928 --    28 C    1.405    20 C    1.198    18 S    1.132
    20   6 C    3.911 --    21 C    1.356    19 C    1.198    32 S    1.117
    21   6 C    3.919 --    20 C    1.356    30 C    1.299    22 O    1.072
    22   8 O    2.213 --    21 C    1.072    23 C    0.915
    23   6 C    3.924 --    28 C    0.978    24 C    0.976    26 C    0.961
                            22 O    0.915
    24   6 C    3.992 --    25 C    1.019    23 C    0.976   124 H    0.976
                           125 H    0.970
    25   6 C    3.994 --    24 C    1.019   127 H    0.986   128 H    0.986
                           126 H    0.986
    26   6 C    3.991 --    27 C    1.020   130 H    0.976   129 H    0.971
                            23 C    0.961
    27   6 C    3.994 --    26 C    1.020   133 H    0.985   131 H    0.985
                           132 H    0.983
    28   6 C    3.958 --    19 C    1.405    29 C    1.341    23 C    0.978
    29   6 C    3.968 --    17 C    1.449    28 C    1.341   134 H    0.955
    30   6 C    3.957 --    31 C    1.455    21 C    1.299   135 H    0.958
    31   6 C    3.925 --    30 C    1.455    33 C    1.191    32 S    1.112
    32  16 S    2.540 --    20 C    1.117    31 C    1.112
    33   6 C    3.920 --    45 C    1.451    31 C    1.191    34 S    1.104
    34  16 S    2.550 --    35 C    1.133    33 C    1.104
    35   6 C    3.927 --    44 C    1.404    36 C    1.199    34 S    1.133
    36   6 C    3.908 --    37 C    1.349    35 C    1.199    48 S    1.118
    37   6 C    3.920 --    36 C    1.349    46 C    1.297    38 O    1.083
    38   8 O    2.234 --    37 C    1.083    39 C    0.917
    39   6 C    3.925 --    44 C    0.980    42 C    0.976    40 C    0.960
                            38 O    0.917
    40   6 C    3.991 --    41 C    1.018   137 H    0.977   136 H    0.975
                            39 C    0.960
    41   6 C    3.993 --    40 C    1.018   140 H    0.986   139 H    0.985
                           138 H    0.985
    42   6 C    3.991 --    43 C    1.020    39 C    0.976   142 H    0.973
                           141 H    0.972
    43   6 C    3.995 --    42 C    1.020   145 H    0.987   144 H    0.986
                           143 H    0.985
    44   6 C    3.956 --    35 C    1.404    45 C    1.340    39 C    0.980
    45   6 C    3.964 --    33 C    1.451    44 C    1.340   146 H    0.958
    46   6 C    3.954 --    47 C    1.444    37 C    1.297   147 H    0.961
    47   6 C    3.925 --    46 C    1.444    49 C    1.192    48 S    1.123
    48  16 S    2.552 --    47 C    1.123    36 C    1.118
    49   6 C    3.921 --    61 C    1.438    47 C    1.192    50 S    1.116
    50  16 S    2.564 --    51 C    1.137    49 C    1.116
    51   6 C    3.926 --    60 C    1.398    52 C    1.197    50 S    1.137
    52   6 C    3.910 --    53 C    1.352    51 C    1.197    64 S    1.118
    53   6 C    3.918 --    52 C    1.352    62 C    1.293    54 O    1.083
    54   8 O    2.230 --    53 C    1.083    55 C    0.913
    55   6 C    3.923 --    60 C    0.981    58 C    0.978    56 C    0.960
                            54 O    0.913
    56   6 C    3.991 --    57 C    1.020   148 H    0.976   149 H    0.974
                            55 C    0.960
    57   6 C    3.994 --    56 C    1.020   150 H    0.985   151 H    0.985
                           152 H    0.984
    58   6 C    3.992 --    59 C    1.019    55 C    0.978   153 H    0.974
                           154 H    0.970
    59   6 C    3.995 --    58 C    1.019   156 H    0.986   157 H    0.986
                           155 H    0.985
    60   6 C    3.958 --    51 C    1.398    61 C    1.344    55 C    0.981
    61   6 C    3.963 --    49 C    1.438    60 C    1.344   158 H    0.959
    62   6 C    3.958 --    63 C    1.460    53 C    1.293   159 H    0.959
    63   6 C    3.925 --    62 C    1.460    65 C    1.188    64 S    1.112
    64  16 S    2.544 --    52 C    1.118    63 C    1.112
    65   6 C    3.923 --    77 C    1.450    63 C    1.188    66 S    1.111
    66  16 S    2.562 --    67 C    1.135    65 C    1.111
    67   6 C    3.928 --    76 C    1.408    68 C    1.192    66 S    1.135
    68   6 C    3.923 --    69 C    1.354    67 C    1.192    80 S    1.134
    69   6 C    3.921 --    68 C    1.354    78 C    1.302    70 O    1.074
    70   8 O    2.214 --    69 C    1.074    71 C    0.914
    71   6 C    3.924 --    76 C    0.981    72 C    0.977    74 C    0.959
                            70 O    0.914
    72   6 C    3.992 --    73 C    1.019    71 C    0.977   160 H    0.974
                           161 H    0.970
    73   6 C    3.995 --    72 C    1.019   162 H    0.986   164 H    0.986
                           163 H    0.985
    74   6 C    3.991 --    75 C    1.020   165 H    0.976   166 H    0.973
                            71 C    0.959
    75   6 C    3.994 --    74 C    1.020   167 H    0.985   169 H    0.985
                           168 H    0.983
    76   6 C    3.962 --    67 C    1.408    77 C    1.338    71 C    0.981
    77   6 C    3.964 --    65 C    1.450    76 C    1.338   170 H    0.956
    78   6 C    3.960 --    79 C    1.454    69 C    1.302   171 H    0.960
    79   6 C    3.925 --    78 C    1.454    81 C    1.172    80 S    1.131
    80  16 S    2.580 --    68 C    1.134    79 C    1.131
    81   6 C    3.941 --    82 C    1.528    79 C    1.172   107 S    1.090
    82   6 C    3.953 --    81 C    1.528    83 C    1.232   172 H    0.957
    83   6 C    3.983 --    84 C    1.282   106 C    1.245    82 C    1.232
    84   6 C    3.950 --    94 C    1.365    83 C    1.282    85 C    1.067
    85   6 C    3.949 --    92 C    1.521    86 S    1.125    84 C    1.067
    86  16 S    2.598 --    87 C    1.155    85 C    1.125
    87   6 C    3.941 --    90 C    1.546    86 S    1.155    88 C    1.026
    88   6 C    3.988 --    87 C    1.026    89 C    0.995   173 H    0.966
                           174 H    0.965
    89   6 C    3.991 --    88 C    0.995   175 H    0.988   176 H    0.987
                           177 H    0.984
    90   6 C    3.904 --    87 C    1.546    92 C    1.216    91 Cl   0.973
    91  17 Cl   1.119 --    90 C    0.973
    92   6 C    3.899 --    85 C    1.521    90 C    1.216    93 Cl   0.979
    93  17 Cl   1.133 --    92 C    0.979
    94   6 C    3.955 --    84 C    1.365    95 C    1.257   110 S    1.111
    95   6 C    3.969 --    96 C    1.289    94 C    1.257   108 C    1.196
    96   6 C    3.972 --   106 C    1.373    95 C    1.289    97 C    1.065
    97   6 C    3.949 --   103 C    1.520    98 S    1.129    96 C    1.065
    98  16 S    2.611 --    99 C    1.159    97 C    1.129
    99   6 C    3.943 --   102 C    1.543    98 S    1.159   100 C    1.026
   100   6 C    3.987 --    99 C    1.026   101 C    0.994   178 H    0.967
                           179 H    0.965
   101   6 C    3.991 --   100 C    0.994   182 H    0.988   180 H    0.987
                           181 H    0.984
   102   6 C    3.903 --    99 C    1.543   103 C    1.218   105 Cl   0.972
   103   6 C    3.902 --    97 C    1.520   102 C    1.218   104 Cl   0.975
   104  17 Cl   1.123 --   103 C    0.975
   105  17 Cl   1.117 --   102 C    0.972
   106   6 C    3.947 --    96 C    1.373    83 C    1.245   107 S    1.107
   107  16 S    2.509 --   106 C    1.107    81 C    1.090
   108   6 C    3.981 --   109 C    1.679    95 C    1.196   183 H    0.960
   109   6 C    3.930 --   108 C    1.679   110 S    1.151   184 H    0.968
   110  16 S    2.546 --   109 C    1.151    94 C    1.111
   111   1 H    0.996 --     1 C    0.970
   112   1 H    0.997 --     8 C    0.975
   113   1 H    0.998 --     8 C    0.976
   114   1 H    0.998 --     9 C    0.986
   115   1 H    0.998 --     9 C    0.986
   116   1 H    0.998 --     9 C    0.983
   117   1 H    0.999 --    10 C    0.976
   118   1 H    0.998 --    10 C    0.975
   119   1 H    0.998 --    11 C    0.985
   120   1 H    0.998 --    11 C    0.985
   121   1 H    0.998 --    11 C    0.985
   122   1 H    0.997 --    13 C    0.963
   123   1 H    0.996 --    14 C    0.959
   124   1 H    0.998 --    24 C    0.976
   125   1 H    0.997 --    24 C    0.970
   126   1 H    0.998 --    25 C    0.986
   127   1 H    0.998 --    25 C    0.986
   128   1 H    0.997 --    25 C    0.986
   129   1 H    0.996 --    26 C    0.971
   130   1 H    0.999 --    26 C    0.976
   131   1 H    0.998 --    27 C    0.985
   132   1 H    0.998 --    27 C    0.983
   133   1 H    0.998 --    27 C    0.985
   134   1 H    0.996 --    29 C    0.955
   135   1 H    0.995 --    30 C    0.958
   136   1 H    0.998 --    40 C    0.975
   137   1 H    0.999 --    40 C    0.977
   138   1 H    0.997 --    41 C    0.985
   139   1 H    0.998 --    41 C    0.985
   140   1 H    0.998 --    41 C    0.986
   141   1 H    0.996 --    42 C    0.972
   142   1 H    0.997 --    42 C    0.973
   143   1 H    0.999 --    43 C    0.985
   144   1 H    0.998 --    43 C    0.986
   145   1 H    0.998 --    43 C    0.987
   146   1 H    0.996 --    45 C    0.958
   147   1 H    0.996 --    46 C    0.961
   148   1 H    0.999 --    56 C    0.976
   149   1 H    0.997 --    56 C    0.974
   150   1 H    0.998 --    57 C    0.985
   151   1 H    0.997 --    57 C    0.985
   152   1 H    0.998 --    57 C    0.984
   153   1 H    0.996 --    58 C    0.974
   154   1 H    0.997 --    58 C    0.970
   155   1 H    0.999 --    59 C    0.985
   156   1 H    0.998 --    59 C    0.986
   157   1 H    0.998 --    59 C    0.986
   158   1 H    0.997 --    61 C    0.959
   159   1 H    0.995 --    62 C    0.959
   160   1 H    0.996 --    72 C    0.974
   161   1 H    0.997 --    72 C    0.970
   162   1 H    0.998 --    73 C    0.986
   163   1 H    0.999 --    73 C    0.985
   164   1 H    0.998 --    73 C    0.986
   165   1 H    0.999 --    74 C    0.976
   166   1 H    0.996 --    74 C    0.973
   167   1 H    0.998 --    75 C    0.985
   168   1 H    0.998 --    75 C    0.983
   169   1 H    0.997 --    75 C    0.985
   170   1 H    0.996 --    77 C    0.956
   171   1 H    0.995 --    78 C    0.960
   172   1 H    0.996 --    82 C    0.957
   173   1 H    0.995 --    88 C    0.966
   174   1 H    0.995 --    88 C    0.965
   175   1 H    0.998 --    89 C    0.988
   176   1 H    0.998 --    89 C    0.987
   177   1 H    0.996 --    89 C    0.984
   178   1 H    0.995 --   100 C    0.967
   179   1 H    0.995 --   100 C    0.965
   180   1 H    0.997 --   101 C    0.987
   181   1 H    0.996 --   101 C    0.984
   182   1 H    0.998 --   101 C    0.988
   183   1 H    0.997 --   108 C    0.960
   184   1 H    0.996 --   109 C    0.968
 ---------------------------------------------------------------------------

Topologies differ in bond orders
Writing corrected topology to xtbtopo.mol

molecular dipole:
                 x           y           z       tot (Debye)
 q only:        0.589      -2.199       1.316
   full:        0.729      -1.380       1.346       5.238
molecular quadrupole (traceless):
                xx          xy          yy          xz          yz          zz
 q only:       60.309      92.031    -108.374      19.810      31.560      48.065
  q+dip:       48.962      57.022     -81.190      19.079       6.166      32.228
   full:       52.252      59.292     -78.098      18.019       5.329      25.846


           -------------------------------------------------
          | TOTAL ENERGY             -308.379906081180 Eh   |
          | GRADIENT NORM               0.012611977229 Eh/α |
          | HOMO-LUMO GAP               0.970604569635 eV   |
           -------------------------------------------------

------------------------------------------------------------------------
 * finished run on 2022/03/02 at 21:58:07.161     
------------------------------------------------------------------------
 total:
 * wall-time:     0 d,  0 h,  0 min,  1.110 sec
 *  cpu-time:     0 d,  0 h,  0 min,  6.968 sec
 * ratio c/w:     6.276 speedup
 SCF:
 * wall-time:     0 d,  0 h,  0 min,  0.655 sec
 *  cpu-time:     0 d,  0 h,  0 min,  5.225 sec
 * ratio c/w:     7.976 speedup

