      -----------------------------------------------------------      
     |                   =====================                   |     
     |                           x T B                           |     
     |                   =====================                   |     
     |                         S. Grimme                         |     
     |          Mulliken Center for Theoretical Chemistry        |     
     |                    University of Bonn                     |     
      -----------------------------------------------------------      

   * xtb version 6.4.1 (unknown) compiled by 'oda6@login1.crc.pitt.edu' on 2021-06-25

   xtb is free software: you can redistribute it and/or modify it under
   the terms of the GNU Lesser General Public License as published by
   the Free Software Foundation, either version 3 of the License, or
   (at your option) any later version.
   
   xtb is distributed in the hope that it will be useful,
   but WITHOUT ANY WARRANTY; without even the implied warranty of
   MERCHANTABILITY or FITNESS FOR A PARTICULAR PURPOSE.  See the
   GNU Lesser General Public License for more details.
   
   Cite this work as:
   * C. Bannwarth, E. Caldeweyher, S. Ehlert, A. Hansen, P. Pracht,
     J. Seibert, S. Spicher, S. Grimme, WIREs Comput. Mol. Sci., 2020, 11,
     e01493. DOI: 10.1002/wcms.1493
   
   for GFN2-xTB:
   * C. Bannwarth, S. Ehlert and S. Grimme., J. Chem. Theory Comput., 2019,
     15, 1652-1671. DOI: 10.1021/acs.jctc.8b01176
   for GFN1-xTB:
   * S. Grimme, C. Bannwarth, P. Shushkov, J. Chem. Theory Comput., 2017,
     13, 1989-2009. DOI: 10.1021/acs.jctc.7b00118
   for GFN0-xTB:
   * P. Pracht, E. Caldeweyher, S. Ehlert, S. Grimme, ChemRxiv, 2019, preprint.
     DOI: 10.26434/chemrxiv.8326202.v1
   for GFN-FF:
   * S. Spicher and S. Grimme, Angew. Chem. Int. Ed., 2020, 59, 15665-15673.
     DOI: 10.1002/anie.202004239
   
   for DFT-D4:
   * E. Caldeweyher, C. Bannwarth and S. Grimme, J. Chem. Phys., 2017,
     147, 034112. DOI: 10.1063/1.4993215
   * E. Caldeweyher, S. Ehlert, A. Hansen, H. Neugebauer, S. Spicher,
     C. Bannwarth and S. Grimme, J. Chem. Phys., 2019, 150, 154122.
     DOI: 10.1063/1.5090222
   * E. Caldeweyher, J.-M. Mewes, S. Ehlert and S. Grimme, Phys. Chem. Chem. Phys.
     2020, 22, 8499-8512. DOI: 10.1039/D0CP00502A
   
   for sTDA-xTB:
   * S. Grimme and C. Bannwarth, J. Chem. Phys., 2016, 145, 054103.
     DOI: 10.1063/1.4959605
   
   in the mass-spec context:
   * V. Asgeirsson, C. Bauer and S. Grimme, Chem. Sci., 2017, 8, 4879.
     DOI: 10.1039/c7sc00601b
   * J. Koopman and S. Grimme, ACS Omega 2019, 4, 12, 15120-15133.
     DOI: 10.1021/acsomega.9b02011
   
   for metadynamics refer to:
   * S. Grimme, J. Chem. Theory Comput., 2019, 155, 2847-2862
     DOI: 10.1021/acs.jctc.9b00143
   
   for SPH calculations refer to:
   * S. Spicher and S. Grimme, J. Chem. Theory Comput., 2021, 17, 1701-1714
     DOI: 10.1021/acs.jctc.0c01306
   
   with help from (in alphabetical order)
   P. Atkinson, C. Bannwarth, F. Bohle, G. Brandenburg, E. Caldeweyher
   M. Checinski, S. Dohm, S. Ehlert, S. Ehrlich, I. Gerasimov, J. Koopman
   C. Lavigne, S. Lehtola, F. März, M. Müller, F. Musil, H. Neugebauer
   J. Pisarek, C. Plett, P. Pracht, J. Seibert, P. Shushkov, S. Spicher
   M. Stahn, M. Steiner, T. Strunk, J. Stückrath, T. Rose, and J. Unsleber
   
 * started run on 2022/03/01 at 16:16:16.301     

           -------------------------------------------------
          |                Calculation Setup                |
           -------------------------------------------------

          program call               : /ihome/ghutchison/oda6/xtb/xtb-641/bin/xtb ../../GFN2_output/121_727_111101.mol --sp --alpb hexane
          hostname                   : smp-n90
          coordinate file            : ../../GFN2_output/121_727_111101.mol
          omp threads                :                     8
          number of atoms            :                   105
          number of electrons        :                   334
          charge                     :                     0
          spin                       :                   0.0
          first test random number   :      0.45851193460334

   ID    Z sym.   atoms
    1    6 C      1-3, 5-14, 16-25, 27-36, 38-45, 47-49, 51-59, 61-63, 65-71
    2   16 S      4, 15, 26, 37, 46, 60, 64
    3    8 O      50
    4    1 H      72-105

           -------------------------------------------------
          |                 G F N 2 - x T B                 |
           -------------------------------------------------

        Reference                      10.1021/acs.jctc.8b01176
      * Hamiltonian:
        H0-scaling (s, p, d)           1.850000    2.230000    2.230000
        zeta-weighting                 0.500000
      * Dispersion:
        s8                             2.700000
        a1                             0.520000
        a2                             5.000000
        s9                             5.000000
      * Repulsion:
        kExp                           1.500000    1.000000
        rExp                           1.000000
      * Coulomb:
        alpha                          2.000000
        third order                    shell-resolved
        anisotropic                    true
        a3                             3.000000
        a5                             4.000000
        cn-shift                       1.200000
        cn-exp                         4.000000
        max-rad                        5.000000

      * Solvation model:               ALPB
        Solvent                        hexane
        Parameter file                 internal GFN2-xTB/ALPB
        Dielectric constant                1.8800E+00
        Reference state                gsolv [1 M gas/solution]
        Free energy shift                  4.8134E-03 Eh       3.0204E+00 kcal/mol
        Temperature                        2.9815E+02 K
        Density                            6.6000E-01 kg/L
        Solvent mass                       8.6180E+01 g/mol
        Interaction kernel             P16
        Born radius scaling (c1)           1.1040E+00
        Born radii integrator          GBOBC
        Born offset                        0.0000E+00 a0       0.0000E+00 AA
        H-bond correction              false
        Ion screening                  false
        Surface tension                    1.0000E-05 Eh       1.5569E+01 dyn/cm
        Grid points                               230 per atom

          ...................................................
          :                      SETUP                      :
          :.................................................:
          :  # basis functions                 360          :
          :  # atomic orbitals                 353          :
          :  # shells                          183          :
          :  # electrons                       334          :
          :  max. iterations                   250          :
          :  Hamiltonian                  GFN2-xTB          :
          :  restarted?                      false          :
          :  GBSA solvation                   true          :
          :  PC potential                    false          :
          :  electronic temp.          300.0000000     K    :
          :  accuracy                    1.0000000          :
          :  -> integral cutoff          0.2500000E+02      :
          :  -> integral neglect         0.1000000E-07      :
          :  -> SCF convergence          0.1000000E-05 Eh   :
          :  -> wf. convergence          0.1000000E-03 e    :
          :  Broyden damping             0.4000000          :
          ...................................................

 iter      E             dE          RMSdq      gap      omega  full diag
   1   -181.9392639 -0.181939E+03  0.606E+00    1.32       0.0  T
   2   -181.9840074 -0.447435E-01  0.350E+00    1.40       1.0  T
   3   -181.9140837  0.699237E-01  0.991E-01    1.38       1.0  T
   4   -181.9818966 -0.678129E-01  0.418E-01    1.39       1.0  T
   5   -181.9942396 -0.123430E-01  0.155E-01    1.39       1.0  T
   6   -181.9953837 -0.114411E-02  0.648E-02    1.40       1.0  T
   7   -181.9955916 -0.207839E-03  0.272E-02    1.39       1.0  T
   8   -181.9956121 -0.205197E-04  0.148E-02    1.40       1.0  T
   9   -181.9956182 -0.617593E-05  0.770E-03    1.40       1.3  T
  10   -181.9956212 -0.298681E-05  0.274E-03    1.40       3.6  T
  11   -181.9956215 -0.286831E-06  0.143E-03    1.40       6.8  T
  12   -181.9956216 -0.368407E-07  0.862E-04    1.40      11.3  T
  13   -181.9956216 -0.162600E-07  0.463E-04    1.40      21.1  T

   *** convergence criteria satisfied after 13 iterations ***

         #    Occupation            Energy/Eh            Energy/eV
      -------------------------------------------------------------
         1        2.0000           -0.7330744             -19.9480
       ...           ...                  ...                  ...
       161        2.0000           -0.3834329             -10.4337
       162        2.0000           -0.3758387             -10.2271
       163        2.0000           -0.3701019             -10.0710
       164        2.0000           -0.3678620             -10.0100
       165        2.0000           -0.3569945              -9.7143
       166        2.0000           -0.3535961              -9.6218
       167        2.0000           -0.3454716              -9.4008 (HOMO)
       168                         -0.2941702              -8.0048 (LUMO)
       169                         -0.2898080              -7.8861
       170                         -0.2827289              -7.6934
       171                         -0.2778493              -7.5607
       172                         -0.2684316              -7.3044
       ...                                ...                  ...
       353                          1.4416871              39.2303
      -------------------------------------------------------------
                  HL-Gap            0.0513013 Eh            1.3960 eV
             Fermi-level           -0.3198209 Eh           -8.7028 eV

 SCC (total)                   0 d,  0 h,  0 min,  0.266 sec
 SCC setup                      ...        0 min,  0.002 sec (  0.876%)
 Dispersion                     ...        0 min,  0.004 sec (  1.333%)
 classical contributions        ...        0 min,  0.000 sec (  0.050%)
 integral evaluation            ...        0 min,  0.016 sec (  5.887%)
 iterations                     ...        0 min,  0.205 sec ( 77.054%)
 molecular gradient             ...        0 min,  0.038 sec ( 14.378%)
 printout                       ...        0 min,  0.001 sec (  0.389%)

         :::::::::::::::::::::::::::::::::::::::::::::::::::::
         ::                     SUMMARY                     ::
         :::::::::::::::::::::::::::::::::::::::::::::::::::::
         :: total energy            -178.439000055447 Eh    ::
         :: total w/o Gsasa/hb      -178.372410238289 Eh    ::
         :: gradient norm              0.005879759351 Eh/a0 ::
         :: HOMO-LUMO gap              1.395979488428 eV    ::
         ::.................................................::
         :: SCC energy              -181.995621574057 Eh    ::
         :: -> isotropic ES            0.031500344791 Eh    ::
         :: -> anisotropic ES          0.011919351435 Eh    ::
         :: -> anisotropic XC          0.122057515104 Eh    ::
         :: -> dispersion             -0.195561631684 Eh    ::
         :: -> Gsolv                  -0.071117776884 Eh    ::
         ::    -> Gelec               -0.004527959726 Eh    ::
         ::    -> Gsasa               -0.071403172978 Eh    ::
         ::    -> Ghb                  0.000000000000 Eh    ::
         ::    -> Gshift               0.004813355820 Eh    ::
         :: repulsion energy           3.547272722915 Eh    ::
         :: add. restraining           0.000000000000 Eh    ::
         :: total charge              -0.000000000000 e     ::
         :::::::::::::::::::::::::::::::::::::::::::::::::::::

           -------------------------------------------------
          |                Property Printout                |
           -------------------------------------------------

    * Orbital Energies and Occupations

         #    Occupation            Energy/Eh            Energy/eV
      -------------------------------------------------------------
         1        2.0000           -0.7330744             -19.9480
       ...           ...                  ...                  ...
       155        2.0000           -0.3960719             -10.7777
       156        2.0000           -0.3949162             -10.7462
       157        2.0000           -0.3942113             -10.7270
       158        2.0000           -0.3934988             -10.7076
       159        2.0000           -0.3909526             -10.6384
       160        2.0000           -0.3859306             -10.5017
       161        2.0000           -0.3834329             -10.4337
       162        2.0000           -0.3758387             -10.2271
       163        2.0000           -0.3701019             -10.0710
       164        2.0000           -0.3678620             -10.0100
       165        2.0000           -0.3569945              -9.7143
       166        2.0000           -0.3535961              -9.6218
       167        2.0000           -0.3454716              -9.4008 (HOMO)
       168                         -0.2941702              -8.0048 (LUMO)
       169                         -0.2898080              -7.8861
       170                         -0.2827289              -7.6934
       171                         -0.2778493              -7.5607
       172                         -0.2684316              -7.3044
       173                         -0.2617588              -7.1228
       174                         -0.2537313              -6.9044
       175                         -0.2445115              -6.6535
       176                         -0.2340681              -6.3693
       177                         -0.2308316              -6.2812
       178                         -0.2274463              -6.1891
       ...                                ...                  ...
       353                          1.4416871              39.2303
      -------------------------------------------------------------
                  HL-Gap            0.0513013 Eh            1.3960 eV
             Fermi-level           -0.3198209 Eh           -8.7028 eV

     #   Z          covCN         q      C6AA      α(0)
     1   6 C        1.909    -0.096    33.767     9.385
     2   6 C        2.010    -0.024    31.661     9.087
     3   6 C        2.988     0.047    26.931     8.513
     4  16 S        2.341    -0.022   141.961    20.053
     5   6 C        2.986     0.049    26.897     8.507
     6   6 C        3.093    -0.044    28.983     8.824
     7   6 C        3.091    -0.042    28.920     8.814
     8   6 C        2.010    -0.045    32.227     9.168
     9   6 C        1.978    -0.028    31.817     9.109
    10   6 C        2.907    -0.006    28.177     8.704
    11   6 C        2.903    -0.009    28.235     8.713
    12   6 C        1.982    -0.030    31.857     9.115
    13   6 C        2.032    -0.050    32.353     9.187
    14   6 C        2.986     0.051    26.852     8.500
    15  16 S        2.373    -0.045   142.899    20.119
    16   6 C        2.986     0.050    26.875     8.504
    17   6 C        3.086    -0.046    29.044     8.834
    18   6 C        3.085    -0.046    29.036     8.833
    19   6 C        2.025    -0.048    32.306     9.180
    20   6 C        1.977    -0.028    31.812     9.108
    21   6 C        2.900    -0.008    28.213     8.709
    22   6 C        2.902    -0.005    28.138     8.698
    23   6 C        1.975    -0.033    31.938     9.126
    24   6 C        2.012    -0.043    32.185     9.162
    25   6 C        2.986     0.049    26.894     8.507
    26  16 S        2.351    -0.024   142.053    20.060
    27   6 C        2.986     0.051    26.845     8.499
    28   6 C        3.087    -0.044    28.982     8.825
    29   6 C        3.090    -0.043    28.960     8.821
    30   6 C        2.019    -0.046    32.262     9.173
    31   6 C        1.977    -0.028    31.816     9.109
    32   6 C        2.903    -0.009    28.236     8.713
    33   6 C        2.902    -0.007    28.205     8.708
    34   6 C        1.978    -0.030    31.847     9.113
    35   6 C        2.006    -0.044    32.211     9.166
    36   6 C        2.987     0.051    26.845     8.499
    37  16 S        2.317    -0.029   142.242    20.073
    38   6 C        2.986     0.050    26.867     8.503
    39   6 C        3.091    -0.043    28.958     8.820
    40   6 C        3.089    -0.041    28.916     8.814
    41   6 C        2.009    -0.040    32.091     9.149
    42   6 C        1.999    -0.027    31.748     9.100
    43   6 C        2.892    -0.019    28.474     8.749
    44   6 C        2.934    -0.038    28.941     8.823
    45   6 C        2.985     0.023    27.491     8.601
    46  16 S        2.333    -0.052   143.204    20.141
    47   6 C        3.034     0.019    27.560     8.611
    48   6 C        3.024    -0.016    28.392     8.740
    49   6 C        3.039     0.138    24.956     8.194
    50   8 O        1.702    -0.299    18.984     5.883
    51   6 C        3.789     0.141    18.314     6.095
    52   6 C        3.805    -0.061    21.661     6.626
    53   6 C        3.751    -0.103    22.534     6.770
    54   6 C        3.804    -0.062    21.695     6.631
    55   6 C        3.752    -0.100    22.471     6.760
    56   6 C        3.145    -0.031    28.511     8.736
    57   6 C        3.096    -0.060    29.372     8.882
    58   6 C        3.072    -0.067    29.600     8.921
    59   6 C        2.993     0.050    26.861     8.502
    60  16 S        2.312    -0.027   142.184    20.069
    61   6 C        2.025    -0.034    31.912     9.124
    62   6 C        2.017    -0.035    31.965     9.131
    63   6 C        2.988     0.050    26.861     8.502
    64  16 S        2.345    -0.018   141.807    20.042
    65   6 C        2.988     0.049    26.897     8.507
    66   6 C        3.090    -0.045    29.008     8.828
    67   6 C        3.092    -0.041    28.899     8.811
    68   6 C        2.013    -0.047    32.283     9.176
    69   6 C        1.976    -0.033    31.929     9.125
    70   6 C        2.887    -0.005    28.149     8.698
    71   6 C        2.847    -0.082    30.045     8.983
    72   1 H        0.928     0.087     1.903     2.157
    73   1 H        0.926     0.040     2.446     2.446
    74   1 H        0.926     0.037     2.489     2.467
    75   1 H        0.925     0.054     2.269     2.355
    76   1 H        0.926     0.050     2.314     2.379
    77   1 H        0.926     0.041     2.429     2.437
    78   1 H        0.926     0.042     2.426     2.436
    79   1 H        0.925     0.056     2.252     2.347
    80   1 H        0.925     0.052     2.299     2.371
    81   1 H        0.926     0.040     2.450     2.448
    82   1 H        0.926     0.038     2.479     2.462
    83   1 H        0.925     0.052     2.293     2.368
    84   1 H        0.925     0.053     2.282     2.362
    85   1 H        0.926     0.048     2.342     2.393
    86   1 H        0.926     0.044     2.398     2.421
    87   1 H        0.925     0.052     2.290     2.366
    88   1 H        0.925     0.044     2.393     2.419
    89   1 H        0.924     0.032     2.564     2.504
    90   1 H        0.924     0.039     2.462     2.454
    91   1 H        0.925     0.039     2.456     2.451
    92   1 H        0.925     0.048     2.341     2.393
    93   1 H        0.925     0.040     2.448     2.447
    94   1 H        0.925     0.055     2.256     2.349
    95   1 H        0.924     0.044     2.392     2.419
    96   1 H        0.925     0.041     2.432     2.439
    97   1 H        0.925     0.038     2.477     2.461
    98   1 H        0.925     0.037     2.487     2.466
    99   1 H        0.926     0.043     2.415     2.430
   100   1 H        0.926     0.057     2.237     2.339
   101   1 H        0.926     0.042     2.427     2.436
   102   1 H        0.926     0.035     2.514     2.480
   103   1 H        0.925     0.052     2.294     2.369
   104   1 H        0.926     0.042     2.417     2.431
   105   1 H        0.926     0.045     2.384     2.414

 Mol. C6AA /au·bohr⁶  :     227987.260832
 Mol. C8AA /au·bohr⁸  :    6758656.073689
 Mol. α(0) /au        :        774.179753


Wiberg/Mayer (AO) data.
largest (>0.10) Wiberg bond orders for each atom

 ---------------------------------------------------------------------------
     #   Z sym  total        # sym  WBO       # sym  WBO       # sym  WBO
 ---------------------------------------------------------------------------
     1   6 C    3.951 --     2 C    2.778    72 H    0.969
     2   6 C    3.980 --     1 C    2.778     3 C    1.158
     3   6 C    3.935 --     7 C    1.484     2 C    1.158     4 S    1.126
     4  16 S    2.586 --     3 C    1.126     5 C    1.117
     5   6 C    3.954 --     6 C    1.468     8 C    1.195     4 S    1.117
     6   6 C    3.963 --     5 C    1.468     7 C    1.335    73 H    0.964
     7   6 C    3.985 --     3 C    1.484     6 C    1.335    74 H    0.962
     8   6 C    3.963 --     9 C    2.562     5 C    1.195    11 C    0.108
     9   6 C    3.966 --     8 C    2.562    10 C    1.197
    10   6 C    3.945 --    11 C    1.644     9 C    1.197    75 H    0.948
                            13 C    0.107
    11   6 C    3.946 --    10 C    1.644    12 C    1.203    76 H    0.951
                             8 C    0.108
    12   6 C    3.963 --    13 C    2.557    11 C    1.203
    13   6 C    3.968 --    12 C    2.557    14 C    1.202    10 C    0.107
    14   6 C    3.943 --    18 C    1.464    13 C    1.202    15 S    1.105
    15  16 S    2.589 --    16 C    1.115    14 C    1.105
    16   6 C    3.929 --    17 C    1.473    19 C    1.179    15 S    1.115
    17   6 C    3.968 --    16 C    1.473    18 C    1.339    77 H    0.964
    18   6 C    3.950 --    14 C    1.464    17 C    1.339    78 H    0.964
    19   6 C    3.967 --    20 C    2.568    16 C    1.179    22 C    0.116
    20   6 C    3.957 --    19 C    2.568    21 C    1.179
    21   6 C    3.945 --    22 C    1.674    20 C    1.179    79 H    0.946
                            24 C    0.112
    22   6 C    3.964 --    21 C    1.674    23 C    1.190    80 H    0.947
                            19 C    0.116
    23   6 C    3.958 --    24 C    2.565    22 C    1.190
    24   6 C    3.973 --    23 C    2.565    25 C    1.193    21 C    0.112
    25   6 C    3.934 --    29 C    1.454    24 C    1.193    26 S    1.120
    26  16 S    2.581 --    25 C    1.120    27 C    1.115
    27   6 C    3.938 --    28 C    1.453    30 C    1.203    26 S    1.115
    28   6 C    3.953 --    27 C    1.453    29 C    1.352    81 H    0.964
    29   6 C    3.965 --    25 C    1.454    28 C    1.352    82 H    0.964
    30   6 C    3.969 --    31 C    2.558    27 C    1.203    33 C    0.107
    31   6 C    3.960 --    30 C    2.558    32 C    1.201
    32   6 C    3.948 --    33 C    1.650    31 C    1.201    83 H    0.948
                            35 C    0.110
    33   6 C    3.937 --    32 C    1.650    34 C    1.195    84 H    0.949
                            30 C    0.107
    34   6 C    3.958 --    35 C    2.558    33 C    1.195
    35   6 C    3.963 --    34 C    2.558    36 C    1.196    32 C    0.110
    36   6 C    3.937 --    40 C    1.455    35 C    1.196    37 S    1.117
    37  16 S    2.562 --    36 C    1.117    38 C    1.116
    38   6 C    3.938 --    39 C    1.445    41 C    1.203    37 S    1.116
    39   6 C    3.975 --    38 C    1.445    40 C    1.352    85 H    0.956
    40   6 C    3.965 --    36 C    1.455    39 C    1.352    86 H    0.963
    41   6 C    3.960 --    42 C    2.515    38 C    1.203    44 C    0.105
    42   6 C    3.959 --    41 C    2.515    43 C    1.208
    43   6 C    3.957 --    44 C    1.632    42 C    1.208    87 H    0.950
    44   6 C    3.962 --    43 C    1.632    45 C    1.203    88 H    0.960
                            41 C    0.105
    45   6 C    3.925 --    57 C    1.439    44 C    1.203    46 S    1.114
    46  16 S    2.640 --    47 C    1.149    45 C    1.114
    47   6 C    3.952 --    56 C    1.401    48 C    1.189    46 S    1.149
    48   6 C    3.926 --    49 C    1.364    47 C    1.189    60 S    1.130
    49   6 C    3.919 --    48 C    1.364    58 C    1.289    50 O    1.073
    50   8 O    2.221 --    49 C    1.073    51 C    0.918
    51   6 C    3.925 --    56 C    0.980    54 C    0.976    52 C    0.960
                            50 O    0.918
    52   6 C    3.992 --    53 C    1.018    89 H    0.976    90 H    0.975
                            51 C    0.960
    53   6 C    3.994 --    52 C    1.018    93 H    0.987    91 H    0.986
                            92 H    0.984
    54   6 C    3.992 --    55 C    1.020    51 C    0.976    95 H    0.974
                            94 H    0.972
    55   6 C    3.996 --    54 C    1.020    96 H    0.986    97 H    0.986
                            98 H    0.985
    56   6 C    3.964 --    47 C    1.401    57 C    1.346    51 C    0.980
    57   6 C    3.971 --    45 C    1.439    56 C    1.346    99 H    0.962
    58   6 C    3.954 --    59 C    1.455    49 C    1.289   100 H    0.959
    59   6 C    3.926 --    58 C    1.455    61 C    1.201    60 S    1.107
    60  16 S    2.573 --    48 C    1.130    59 C    1.107
    61   6 C    3.960 --    62 C    2.541    59 C    1.201
    62   6 C    3.952 --    61 C    2.541    63 C    1.197
    63   6 C    3.939 --    67 C    1.455    62 C    1.197    64 S    1.120
    64  16 S    2.578 --    65 C    1.121    63 C    1.120
    65   6 C    3.937 --    66 C    1.460    68 C    1.191    64 S    1.121
    66   6 C    3.961 --    65 C    1.460    67 C    1.348   101 H    0.964
    67   6 C    3.958 --    63 C    1.455    66 C    1.348   102 H    0.964
    68   6 C    3.978 --    69 C    2.594    65 C    1.191    71 C    0.120
    69   6 C    3.959 --    68 C    2.594    70 C    1.164
    70   6 C    3.990 --    71 C    1.849    69 C    1.164   103 H    0.946
    71   6 C    3.930 --    70 C    1.849   104 H    0.978   105 H    0.978
                            68 C    0.120
    72   1 H    0.992 --     1 C    0.969
    73   1 H    0.998 --     6 C    0.964
    74   1 H    0.998 --     7 C    0.962
    75   1 H    0.993 --    10 C    0.948
    76   1 H    0.995 --    11 C    0.951
    77   1 H    0.998 --    17 C    0.964
    78   1 H    0.997 --    18 C    0.964
    79   1 H    0.989 --    21 C    0.946
    80   1 H    0.992 --    22 C    0.947
    81   1 H    0.997 --    28 C    0.964
    82   1 H    0.998 --    29 C    0.964
    83   1 H    0.994 --    32 C    0.948
    84   1 H    0.992 --    33 C    0.949
    85   1 H    0.997 --    39 C    0.956
    86   1 H    0.997 --    40 C    0.963
    87   1 H    0.992 --    43 C    0.950
    88   1 H    0.997 --    44 C    0.960
    89   1 H    0.999 --    52 C    0.976
    90   1 H    0.998 --    52 C    0.975
    91   1 H    0.997 --    53 C    0.986
    92   1 H    0.998 --    53 C    0.984
    93   1 H    0.998 --    53 C    0.987
    94   1 H    0.996 --    54 C    0.972
    95   1 H    0.997 --    54 C    0.974
    96   1 H    0.998 --    55 C    0.986
    97   1 H    0.999 --    55 C    0.986
    98   1 H    0.999 --    55 C    0.985
    99   1 H    0.997 --    57 C    0.962
   100   1 H    0.996 --    58 C    0.959
   101   1 H    0.997 --    66 C    0.964
   102   1 H    0.998 --    67 C    0.964
   103   1 H    0.996 --    70 C    0.946
   104   1 H    0.997 --    71 C    0.978
   105   1 H    0.998 --    71 C    0.978
 ---------------------------------------------------------------------------

Topologies differ in bond orders
Writing corrected topology to xtbtopo.mol

molecular dipole:
                 x           y           z       tot (Debye)
 q only:       -0.074      -0.102      -0.399
   full:       -0.386      -0.187      -1.297       3.473
molecular quadrupole (traceless):
                xx          xy          yy          xz          yz          zz
 q only:       26.166      22.118     -11.077      -8.655      -0.137     -15.089
  q+dip:       42.543      40.177     -24.896     -20.616      -0.843     -17.647
   full:       34.300      28.786     -15.196     -18.206       1.225     -19.104


           -------------------------------------------------
          | TOTAL ENERGY             -178.439000055447 Eh   |
          | GRADIENT NORM               0.005879759351 Eh/α |
          | HOMO-LUMO GAP               1.395979488428 eV   |
           -------------------------------------------------

------------------------------------------------------------------------
 * finished run on 2022/03/01 at 16:16:16.885     
------------------------------------------------------------------------
 total:
 * wall-time:     0 d,  0 h,  0 min,  0.584 sec
 *  cpu-time:     0 d,  0 h,  0 min,  3.655 sec
 * ratio c/w:     6.255 speedup
 SCF:
 * wall-time:     0 d,  0 h,  0 min,  0.268 sec
 *  cpu-time:     0 d,  0 h,  0 min,  2.139 sec
 * ratio c/w:     7.969 speedup

