      -----------------------------------------------------------      
     |                   =====================                   |     
     |                           x T B                           |     
     |                   =====================                   |     
     |                         S. Grimme                         |     
     |          Mulliken Center for Theoretical Chemistry        |     
     |                    University of Bonn                     |     
      -----------------------------------------------------------      

   * xtb version 6.4.1 (unknown) compiled by 'oda6@login1.crc.pitt.edu' on 2021-06-25

   xtb is free software: you can redistribute it and/or modify it under
   the terms of the GNU Lesser General Public License as published by
   the Free Software Foundation, either version 3 of the License, or
   (at your option) any later version.
   
   xtb is distributed in the hope that it will be useful,
   but WITHOUT ANY WARRANTY; without even the implied warranty of
   MERCHANTABILITY or FITNESS FOR A PARTICULAR PURPOSE.  See the
   GNU Lesser General Public License for more details.
   
   Cite this work as:
   * C. Bannwarth, E. Caldeweyher, S. Ehlert, A. Hansen, P. Pracht,
     J. Seibert, S. Spicher, S. Grimme, WIREs Comput. Mol. Sci., 2020, 11,
     e01493. DOI: 10.1002/wcms.1493
   
   for GFN2-xTB:
   * C. Bannwarth, S. Ehlert and S. Grimme., J. Chem. Theory Comput., 2019,
     15, 1652-1671. DOI: 10.1021/acs.jctc.8b01176
   for GFN1-xTB:
   * S. Grimme, C. Bannwarth, P. Shushkov, J. Chem. Theory Comput., 2017,
     13, 1989-2009. DOI: 10.1021/acs.jctc.7b00118
   for GFN0-xTB:
   * P. Pracht, E. Caldeweyher, S. Ehlert, S. Grimme, ChemRxiv, 2019, preprint.
     DOI: 10.26434/chemrxiv.8326202.v1
   for GFN-FF:
   * S. Spicher and S. Grimme, Angew. Chem. Int. Ed., 2020, 59, 15665-15673.
     DOI: 10.1002/anie.202004239
   
   for DFT-D4:
   * E. Caldeweyher, C. Bannwarth and S. Grimme, J. Chem. Phys., 2017,
     147, 034112. DOI: 10.1063/1.4993215
   * E. Caldeweyher, S. Ehlert, A. Hansen, H. Neugebauer, S. Spicher,
     C. Bannwarth and S. Grimme, J. Chem. Phys., 2019, 150, 154122.
     DOI: 10.1063/1.5090222
   * E. Caldeweyher, J.-M. Mewes, S. Ehlert and S. Grimme, Phys. Chem. Chem. Phys.
     2020, 22, 8499-8512. DOI: 10.1039/D0CP00502A
   
   for sTDA-xTB:
   * S. Grimme and C. Bannwarth, J. Chem. Phys., 2016, 145, 054103.
     DOI: 10.1063/1.4959605
   
   in the mass-spec context:
   * V. Asgeirsson, C. Bauer and S. Grimme, Chem. Sci., 2017, 8, 4879.
     DOI: 10.1039/c7sc00601b
   * J. Koopman and S. Grimme, ACS Omega 2019, 4, 12, 15120-15133.
     DOI: 10.1021/acsomega.9b02011
   
   for metadynamics refer to:
   * S. Grimme, J. Chem. Theory Comput., 2019, 155, 2847-2862
     DOI: 10.1021/acs.jctc.9b00143
   
   for SPH calculations refer to:
   * S. Spicher and S. Grimme, J. Chem. Theory Comput., 2021, 17, 1701-1714
     DOI: 10.1021/acs.jctc.0c01306
   
   with help from (in alphabetical order)
   P. Atkinson, C. Bannwarth, F. Bohle, G. Brandenburg, E. Caldeweyher
   M. Checinski, S. Dohm, S. Ehlert, S. Ehrlich, I. Gerasimov, J. Koopman
   C. Lavigne, S. Lehtola, F. März, M. Müller, F. Musil, H. Neugebauer
   J. Pisarek, C. Plett, P. Pracht, J. Seibert, P. Shushkov, S. Spicher
   M. Stahn, M. Steiner, T. Strunk, J. Stückrath, T. Rose, and J. Unsleber
   
 * started run on 2022/03/04 at 13:09:51.892     

           -------------------------------------------------
          |                Calculation Setup                |
           -------------------------------------------------

          program call               : /ihome/ghutchison/oda6/xtb/xtb-641/bin/xtb ../../GFN2_output/260_250_100111.mol --sp --alpb hexane
          hostname                   : smp-n90
          coordinate file            : ../../GFN2_output/260_250_100111.mol
          omp threads                :                     8
          number of atoms            :                   120
          number of electrons        :                   370
          charge                     :                     0
          spin                       :                   0.0
          first test random number   :      0.27152657372866

   ID    Z sym.   atoms
    1    6 C      1-3, 5-8, 10, 12, 14-16, 18, 19, 21-27, 29-31, 33, 34,
                  36-44, 46-49, 51, 53-55, 57-60, 62, 64-66, 68-71, 73
    2    7 N      4, 9, 45, 50, 56, 61, 67, 72
    3   16 S      11, 13, 28, 52, 63, 74
    4    8 O      17, 20, 32, 35
    5    1 H      75-120

           -------------------------------------------------
          |                 G F N 2 - x T B                 |
           -------------------------------------------------

        Reference                      10.1021/acs.jctc.8b01176
      * Hamiltonian:
        H0-scaling (s, p, d)           1.850000    2.230000    2.230000
        zeta-weighting                 0.500000
      * Dispersion:
        s8                             2.700000
        a1                             0.520000
        a2                             5.000000
        s9                             5.000000
      * Repulsion:
        kExp                           1.500000    1.000000
        rExp                           1.000000
      * Coulomb:
        alpha                          2.000000
        third order                    shell-resolved
        anisotropic                    true
        a3                             3.000000
        a5                             4.000000
        cn-shift                       1.200000
        cn-exp                         4.000000
        max-rad                        5.000000

      * Solvation model:               ALPB
        Solvent                        hexane
        Parameter file                 internal GFN2-xTB/ALPB
        Dielectric constant                1.8800E+00
        Reference state                gsolv [1 M gas/solution]
        Free energy shift                  4.8134E-03 Eh       3.0204E+00 kcal/mol
        Temperature                        2.9815E+02 K
        Density                            6.6000E-01 kg/L
        Solvent mass                       8.6180E+01 g/mol
        Interaction kernel             P16
        Born radius scaling (c1)           1.1040E+00
        Born radii integrator          GBOBC
        Born offset                        0.0000E+00 a0       0.0000E+00 AA
        H-bond correction              false
        Ion screening                  false
        Surface tension                    1.0000E-05 Eh       1.5569E+01 dyn/cm
        Grid points                               230 per atom

          ...................................................
          :                      SETUP                      :
          :.................................................:
          :  # basis functions                 378          :
          :  # atomic orbitals                 372          :
          :  # shells                          200          :
          :  # electrons                       370          :
          :  max. iterations                   250          :
          :  Hamiltonian                  GFN2-xTB          :
          :  restarted?                      false          :
          :  GBSA solvation                   true          :
          :  PC potential                    false          :
          :  electronic temp.          300.0000000     K    :
          :  accuracy                    1.0000000          :
          :  -> integral cutoff          0.2500000E+02      :
          :  -> integral neglect         0.1000000E-07      :
          :  -> SCF convergence          0.1000000E-05 Eh   :
          :  -> wf. convergence          0.1000000E-03 e    :
          :  Broyden damping             0.4000000          :
          ...................................................

 iter      E             dE          RMSdq      gap      omega  full diag
   1   -205.2668697 -0.205267E+03  0.393E+00    0.53       0.0  T
   2   -205.4309218 -0.164052E+00  0.225E+00    0.45       1.0  T
   3   -205.3566069  0.743150E-01  0.113E+00    0.47       1.0  T
   4   -205.4072999 -0.506930E-01  0.666E-01    0.44       1.0  T
   5   -205.4666995 -0.593997E-01  0.225E-01    0.43       1.0  T
   6   -205.4700479 -0.334836E-02  0.107E-01    0.43       1.0  T
   7   -205.4704438 -0.395962E-03  0.720E-02    0.43       1.0  T
   8   -205.4709645 -0.520613E-03  0.260E-02    0.43       1.0  T
   9   -205.4710029 -0.384032E-04  0.145E-02    0.43       1.0  T
  10   -205.4710133 -0.103938E-04  0.804E-03    0.43       1.1  T
  11   -205.4710155 -0.226019E-05  0.422E-03    0.43       2.2  T
  12   -205.4710166 -0.112639E-05  0.225E-03    0.43       4.1  T
  13   -205.4710167 -0.904507E-07  0.138E-03    0.43       6.6  T
  14   -205.4710168 -0.632187E-07  0.658E-04    0.43      13.9  T
  15   -205.4710168 -0.259790E-07  0.276E-04    0.43      33.0  T

   *** convergence criteria satisfied after 15 iterations ***

         #    Occupation            Energy/Eh            Energy/eV
      -------------------------------------------------------------
         1        2.0000           -0.7457638             -20.2933
       ...           ...                  ...                  ...
       179        2.0000           -0.3643150              -9.9135
       180        2.0000           -0.3564030              -9.6982
       181        2.0000           -0.3560919              -9.6898
       182        2.0000           -0.3544139              -9.6441
       183        2.0000           -0.3528055              -9.6003
       184        2.0000           -0.3477993              -9.4641
       185        1.9995           -0.3376028              -9.1866 (HOMO)
       186        0.0005           -0.3217335              -8.7548 (LUMO)
       187                         -0.3066758              -8.3451
       188                         -0.3003492              -8.1729
       189                         -0.2885090              -7.8507
       190                         -0.2859671              -7.7816
       ...                                ...                  ...
       372                          0.7217540              19.6399
      -------------------------------------------------------------
                  HL-Gap            0.0158693 Eh            0.4318 eV
             Fermi-level           -0.3296682 Eh           -8.9707 eV

 SCC (total)                   0 d,  0 h,  0 min,  0.322 sec
 SCC setup                      ...        0 min,  0.003 sec (  0.864%)
 Dispersion                     ...        0 min,  0.004 sec (  1.219%)
 classical contributions        ...        0 min,  0.000 sec (  0.060%)
 integral evaluation            ...        0 min,  0.017 sec (  5.371%)
 iterations                     ...        0 min,  0.249 sec ( 77.418%)
 molecular gradient             ...        0 min,  0.047 sec ( 14.674%)
 printout                       ...        0 min,  0.001 sec (  0.367%)

         :::::::::::::::::::::::::::::::::::::::::::::::::::::
         ::                     SUMMARY                     ::
         :::::::::::::::::::::::::::::::::::::::::::::::::::::
         :: total energy            -202.602444592613 Eh    ::
         :: total w/o Gsasa/hb      -202.546698467362 Eh    ::
         :: gradient norm              0.011877373169 Eh/a0 ::
         :: HOMO-LUMO gap              0.431825775698 eV    ::
         ::.................................................::
         :: SCC energy              -205.471016819621 Eh    ::
         :: -> isotropic ES            0.142507380844 Eh    ::
         :: -> anisotropic ES          0.019285432607 Eh    ::
         :: -> anisotropic XC          0.106123968414 Eh    ::
         :: -> dispersion             -0.225160357474 Eh    ::
         :: -> Gsolv                  -0.074957913065 Eh    ::
         ::    -> Gelec               -0.019211787814 Eh    ::
         ::    -> Gsasa               -0.060559481071 Eh    ::
         ::    -> Ghb                  0.000000000000 Eh    ::
         ::    -> Gshift               0.004813355820 Eh    ::
         :: repulsion energy           2.855674669318 Eh    ::
         :: add. restraining           0.000000000000 Eh    ::
         :: total charge              -0.000000000000 e     ::
         :::::::::::::::::::::::::::::::::::::::::::::::::::::

           -------------------------------------------------
          |                Property Printout                |
           -------------------------------------------------

    * Orbital Energies and Occupations

         #    Occupation            Energy/Eh            Energy/eV
      -------------------------------------------------------------
         1        2.0000           -0.7457638             -20.2933
       ...           ...                  ...                  ...
       173        2.0000           -0.4019440             -10.9375
       174        2.0000           -0.3984106             -10.8413
       175        2.0000           -0.3874704             -10.5436
       176        2.0000           -0.3850372             -10.4774
       177        2.0000           -0.3794251             -10.3247
       178        2.0000           -0.3748871             -10.2012
       179        2.0000           -0.3643150              -9.9135
       180        2.0000           -0.3564030              -9.6982
       181        2.0000           -0.3560919              -9.6898
       182        2.0000           -0.3544139              -9.6441
       183        2.0000           -0.3528055              -9.6003
       184        2.0000           -0.3477993              -9.4641
       185        1.9995           -0.3376028              -9.1866 (HOMO)
       186        0.0005           -0.3217335              -8.7548 (LUMO)
       187                         -0.3066758              -8.3451
       188                         -0.3003492              -8.1729
       189                         -0.2885090              -7.8507
       190                         -0.2859671              -7.7816
       191                         -0.2656313              -7.2282
       192                         -0.2506232              -6.8198
       193                         -0.2437467              -6.6327
       194                         -0.2357987              -6.4164
       195                         -0.2344576              -6.3799
       196                         -0.2286365              -6.2215
       ...                                ...                  ...
       372                          0.7217540              19.6399
      -------------------------------------------------------------
                  HL-Gap            0.0158693 Eh            0.4318 eV
             Fermi-level           -0.3296682 Eh           -8.9707 eV

     #   Z          covCN         q      C6AA      α(0)
     1   6 C        2.919    -0.048    29.202     8.862
     2   6 C        3.172     0.068    26.106     8.346
     3   6 C        3.154     0.060    26.369     8.397
     4   7 N        1.833    -0.262    27.648     7.792
     5   6 C        2.912     0.051    26.864     8.499
     6   6 C        2.957     0.102    25.743     8.322
     7   6 C        3.809    -0.065    21.738     6.637
     8   6 C        3.753    -0.101    22.482     6.761
     9   7 N        1.842    -0.276    28.019     7.845
    10   6 C        3.039    -0.001    28.003     8.680
    11  16 S        2.500    -0.012   141.569    20.026
    12   6 C        3.030     0.009    27.798     8.648
    13  16 S        2.543    -0.033   142.421    20.086
    14   6 C        3.141    -0.009    27.988     8.657
    15   6 C        2.908    -0.088    30.206     9.012
    16   6 C        2.865     0.132    25.107     8.213
    17   8 O        1.705    -0.267    18.418     5.794
    18   6 C        3.647     0.031    20.378     6.487
    19   6 C        2.863     0.129    25.168     8.223
    20   8 O        1.705    -0.269    18.462     5.801
    21   6 C        3.646     0.034    20.331     6.480
    22   6 C        2.909    -0.082    30.039     8.987
    23   6 C        3.162    -0.013    27.993     8.648
    24   6 C        2.964     0.023    27.500     8.602
    25   6 C        2.920    -0.044    29.100     8.846
    26   6 C        2.937    -0.045    29.128     8.851
    27   6 C        2.973     0.024    27.473     8.598
    28  16 S        2.346    -0.020   141.887    20.048
    29   6 C        3.159    -0.010    27.933     8.640
    30   6 C        2.936    -0.072    29.784     8.950
    31   6 C        2.865     0.135    25.042     8.203
    32   8 O        1.706    -0.262    18.334     5.781
    33   6 C        3.648     0.035    20.306     6.475
    34   6 C        2.866     0.134    25.076     8.208
    35   8 O        1.706    -0.265    18.393     5.790
    36   6 C        3.648     0.036    20.288     6.472
    37   6 C        2.909    -0.077    29.918     8.969
    38   6 C        3.158    -0.008    27.905     8.636
    39   6 C        2.979     0.023    27.484     8.599
    40   6 C        2.925    -0.039    28.981     8.828
    41   6 C        2.923    -0.038    28.942     8.822
    42   6 C        2.967     0.013    27.714     8.635
    43   6 C        3.159     0.065    26.249     8.376
    44   6 C        3.147     0.067    26.245     8.381
    45   7 N        1.834    -0.228    26.818     7.674
    46   6 C        2.918     0.049    26.903     8.506
    47   6 C        2.959     0.096    25.864     8.342
    48   6 C        3.808    -0.066    21.767     6.641
    49   6 C        3.754    -0.101    22.496     6.763
    50   7 N        1.842    -0.261    27.639     7.791
    51   6 C        3.020     0.009    27.783     8.646
    52  16 S        2.416    -0.005   141.254    20.003
    53   6 C        3.023     0.013    27.704     8.634
    54   6 C        3.144     0.072    26.152     8.367
    55   6 C        3.156     0.069    26.170     8.365
    56   7 N        1.835    -0.235    26.987     7.698
    57   6 C        2.917     0.057    26.714     8.476
    58   6 C        2.961     0.101    25.752     8.324
    59   6 C        3.808    -0.066    21.752     6.639
    60   6 C        3.754    -0.102    22.497     6.763
    61   7 N        1.842    -0.240    27.109     7.716
    62   6 C        3.010     0.010    27.782     8.646
    63  16 S        2.480    -0.002   141.131    19.995
    64   6 C        3.018     0.006    27.859     8.658
    65   6 C        3.154     0.073    26.083     8.352
    66   6 C        3.183     0.070    26.009     8.323
    67   7 N        1.834    -0.250    27.366     7.752
    68   6 C        2.914     0.053    26.804     8.490
    69   6 C        2.961     0.094    25.903     8.348
    70   6 C        3.808    -0.064    21.717     6.634
    71   6 C        3.754    -0.101    22.486     6.762
    72   7 N        1.841    -0.240    27.118     7.717
    73   6 C        2.919    -0.040    28.993     8.830
    74  16 S        2.404     0.040   139.432    19.874
    75   1 H        0.927     0.059     2.206     2.323
    76   1 H        0.925     0.029     2.602     2.523
    77   1 H        0.924     0.058     2.228     2.334
    78   1 H        0.924     0.050     2.315     2.379
    79   1 H        0.925     0.042     2.424     2.435
    80   1 H        0.925     0.037     2.483     2.464
    81   1 H        0.925     0.047     2.354     2.399
    82   1 H        0.926     0.075     2.036     2.231
    83   1 H        0.924     0.046     2.365     2.405
    84   1 H        0.924     0.058     2.226     2.333
    85   1 H        0.925     0.071     2.072     2.251
    86   1 H        0.925     0.072     2.062     2.246
    87   1 H        0.924     0.049     2.337     2.391
    88   1 H        0.924     0.048     2.345     2.395
    89   1 H        0.926     0.051     2.311     2.377
    90   1 H        0.925     0.053     2.278     2.360
    91   1 H        0.925     0.052     2.298     2.370
    92   1 H        0.926     0.057     2.238     2.340
    93   1 H        0.924     0.051     2.312     2.378
    94   1 H        0.924     0.048     2.351     2.398
    95   1 H        0.925     0.072     2.059     2.244
    96   1 H        0.924     0.045     2.383     2.414
    97   1 H        0.924     0.051     2.314     2.379
    98   1 H        0.925     0.073     2.056     2.242
    99   1 H        0.926     0.053     2.289     2.366
   100   1 H        0.925     0.058     2.226     2.333
   101   1 H        0.925     0.070     2.081     2.256
   102   1 H        0.925     0.048     2.343     2.394
   103   1 H        0.924     0.049     2.334     2.389
   104   1 H        0.924     0.061     2.190     2.314
   105   1 H        0.925     0.040     2.449     2.447
   106   1 H        0.925     0.043     2.411     2.428
   107   1 H        0.925     0.047     2.354     2.399
   108   1 H        0.925     0.051     2.303     2.373
   109   1 H        0.924     0.049     2.329     2.387
   110   1 H        0.925     0.064     2.153     2.295
   111   1 H        0.925     0.039     2.458     2.452
   112   1 H        0.925     0.046     2.370     2.407
   113   1 H        0.925     0.051     2.306     2.375
   114   1 H        0.925     0.047     2.357     2.401
   115   1 H        0.924     0.044     2.390     2.418
   116   1 H        0.925     0.063     2.165     2.301
   117   1 H        0.925     0.043     2.405     2.425
   118   1 H        0.925     0.047     2.356     2.401
   119   1 H        0.925     0.040     2.454     2.450
   120   1 H        0.927     0.072     2.061     2.245

 Mol. C6AA /au·bohr⁶  :     235003.382168
 Mol. C8AA /au·bohr⁸  :    6485869.867145
 Mol. α(0) /au        :        770.509858


Wiberg/Mayer (AO) data.
largest (>0.10) Wiberg bond orders for each atom

 ---------------------------------------------------------------------------
     #   Z sym  total        # sym  WBO       # sym  WBO       # sym  WBO
 ---------------------------------------------------------------------------
     1   6 C    3.860 --     2 C    1.449    11 S    1.204    75 H    0.963
     2   6 C    3.976 --     1 C    1.449     9 N    1.232     3 C    1.126
     3   6 C    3.961 --    10 C    1.304     4 N    1.289     2 C    1.126
     4   7 N    3.071 --     5 C    1.543     3 C    1.289
     5   6 C    3.942 --     4 N    1.543     6 C    1.226    76 H    0.961
     6   6 C    3.967 --     9 N    1.543     5 C    1.226     7 C    1.010
     7   6 C    3.993 --     6 C    1.010     8 C    0.998    77 H    0.974
                            78 H    0.963
     8   6 C    3.991 --     7 C    0.998    79 H    0.988    80 H    0.987
                            81 H    0.985
     9   7 N    3.027 --     6 C    1.543     2 C    1.232
    10   6 C    3.939 --     3 C    1.304    12 C    1.243    11 S    1.144
    11  16 S    2.665 --     1 C    1.204    10 C    1.144
    12   6 C    3.921 --    14 C    1.284    10 C    1.243    13 S    1.134
    13  16 S    2.683 --    24 C    1.142    12 C    1.134
    14   6 C    3.981 --    12 C    1.284    15 C    1.261    23 C    1.211
    15   6 C    3.970 --    16 C    1.494    14 C    1.261    82 H    0.941
    16   6 C    3.920 --    15 C    1.494    19 C    1.161    17 O    1.078
    17   8 O    2.232 --    16 C    1.078    18 C    0.974
    18   6 C    3.933 --    85 H    0.979    83 H    0.975    17 O    0.974
                            84 H    0.970
    19   6 C    3.907 --    22 C    1.498    16 C    1.161    20 O    1.070
    20   8 O    2.227 --    19 C    1.070    21 C    0.979
    21   6 C    3.936 --    20 O    0.979    86 H    0.978    88 H    0.975
                            87 H    0.975
    22   6 C    3.968 --    19 C    1.498    23 C    1.262    89 H    0.957
    23   6 C    3.964 --    24 C    1.279    22 C    1.262    14 C    1.211
    24   6 C    3.902 --    23 C    1.279    25 C    1.258    13 S    1.142
    25   6 C    3.954 --    26 C    1.574    24 C    1.258    90 H    0.952
    26   6 C    3.922 --    25 C    1.574    27 C    1.224    91 H    0.957
    27   6 C    3.911 --    29 C    1.325    26 C    1.224    28 S    1.129
    28  16 S    2.575 --    39 C    1.146    27 C    1.129
    29   6 C    3.977 --    27 C    1.325    30 C    1.238    38 C    1.198
    30   6 C    3.974 --    31 C    1.492    29 C    1.238    92 H    0.960
    31   6 C    3.928 --    30 C    1.492    34 C    1.153    32 O    1.080
    32   8 O    2.239 --    31 C    1.080    33 C    0.977
    33   6 C    3.935 --    95 H    0.978    32 O    0.977    94 H    0.975
                            93 H    0.975
    34   6 C    3.927 --    37 C    1.509    31 C    1.153    35 O    1.076
    35   8 O    2.235 --    34 C    1.076    36 C    0.978
    36   6 C    3.936 --    98 H    0.978    35 O    0.978    96 H    0.976
                            97 H    0.975
    37   6 C    3.968 --    34 C    1.509    38 C    1.240    99 H    0.959
    38   6 C    3.976 --    39 C    1.330    37 C    1.240    29 C    1.198
    39   6 C    3.902 --    38 C    1.330    40 C    1.175    28 S    1.146
    40   6 C    3.919 --    41 C    1.621    39 C    1.175   100 H    0.953
    41   6 C    3.955 --    40 C    1.621    42 C    1.228   101 H    0.951
    42   6 C    3.882 --    43 C    1.291    41 C    1.228    52 S    1.145
    43   6 C    3.964 --    42 C    1.291    50 N    1.284    44 C    1.163
    44   6 C    3.962 --    45 N    1.289    51 C    1.277    43 C    1.163
    45   7 N    3.061 --    46 C    1.561    44 C    1.289
    46   6 C    3.952 --    45 N    1.561    47 C    1.236   102 H    0.960
    47   6 C    3.948 --    50 N    1.516    46 C    1.236    48 C    1.012
    48   6 C    3.993 --    47 C    1.012    49 C    0.996   104 H    0.974
                           103 H    0.966
    49   6 C    3.989 --    48 C    0.996   106 H    0.988   105 H    0.987
                           107 H    0.985
    50   7 N    3.042 --    47 C    1.516    43 C    1.284
    51   6 C    3.934 --    44 C    1.277    53 C    1.257    52 S    1.140
    52  16 S    2.659 --    42 C    1.145    51 C    1.140
    53   6 C    3.905 --    54 C    1.272    51 C    1.257    63 S    1.133
    54   6 C    3.966 --    61 N    1.295    53 C    1.272    55 C    1.166
    55   6 C    3.975 --    56 N    1.288    62 C    1.272    54 C    1.166
    56   7 N    3.060 --    57 C    1.562    55 C    1.288
    57   6 C    3.956 --    56 N    1.562    58 C    1.232   108 H    0.959
    58   6 C    3.949 --    61 N    1.515    57 C    1.232    59 C    1.013
    59   6 C    3.992 --    58 C    1.013    60 C    0.994   110 H    0.973
                           109 H    0.968
    60   6 C    3.988 --    59 C    0.994   111 H    0.986   112 H    0.985
                           113 H    0.985
    61   7 N    3.058 --    58 C    1.515    54 C    1.295
    62   6 C    3.901 --    55 C    1.272    64 C    1.254    63 S    1.144
    63  16 S    2.628 --    62 C    1.144    53 C    1.133
    64   6 C    3.944 --    65 C    1.290    62 C    1.254    74 S    1.151
    65   6 C    3.958 --    72 N    1.301    64 C    1.290    66 C    1.134
    66   6 C    3.977 --    73 C    1.428    67 N    1.238    65 C    1.134
    67   7 N    3.042 --    68 C    1.588    66 C    1.238
    68   6 C    3.974 --    67 N    1.588    69 C    1.220   114 H    0.960
    69   6 C    3.939 --    72 N    1.518    68 C    1.220    70 C    1.011
    70   6 C    3.993 --    69 C    1.011    71 C    0.996   116 H    0.973
                           115 H    0.966
    71   6 C    3.987 --    70 C    0.996   117 H    0.988   119 H    0.987
                           118 H    0.985
    72   7 N    3.068 --    69 C    1.518    65 C    1.301
    73   6 C    3.860 --    66 C    1.428    74 S    1.236   120 H    0.964
    74  16 S    2.689 --    73 C    1.236    64 C    1.151
    75   1 H    0.996 --     1 C    0.963
    76   1 H    0.998 --     5 C    0.961
    77   1 H    0.997 --     7 C    0.974
    78   1 H    0.995 --     7 C    0.963
    79   1 H    0.998 --     8 C    0.988
    80   1 H    0.999 --     8 C    0.987
    81   1 H    0.996 --     8 C    0.985
    82   1 H    0.993 --    15 C    0.941
    83   1 H    0.997 --    18 C    0.975
    84   1 H    0.996 --    18 C    0.970
    85   1 H    0.994 --    18 C    0.979
    86   1 H    0.994 --    21 C    0.978
    87   1 H    0.997 --    21 C    0.975
    88   1 H    0.997 --    21 C    0.975
    89   1 H    0.996 --    22 C    0.957
    90   1 H    0.996 --    25 C    0.952
    91   1 H    0.993 --    26 C    0.957
    92   1 H    0.995 --    30 C    0.960
    93   1 H    0.997 --    33 C    0.975
    94   1 H    0.997 --    33 C    0.975
    95   1 H    0.994 --    33 C    0.978
    96   1 H    0.997 --    36 C    0.976
    97   1 H    0.997 --    36 C    0.975
    98   1 H    0.994 --    36 C    0.978
    99   1 H    0.996 --    37 C    0.959
   100   1 H    0.990 --    40 C    0.953
   101   1 H    0.992 --    41 C    0.951
   102   1 H    0.996 --    46 C    0.960
   103   1 H    0.995 --    48 C    0.966
   104   1 H    0.996 --    48 C    0.974
   105   1 H    0.998 --    49 C    0.987
   106   1 H    0.998 --    49 C    0.988
   107   1 H    0.996 --    49 C    0.985
   108   1 H    0.996 --    57 C    0.959
   109   1 H    0.995 --    59 C    0.968
   110   1 H    0.996 --    59 C    0.973
   111   1 H    0.998 --    60 C    0.986
   112   1 H    0.997 --    60 C    0.985
   113   1 H    0.997 --    60 C    0.985
   114   1 H    0.996 --    68 C    0.960
   115   1 H    0.995 --    70 C    0.966
   116   1 H    0.996 --    70 C    0.973
   117   1 H    0.998 --    71 C    0.988
   118   1 H    0.996 --    71 C    0.985
   119   1 H    0.998 --    71 C    0.987
   120   1 H    0.994 --    73 C    0.964
 ---------------------------------------------------------------------------

Topologies differ in bond orders
Writing corrected topology to xtbtopo.mol

molecular dipole:
                 x           y           z       tot (Debye)
 q only:       -0.229       0.314       1.192
   full:        0.585      -0.018       0.475       1.916
molecular quadrupole (traceless):
                xx          xy          yy          xz          yz          zz
 q only:       -6.407     -23.890       9.572     -25.413      -4.903      -3.166
  q+dip:      -14.594     -24.497      14.873     -24.556      -4.856      -0.279
   full:      -12.427     -18.158      14.173     -19.069       1.282      -1.745


           -------------------------------------------------
          | TOTAL ENERGY             -202.602444592613 Eh   |
          | GRADIENT NORM               0.011877373169 Eh/α |
          | HOMO-LUMO GAP               0.431825775698 eV   |
           -------------------------------------------------

------------------------------------------------------------------------
 * finished run on 2022/03/04 at 13:09:52.283     
------------------------------------------------------------------------
 total:
 * wall-time:     0 d,  0 h,  0 min,  0.391 sec
 *  cpu-time:     0 d,  0 h,  0 min,  3.046 sec
 * ratio c/w:     7.782 speedup
 SCF:
 * wall-time:     0 d,  0 h,  0 min,  0.324 sec
 *  cpu-time:     0 d,  0 h,  0 min,  2.581 sec
 * ratio c/w:     7.972 speedup

