      -----------------------------------------------------------      
     |                   =====================                   |     
     |                           x T B                           |     
     |                   =====================                   |     
     |                         S. Grimme                         |     
     |          Mulliken Center for Theoretical Chemistry        |     
     |                    University of Bonn                     |     
      -----------------------------------------------------------      

   * xtb version 6.4.1 (unknown) compiled by 'oda6@login1.crc.pitt.edu' on 2021-06-25

   xtb is free software: you can redistribute it and/or modify it under
   the terms of the GNU Lesser General Public License as published by
   the Free Software Foundation, either version 3 of the License, or
   (at your option) any later version.
   
   xtb is distributed in the hope that it will be useful,
   but WITHOUT ANY WARRANTY; without even the implied warranty of
   MERCHANTABILITY or FITNESS FOR A PARTICULAR PURPOSE.  See the
   GNU Lesser General Public License for more details.
   
   Cite this work as:
   * C. Bannwarth, E. Caldeweyher, S. Ehlert, A. Hansen, P. Pracht,
     J. Seibert, S. Spicher, S. Grimme, WIREs Comput. Mol. Sci., 2020, 11,
     e01493. DOI: 10.1002/wcms.1493
   
   for GFN2-xTB:
   * C. Bannwarth, S. Ehlert and S. Grimme., J. Chem. Theory Comput., 2019,
     15, 1652-1671. DOI: 10.1021/acs.jctc.8b01176
   for GFN1-xTB:
   * S. Grimme, C. Bannwarth, P. Shushkov, J. Chem. Theory Comput., 2017,
     13, 1989-2009. DOI: 10.1021/acs.jctc.7b00118
   for GFN0-xTB:
   * P. Pracht, E. Caldeweyher, S. Ehlert, S. Grimme, ChemRxiv, 2019, preprint.
     DOI: 10.26434/chemrxiv.8326202.v1
   for GFN-FF:
   * S. Spicher and S. Grimme, Angew. Chem. Int. Ed., 2020, 59, 15665-15673.
     DOI: 10.1002/anie.202004239
   
   for DFT-D4:
   * E. Caldeweyher, C. Bannwarth and S. Grimme, J. Chem. Phys., 2017,
     147, 034112. DOI: 10.1063/1.4993215
   * E. Caldeweyher, S. Ehlert, A. Hansen, H. Neugebauer, S. Spicher,
     C. Bannwarth and S. Grimme, J. Chem. Phys., 2019, 150, 154122.
     DOI: 10.1063/1.5090222
   * E. Caldeweyher, J.-M. Mewes, S. Ehlert and S. Grimme, Phys. Chem. Chem. Phys.
     2020, 22, 8499-8512. DOI: 10.1039/D0CP00502A
   
   for sTDA-xTB:
   * S. Grimme and C. Bannwarth, J. Chem. Phys., 2016, 145, 054103.
     DOI: 10.1063/1.4959605
   
   in the mass-spec context:
   * V. Asgeirsson, C. Bauer and S. Grimme, Chem. Sci., 2017, 8, 4879.
     DOI: 10.1039/c7sc00601b
   * J. Koopman and S. Grimme, ACS Omega 2019, 4, 12, 15120-15133.
     DOI: 10.1021/acsomega.9b02011
   
   for metadynamics refer to:
   * S. Grimme, J. Chem. Theory Comput., 2019, 155, 2847-2862
     DOI: 10.1021/acs.jctc.9b00143
   
   for SPH calculations refer to:
   * S. Spicher and S. Grimme, J. Chem. Theory Comput., 2021, 17, 1701-1714
     DOI: 10.1021/acs.jctc.0c01306
   
   with help from (in alphabetical order)
   P. Atkinson, C. Bannwarth, F. Bohle, G. Brandenburg, E. Caldeweyher
   M. Checinski, S. Dohm, S. Ehlert, S. Ehrlich, I. Gerasimov, J. Koopman
   C. Lavigne, S. Lehtola, F. März, M. Müller, F. Musil, H. Neugebauer
   J. Pisarek, C. Plett, P. Pracht, J. Seibert, P. Shushkov, S. Spicher
   M. Stahn, M. Steiner, T. Strunk, J. Stückrath, T. Rose, and J. Unsleber
   
 * started run on 2022/03/04 at 13:53:12.695     

           -------------------------------------------------
          |                Calculation Setup                |
           -------------------------------------------------

          program call               : /ihome/ghutchison/oda6/xtb/xtb-641/bin/xtb ../../GFN2_output/260_406_001111.mol --sp --alpb hexane
          hostname                   : smp-n90
          coordinate file            : ../../GFN2_output/260_406_001111.mol
          omp threads                :                     8
          number of atoms            :                   140
          number of electrons        :                   442
          charge                     :                     0
          spin                       :                   0.0
          first test random number   :      0.57130558116407

   ID    Z sym.   atoms
    1    6 C      1, 3-5, 7, 8, 10-16, 18-20, 22, 23, 25-31, 33-37, 39-41,
                  43-46, 48-52, 54-56, 58-61, 63-67, 69-71, 73-76, 78-82,
                  84-86, 88-90
    2   16 S      2, 17, 32, 47, 62, 77
    3    8 O      6, 9, 21, 24, 42, 57, 72, 87
    4    7 N      38, 53, 68, 83
    5    1 H      91-140

           -------------------------------------------------
          |                 G F N 2 - x T B                 |
           -------------------------------------------------

        Reference                      10.1021/acs.jctc.8b01176
      * Hamiltonian:
        H0-scaling (s, p, d)           1.850000    2.230000    2.230000
        zeta-weighting                 0.500000
      * Dispersion:
        s8                             2.700000
        a1                             0.520000
        a2                             5.000000
        s9                             5.000000
      * Repulsion:
        kExp                           1.500000    1.000000
        rExp                           1.000000
      * Coulomb:
        alpha                          2.000000
        third order                    shell-resolved
        anisotropic                    true
        a3                             3.000000
        a5                             4.000000
        cn-shift                       1.200000
        cn-exp                         4.000000
        max-rad                        5.000000

      * Solvation model:               ALPB
        Solvent                        hexane
        Parameter file                 internal GFN2-xTB/ALPB
        Dielectric constant                1.8800E+00
        Reference state                gsolv [1 M gas/solution]
        Free energy shift                  4.8134E-03 Eh       3.0204E+00 kcal/mol
        Temperature                        2.9815E+02 K
        Density                            6.6000E-01 kg/L
        Solvent mass                       8.6180E+01 g/mol
        Interaction kernel             P16
        Born radius scaling (c1)           1.1040E+00
        Born radii integrator          GBOBC
        Born offset                        0.0000E+00 a0       0.0000E+00 AA
        H-bond correction              false
        Ion screening                  false
        Surface tension                    1.0000E-05 Eh       1.5569E+01 dyn/cm
        Grid points                               230 per atom

          ...................................................
          :                      SETUP                      :
          :.................................................:
          :  # basis functions                 446          :
          :  # atomic orbitals                 440          :
          :  # shells                          236          :
          :  # electrons                       442          :
          :  max. iterations                   250          :
          :  Hamiltonian                  GFN2-xTB          :
          :  restarted?                      false          :
          :  GBSA solvation                   true          :
          :  PC potential                    false          :
          :  electronic temp.          300.0000000     K    :
          :  accuracy                    1.0000000          :
          :  -> integral cutoff          0.2500000E+02      :
          :  -> integral neglect         0.1000000E-07      :
          :  -> SCF convergence          0.1000000E-05 Eh   :
          :  -> wf. convergence          0.1000000E-03 e    :
          :  Broyden damping             0.4000000          :
          ...................................................

 iter      E             dE          RMSdq      gap      omega  full diag
   1   -246.8423026 -0.246842E+03  0.489E+00    0.51       0.0  T
   2   -246.9823848 -0.140082E+00  0.286E+00    0.48       1.0  T
   3   -246.7344874  0.247897E+00  0.164E+00    0.57       1.0  T
   4   -247.0052269 -0.270740E+00  0.603E-01    0.49       1.0  T
   5   -247.0437603 -0.385333E-01  0.300E-01    0.51       1.0  T
   6   -247.0526203 -0.886003E-02  0.118E-01    0.49       1.0  T
   7   -247.0531879 -0.567606E-03  0.691E-02    0.50       1.0  T
   8   -247.0536287 -0.440749E-03  0.335E-02    0.50       1.0  T
   9   -247.0537169 -0.882089E-04  0.157E-02    0.50       1.0  T
  10   -247.0537292 -0.123252E-04  0.620E-03    0.50       1.4  T
  11   -247.0537308 -0.159959E-05  0.325E-03    0.50       2.6  T
  12   -247.0537316 -0.801423E-06  0.161E-03    0.50       5.2  T
  13   -247.0537317 -0.126456E-06  0.799E-04    0.50      10.6  T
  14   -247.0537317 -0.175653E-07  0.397E-04    0.50      21.3  T

   *** convergence criteria satisfied after 14 iterations ***

         #    Occupation            Energy/Eh            Energy/eV
      -------------------------------------------------------------
         1        2.0000           -0.7423887             -20.2014
       ...           ...                  ...                  ...
       215        2.0000           -0.3771398             -10.2625
       216        2.0000           -0.3724726             -10.1355
       217        2.0000           -0.3697632             -10.0618
       218        2.0000           -0.3630771              -9.8798
       219        2.0000           -0.3546354              -9.6501
       220        2.0000           -0.3418935              -9.3034
       221        1.9999           -0.3314605              -9.0195 (HOMO)
       222        0.0001           -0.3132158              -8.5230 (LUMO)
       223                         -0.3022699              -8.2252
       224                         -0.2899646              -7.8903
       225                         -0.2837225              -7.7205
       226                         -0.2771838              -7.5426
       ...                                ...                  ...
       440                          1.1747008              31.9652
      -------------------------------------------------------------
                  HL-Gap            0.0182447 Eh            0.4965 eV
             Fermi-level           -0.3223382 Eh           -8.7713 eV

 SCC (total)                   0 d,  0 h,  0 min,  0.382 sec
 SCC setup                      ...        0 min,  0.003 sec (  0.915%)
 Dispersion                     ...        0 min,  0.005 sec (  1.179%)
 classical contributions        ...        0 min,  0.000 sec (  0.053%)
 integral evaluation            ...        0 min,  0.021 sec (  5.501%)
 iterations                     ...        0 min,  0.287 sec ( 75.098%)
 molecular gradient             ...        0 min,  0.064 sec ( 16.810%)
 printout                       ...        0 min,  0.002 sec (  0.419%)

         :::::::::::::::::::::::::::::::::::::::::::::::::::::
         ::                     SUMMARY                     ::
         :::::::::::::::::::::::::::::::::::::::::::::::::::::
         :: total energy            -243.291973097727 Eh    ::
         :: total w/o Gsasa/hb      -243.218559691294 Eh    ::
         :: gradient norm              0.016322534330 Eh/a0 ::
         :: HOMO-LUMO gap              0.496464807380 eV    ::
         ::.................................................::
         :: SCC energy              -247.053731735189 Eh    ::
         :: -> isotropic ES            0.173297018266 Eh    ::
         :: -> anisotropic ES          0.017221008976 Eh    ::
         :: -> anisotropic XC          0.127397929902 Eh    ::
         :: -> dispersion             -0.247173572389 Eh    ::
         :: -> Gsolv                  -0.095606860944 Eh    ::
         ::    -> Gelec               -0.022193454510 Eh    ::
         ::    -> Gsasa               -0.078226762253 Eh    ::
         ::    -> Ghb                  0.000000000000 Eh    ::
         ::    -> Gshift               0.004813355820 Eh    ::
         :: repulsion energy           3.753808683354 Eh    ::
         :: add. restraining           0.000000000000 Eh    ::
         :: total charge               0.000000000960 e     ::
         :::::::::::::::::::::::::::::::::::::::::::::::::::::

           -------------------------------------------------
          |                Property Printout                |
           -------------------------------------------------

    * Orbital Energies and Occupations

         #    Occupation            Energy/Eh            Energy/eV
      -------------------------------------------------------------
         1        2.0000           -0.7423887             -20.2014
       ...           ...                  ...                  ...
       209        2.0000           -0.4033168             -10.9748
       210        2.0000           -0.4001246             -10.8879
       211        2.0000           -0.3973001             -10.8111
       212        2.0000           -0.3953785             -10.7588
       213        2.0000           -0.3865503             -10.5186
       214        2.0000           -0.3783397             -10.2951
       215        2.0000           -0.3771398             -10.2625
       216        2.0000           -0.3724726             -10.1355
       217        2.0000           -0.3697632             -10.0618
       218        2.0000           -0.3630771              -9.8798
       219        2.0000           -0.3546354              -9.6501
       220        2.0000           -0.3418935              -9.3034
       221        1.9999           -0.3314605              -9.0195 (HOMO)
       222        0.0001           -0.3132158              -8.5230 (LUMO)
       223                         -0.3022699              -8.2252
       224                         -0.2899646              -7.8903
       225                         -0.2837225              -7.7205
       226                         -0.2771838              -7.5426
       227                         -0.2653367              -7.2202
       228                         -0.2597078              -7.0670
       229                         -0.2531908              -6.8897
       230                         -0.2484478              -6.7606
       231                         -0.2408599              -6.5541
       232                         -0.2325213              -6.3272
       ...                                ...                  ...
       440                          1.1747008              31.9652
      -------------------------------------------------------------
                  HL-Gap            0.0182447 Eh            0.4965 eV
             Fermi-level           -0.3223382 Eh           -8.7713 eV

     #   Z          covCN         q      C6AA      α(0)
     1   6 C        2.928    -0.040    29.001     8.832
     2  16 S        2.322    -0.027   142.189    20.069
     3   6 C        3.165    -0.010    27.923     8.636
     4   6 C        2.907    -0.087    30.172     9.007
     5   6 C        2.865     0.130    25.161     8.222
     6   8 O        1.706    -0.274    18.549     5.815
     7   6 C        3.648     0.036    20.293     6.472
     8   6 C        2.865     0.128    25.193     8.228
     9   8 O        1.706    -0.271    18.491     5.806
    10   6 C        3.647     0.035    20.306     6.475
    11   6 C        2.906    -0.081    30.016     8.983
    12   6 C        3.164    -0.017    28.097     8.663
    13   6 C        2.981     0.013    27.721     8.637
    14   6 C        2.933    -0.039    28.980     8.829
    15   6 C        2.930    -0.042    29.039     8.838
    16   6 C        2.971     0.023    27.480     8.599
    17  16 S        2.328    -0.040   142.730    20.108
    18   6 C        3.152    -0.012    28.026     8.658
    19   6 C        2.909    -0.081    30.033     8.986
    20   6 C        2.864     0.130    25.145     8.220
    21   8 O        1.706    -0.269    18.465     5.802
    22   6 C        3.647     0.035    20.318     6.477
    23   6 C        2.864     0.133    25.080     8.209
    24   8 O        1.705    -0.265    18.387     5.789
    25   6 C        3.646     0.028    20.435     6.496
    26   6 C        2.909    -0.080    30.009     8.983
    27   6 C        3.132    -0.008    28.000     8.662
    28   6 C        2.972     0.020    27.566     8.612
    29   6 C        2.949    -0.038    28.934     8.822
    30   6 C        2.948    -0.048    29.188     8.861
    31   6 C        2.976     0.026    27.417     8.589
    32  16 S        2.600    -0.019   141.848    20.045
    33   6 C        2.965     0.027    27.401     8.586
    34   6 C        3.152    -0.016    28.116     8.672
    35   6 C        3.154     0.001    27.705     8.608
    36   6 C        2.963    -0.002    28.064     8.689
    37   6 C        1.915     0.125    28.028     8.550
    38   7 N        0.911    -0.301    27.756     7.620
    39   6 C        2.933    -0.023    28.580     8.768
    40   6 C        2.913    -0.074    29.850     8.959
    41   6 C        2.856     0.153    24.685     8.143
    42   8 O        1.705    -0.273    18.527     5.811
    43   6 C        3.644     0.034    20.343     6.484
    44   6 C        2.927    -0.040    28.993     8.830
    45   6 C        2.934    -0.046    29.146     8.854
    46   6 C        2.975     0.020    27.555     8.610
    47  16 S        2.592    -0.005   141.278    20.005
    48   6 C        2.979     0.028    27.376     8.583
    49   6 C        3.144    -0.022    28.286     8.702
    50   6 C        3.156     0.000    27.716     8.608
    51   6 C        2.962    -0.002    28.079     8.692
    52   6 C        1.913     0.121    28.138     8.567
    53   7 N        0.911    -0.287    27.408     7.572
    54   6 C        2.929    -0.022    28.549     8.763
    55   6 C        2.913    -0.075    29.873     8.962
    56   6 C        2.856     0.154    24.668     8.141
    57   8 O        1.705    -0.270    18.479     5.804
    58   6 C        3.643     0.032    20.378     6.489
    59   6 C        2.946    -0.041    29.019     8.835
    60   6 C        2.945    -0.044    29.102     8.848
    61   6 C        2.974     0.022    27.507     8.603
    62  16 S        2.330    -0.000   141.072    19.990
    63   6 C        2.978     0.024    27.464     8.596
    64   6 C        3.132    -0.021    28.305     8.709
    65   6 C        3.143    -0.000    27.785     8.625
    66   6 C        2.962     0.001    27.998     8.679
    67   6 C        1.916     0.124    28.045     8.552
    68   7 N        0.911    -0.289    27.437     7.576
    69   6 C        2.935    -0.023    28.576     8.767
    70   6 C        2.913    -0.074    29.840     8.958
    71   6 C        2.858     0.150    24.746     8.154
    72   8 O        1.705    -0.280    18.649     5.831
    73   6 C        3.645     0.030    20.398     6.491
    74   6 C        2.946    -0.045    29.106     8.849
    75   6 C        2.941    -0.046    29.151     8.855
    76   6 C        2.974     0.015    27.667     8.628
    77  16 S        2.347    -0.005   141.269    20.004
    78   6 C        2.976     0.022    27.513     8.604
    79   6 C        3.148    -0.024    28.317     8.705
    80   6 C        3.150    -0.005    27.863     8.634
    81   6 C        2.962    -0.001    28.041     8.686
    82   6 C        1.917     0.123    28.081     8.558
    83   7 N        0.911    -0.286    27.370     7.566
    84   6 C        2.936    -0.023    28.574     8.767
    85   6 C        2.912    -0.075    29.866     8.961
    86   6 C        2.856     0.149    24.766     8.157
    87   8 O        1.705    -0.282    18.688     5.837
    88   6 C        3.643     0.037    20.296     6.476
    89   6 C        2.931    -0.031    28.781     8.798
    90   6 C        2.842    -0.084    30.082     8.989
    91   1 H        0.926     0.045     2.386     2.416
    92   1 H        0.926     0.038     2.475     2.460
    93   1 H        0.924     0.052     2.290     2.367
    94   1 H        0.925     0.069     2.098     2.265
    95   1 H        0.924     0.044     2.391     2.418
    96   1 H        0.925     0.068     2.111     2.272
    97   1 H        0.924     0.055     2.264     2.353
    98   1 H        0.924     0.046     2.369     2.407
    99   1 H        0.926     0.047     2.363     2.404
   100   1 H        0.925     0.045     2.384     2.415
   101   1 H        0.925     0.055     2.258     2.350
   102   1 H        0.926     0.050     2.321     2.382
   103   1 H        0.925     0.072     2.068     2.249
   104   1 H        0.924     0.048     2.342     2.393
   105   1 H        0.924     0.048     2.347     2.396
   106   1 H        0.924     0.045     2.383     2.414
   107   1 H        0.924     0.070     2.086     2.259
   108   1 H        0.925     0.071     2.076     2.253
   109   1 H        0.926     0.059     2.206     2.323
   110   1 H        0.925     0.049     2.331     2.388
   111   1 H        0.926     0.058     2.227     2.334
   112   1 H        0.926     0.045     2.379     2.412
   113   1 H        0.926     0.047     2.352     2.398
   114   1 H        0.924     0.053     2.288     2.365
   115   1 H        0.925     0.073     2.051     2.240
   116   1 H        0.924     0.052     2.300     2.372
   117   1 H        0.926     0.070     2.082     2.257
   118   1 H        0.925     0.054     2.272     2.357
   119   1 H        0.926     0.047     2.363     2.404
   120   1 H        0.926     0.048     2.348     2.396
   121   1 H        0.924     0.054     2.273     2.357
   122   1 H        0.924     0.051     2.311     2.377
   123   1 H        0.925     0.079     1.988     2.205
   124   1 H        0.926     0.076     2.019     2.222
   125   1 H        0.925     0.060     2.200     2.319
   126   1 H        0.926     0.047     2.358     2.401
   127   1 H        0.926     0.049     2.336     2.390
   128   1 H        0.924     0.051     2.304     2.374
   129   1 H        0.925     0.072     2.068     2.249
   130   1 H        0.924     0.055     2.259     2.350
   131   1 H        0.926     0.063     2.159     2.298
   132   1 H        0.926     0.059     2.206     2.323
   133   1 H        0.926     0.046     2.369     2.407
   134   1 H        0.926     0.046     2.372     2.408
   135   1 H        0.925     0.070     2.085     2.258
   136   1 H        0.924     0.052     2.292     2.367
   137   1 H        0.924     0.049     2.338     2.391
   138   1 H        0.926     0.060     2.196     2.317
   139   1 H        0.926     0.047     2.363     2.404
   140   1 H        0.926     0.051     2.308     2.376

 Mol. C6AA /au·bohr⁶  :     331719.601642
 Mol. C8AA /au·bohr⁸  :    9156022.475157
 Mol. α(0) /au        :        921.298783


Wiberg/Mayer (AO) data.
largest (>0.10) Wiberg bond orders for each atom

 ---------------------------------------------------------------------------
     #   Z sym  total        # sym  WBO       # sym  WBO       # sym  WBO
 ---------------------------------------------------------------------------
     1   6 C    3.883 --     3 C    1.454     2 S    1.215    91 H    0.969
                            13 C    0.107
     2  16 S    2.629 --     1 C    1.215    13 C    1.138
     3   6 C    3.986 --     1 C    1.454     4 C    1.206    12 C    1.173
     4   6 C    3.968 --     5 C    1.538     3 C    1.206    92 H    0.963
     5   6 C    3.933 --     4 C    1.538     8 C    1.141     6 O    1.068
     6   8 O    2.230 --     5 C    1.068     7 C    0.978
     7   6 C    3.936 --    94 H    0.979     6 O    0.978    95 H    0.975
                            93 H    0.972
     8   6 C    3.911 --    11 C    1.521     5 C    1.141     9 O    1.068
     9   8 O    2.226 --     8 C    1.068    10 C    0.978
    10   6 C    3.935 --    96 H    0.978     9 O    0.978    98 H    0.975
                            97 H    0.968
    11   6 C    3.977 --     8 C    1.521    12 C    1.238    99 H    0.961
    12   6 C    3.955 --    13 C    1.351    11 C    1.238     3 C    1.173
    13   6 C    3.939 --    12 C    1.351    14 C    1.208     2 S    1.138
                             1 C    0.107
    14   6 C    3.928 --    15 C    1.614    13 C    1.208   100 H    0.952
    15   6 C    3.966 --    14 C    1.614    16 C    1.234   101 H    0.945
    16   6 C    3.890 --    18 C    1.300    15 C    1.234    17 S    1.143
    17  16 S    2.563 --    16 C    1.143    28 C    1.122
    18   6 C    3.963 --    16 C    1.300    19 C    1.251    27 C    1.214
    19   6 C    3.968 --    20 C    1.506    18 C    1.251   102 H    0.959
    20   6 C    3.913 --    19 C    1.506    23 C    1.159    21 O    1.071
    21   8 O    2.229 --    20 C    1.071    22 C    0.979
    22   6 C    3.936 --    21 O    0.979   103 H    0.978   105 H    0.975
                           104 H    0.975
    23   6 C    3.920 --    26 C    1.491    20 C    1.159    24 O    1.085
    24   8 O    2.240 --    23 C    1.085    25 C    0.972
    25   6 C    3.929 --   108 H    0.979   106 H    0.976    24 O    0.972
                           107 H    0.969
    26   6 C    3.970 --    23 C    1.491    27 C    1.264   109 H    0.952
    27   6 C    3.954 --    28 C    1.283    26 C    1.264    18 C    1.214
    28   6 C    3.906 --    27 C    1.283    29 C    1.282    17 S    1.122
    29   6 C    3.941 --    30 C    1.528    28 C    1.282   110 H    0.949
    30   6 C    3.949 --    29 C    1.528    31 C    1.279   111 H    0.939
    31   6 C    3.926 --    35 C    1.289    30 C    1.279    32 S    1.134
    32  16 S    2.659 --    33 C    1.150    31 C    1.134
    33   6 C    3.893 --    34 C    1.289    44 C    1.242    32 S    1.150
    34   6 C    3.962 --    33 C    1.289    35 C    1.222    41 C    1.212
    35   6 C    3.954 --    31 C    1.289    34 C    1.222    36 C    1.202
    36   6 C    3.972 --    39 C    1.423    35 C    1.202    37 C    1.122
    37   6 C    3.938 --    38 N    2.743    36 C    1.122
    38   7 N    2.943 --    37 C    2.743
    39   6 C    3.967 --    36 C    1.423    40 C    1.363   112 H    0.969
    40   6 C    3.960 --    41 C    1.428    39 C    1.363   113 H    0.963
    41   6 C    3.897 --    40 C    1.428    34 C    1.212    42 O    1.082
    42   8 O    2.246 --    41 C    1.082    43 C    0.972
    43   6 C    3.932 --   115 H    0.978   114 H    0.975   116 H    0.975
                            42 O    0.972
    44   6 C    3.949 --    45 C    1.612    33 C    1.242   117 H    0.948
    45   6 C    3.917 --    44 C    1.612    46 C    1.175   118 H    0.948
    46   6 C    3.881 --    50 C    1.336    45 C    1.175    47 S    1.145
    47  16 S    2.646 --    46 C    1.145    48 C    1.128
    48   6 C    3.920 --    59 C    1.292    49 C    1.287    47 S    1.128
    49   6 C    3.947 --    48 C    1.287    56 C    1.215    50 C    1.207
    50   6 C    3.959 --    46 C    1.336    49 C    1.207    51 C    1.188
    51   6 C    3.969 --    54 C    1.435    50 C    1.188    52 C    1.119
    52   6 C    3.940 --    53 N    2.759    51 C    1.119
    53   7 N    2.942 --    52 C    2.759
    54   6 C    3.975 --    51 C    1.435    55 C    1.360   119 H    0.969
    55   6 C    3.952 --    56 C    1.423    54 C    1.360   120 H    0.963
    56   6 C    3.901 --    55 C    1.423    49 C    1.215    57 O    1.089
    57   8 O    2.252 --    56 C    1.089    58 C    0.970
    58   6 C    3.930 --   123 H    0.977   121 H    0.975   122 H    0.975
                            57 O    0.970
    59   6 C    3.932 --    60 C    1.516    48 C    1.292   124 H    0.944
    60   6 C    3.948 --    59 C    1.516    61 C    1.297   125 H    0.936
    61   6 C    3.907 --    60 C    1.297    65 C    1.278    62 S    1.131
    62  16 S    2.587 --    63 C    1.143    61 C    1.131
    63   6 C    3.896 --    64 C    1.282    74 C    1.270    62 S    1.143
    64   6 C    3.955 --    63 C    1.282    65 C    1.225    71 C    1.216
    65   6 C    3.955 --    61 C    1.278    64 C    1.225    66 C    1.211
    66   6 C    3.973 --    69 C    1.426    65 C    1.211    67 C    1.114
    67   6 C    3.939 --    68 N    2.756    66 C    1.114
    68   7 N    2.948 --    67 C    2.756
    69   6 C    3.966 --    66 C    1.426    70 C    1.361   126 H    0.969
    70   6 C    3.959 --    71 C    1.432    69 C    1.361   127 H    0.963
    71   6 C    3.897 --    70 C    1.432    64 C    1.216    72 O    1.073
    72   8 O    2.234 --    71 C    1.073    73 C    0.972
    73   6 C    3.933 --   129 H    0.976   130 H    0.975   128 H    0.975
                            72 O    0.972
    74   6 C    3.953 --    75 C    1.551    63 C    1.270   131 H    0.943
    75   6 C    3.925 --    74 C    1.551    76 C    1.261   132 H    0.938
    76   6 C    3.941 --    80 C    1.311    75 C    1.261    77 S    1.136
    77  16 S    2.620 --    78 C    1.162    76 C    1.136
    78   6 C    3.883 --    79 C    1.344    89 C    1.169    77 S    1.162
    79   6 C    3.980 --    78 C    1.344    80 C    1.204    86 C    1.191
    80   6 C    3.949 --    76 C    1.311    79 C    1.204    81 C    1.200
    81   6 C    3.977 --    84 C    1.437    80 C    1.200    82 C    1.114
    82   6 C    3.940 --    83 N    2.755    81 C    1.114
    83   7 N    2.949 --    82 C    2.755
    84   6 C    3.963 --    81 C    1.437    85 C    1.341   133 H    0.969
    85   6 C    3.967 --    86 C    1.456    84 C    1.341   134 H    0.963
    86   6 C    3.895 --    85 C    1.456    79 C    1.191    87 O    1.069
    87   8 O    2.233 --    86 C    1.069    88 C    0.973
    88   6 C    3.934 --   135 H    0.978   136 H    0.975   137 H    0.975
                            87 O    0.973
    89   6 C    3.988 --    90 C    1.821    78 C    1.169   138 H    0.950
    90   6 C    3.912 --    89 C    1.821   139 H    0.978   140 H    0.970
    91   1 H    0.997 --     1 C    0.969
    92   1 H    0.997 --     4 C    0.963
    93   1 H    0.997 --     7 C    0.972
    94   1 H    0.995 --     7 C    0.979
    95   1 H    0.998 --     7 C    0.975
    96   1 H    0.995 --    10 C    0.978
    97   1 H    0.996 --    10 C    0.968
    98   1 H    0.997 --    10 C    0.975
    99   1 H    0.997 --    11 C    0.961
   100   1 H    0.997 --    14 C    0.952
   101   1 H    0.995 --    15 C    0.945
   102   1 H    0.996 --    19 C    0.959
   103   1 H    0.994 --    22 C    0.978
   104   1 H    0.997 --    22 C    0.975
   105   1 H    0.997 --    22 C    0.975
   106   1 H    0.997 --    25 C    0.976
   107   1 H    0.994 --    25 C    0.969
   108   1 H    0.995 --    25 C    0.979
   109   1 H    0.995 --    26 C    0.952
   110   1 H    0.994 --    29 C    0.949
   111   1 H    0.995 --    30 C    0.939
   112   1 H    0.997 --    39 C    0.969
   113   1 H    0.996 --    40 C    0.963
   114   1 H    0.996 --    43 C    0.975
   115   1 H    0.994 --    43 C    0.978
   116   1 H    0.996 --    43 C    0.975
   117   1 H    0.993 --    44 C    0.948
   118   1 H    0.992 --    45 C    0.948
   119   1 H    0.997 --    54 C    0.969
   120   1 H    0.996 --    55 C    0.963
   121   1 H    0.996 --    58 C    0.975
   122   1 H    0.996 --    58 C    0.975
   123   1 H    0.993 --    58 C    0.977
   124   1 H    0.993 --    59 C    0.944
   125   1 H    0.996 --    60 C    0.936
   126   1 H    0.997 --    69 C    0.969
   127   1 H    0.995 --    70 C    0.963
   128   1 H    0.996 --    73 C    0.975
   129   1 H    0.994 --    73 C    0.976
   130   1 H    0.996 --    73 C    0.975
   131   1 H    0.995 --    74 C    0.943
   132   1 H    0.996 --    75 C    0.938
   133   1 H    0.997 --    84 C    0.969
   134   1 H    0.996 --    85 C    0.963
   135   1 H    0.995 --    88 C    0.978
   136   1 H    0.996 --    88 C    0.975
   137   1 H    0.996 --    88 C    0.975
   138   1 H    0.996 --    89 C    0.950
   139   1 H    0.997 --    90 C    0.978
   140   1 H    0.997 --    90 C    0.970
 ---------------------------------------------------------------------------

Topologies differ in bond orders
Writing corrected topology to xtbtopo.mol

molecular dipole:
                 x           y           z       tot (Debye)
 q only:       -0.181      -1.590       3.836
   full:        0.029      -2.043       4.537      12.648
molecular quadrupole (traceless):
                xx          xy          yy          xz          yz          zz
 q only:      -44.044      13.378      54.667     -13.104     -28.535     -10.623
  q+dip:      -58.356      29.397      76.206     -13.255     -38.667     -17.850
   full:      -52.196      26.789      75.581     -14.631     -34.023     -23.385


           -------------------------------------------------
          | TOTAL ENERGY             -243.291973097727 Eh   |
          | GRADIENT NORM               0.016322534330 Eh/α |
          | HOMO-LUMO GAP               0.496464807380 eV   |
           -------------------------------------------------

------------------------------------------------------------------------
 * finished run on 2022/03/04 at 13:53:13.162     
------------------------------------------------------------------------
 total:
 * wall-time:     0 d,  0 h,  0 min,  0.466 sec
 *  cpu-time:     0 d,  0 h,  0 min,  3.595 sec
 * ratio c/w:     7.716 speedup
 SCF:
 * wall-time:     0 d,  0 h,  0 min,  0.384 sec
 *  cpu-time:     0 d,  0 h,  0 min,  3.061 sec
 * ratio c/w:     7.979 speedup

