      -----------------------------------------------------------      
     |                   =====================                   |     
     |                           x T B                           |     
     |                   =====================                   |     
     |                         S. Grimme                         |     
     |          Mulliken Center for Theoretical Chemistry        |     
     |                    University of Bonn                     |     
      -----------------------------------------------------------      

   * xtb version 6.4.1 (unknown) compiled by 'oda6@login1.crc.pitt.edu' on 2021-06-25

   xtb is free software: you can redistribute it and/or modify it under
   the terms of the GNU Lesser General Public License as published by
   the Free Software Foundation, either version 3 of the License, or
   (at your option) any later version.
   
   xtb is distributed in the hope that it will be useful,
   but WITHOUT ANY WARRANTY; without even the implied warranty of
   MERCHANTABILITY or FITNESS FOR A PARTICULAR PURPOSE.  See the
   GNU Lesser General Public License for more details.
   
   Cite this work as:
   * C. Bannwarth, E. Caldeweyher, S. Ehlert, A. Hansen, P. Pracht,
     J. Seibert, S. Spicher, S. Grimme, WIREs Comput. Mol. Sci., 2020, 11,
     e01493. DOI: 10.1002/wcms.1493
   
   for GFN2-xTB:
   * C. Bannwarth, S. Ehlert and S. Grimme., J. Chem. Theory Comput., 2019,
     15, 1652-1671. DOI: 10.1021/acs.jctc.8b01176
   for GFN1-xTB:
   * S. Grimme, C. Bannwarth, P. Shushkov, J. Chem. Theory Comput., 2017,
     13, 1989-2009. DOI: 10.1021/acs.jctc.7b00118
   for GFN0-xTB:
   * P. Pracht, E. Caldeweyher, S. Ehlert, S. Grimme, ChemRxiv, 2019, preprint.
     DOI: 10.26434/chemrxiv.8326202.v1
   for GFN-FF:
   * S. Spicher and S. Grimme, Angew. Chem. Int. Ed., 2020, 59, 15665-15673.
     DOI: 10.1002/anie.202004239
   
   for DFT-D4:
   * E. Caldeweyher, C. Bannwarth and S. Grimme, J. Chem. Phys., 2017,
     147, 034112. DOI: 10.1063/1.4993215
   * E. Caldeweyher, S. Ehlert, A. Hansen, H. Neugebauer, S. Spicher,
     C. Bannwarth and S. Grimme, J. Chem. Phys., 2019, 150, 154122.
     DOI: 10.1063/1.5090222
   * E. Caldeweyher, J.-M. Mewes, S. Ehlert and S. Grimme, Phys. Chem. Chem. Phys.
     2020, 22, 8499-8512. DOI: 10.1039/D0CP00502A
   
   for sTDA-xTB:
   * S. Grimme and C. Bannwarth, J. Chem. Phys., 2016, 145, 054103.
     DOI: 10.1063/1.4959605
   
   in the mass-spec context:
   * V. Asgeirsson, C. Bauer and S. Grimme, Chem. Sci., 2017, 8, 4879.
     DOI: 10.1039/c7sc00601b
   * J. Koopman and S. Grimme, ACS Omega 2019, 4, 12, 15120-15133.
     DOI: 10.1021/acsomega.9b02011
   
   for metadynamics refer to:
   * S. Grimme, J. Chem. Theory Comput., 2019, 155, 2847-2862
     DOI: 10.1021/acs.jctc.9b00143
   
   for SPH calculations refer to:
   * S. Spicher and S. Grimme, J. Chem. Theory Comput., 2021, 17, 1701-1714
     DOI: 10.1021/acs.jctc.0c01306
   
   with help from (in alphabetical order)
   P. Atkinson, C. Bannwarth, F. Bohle, G. Brandenburg, E. Caldeweyher
   M. Checinski, S. Dohm, S. Ehlert, S. Ehrlich, I. Gerasimov, J. Koopman
   C. Lavigne, S. Lehtola, F. März, M. Müller, F. Musil, H. Neugebauer
   J. Pisarek, C. Plett, P. Pracht, J. Seibert, P. Shushkov, S. Spicher
   M. Stahn, M. Steiner, T. Strunk, J. Stückrath, T. Rose, and J. Unsleber
   
 * started run on 2022/03/04 at 13:09:55.462     

           -------------------------------------------------
          |                Calculation Setup                |
           -------------------------------------------------

          program call               : /ihome/ghutchison/oda6/xtb/xtb-641/bin/xtb ../../GFN2_output/576_99_110100.mol --sp --alpb hexane
          hostname                   : smp-n90
          coordinate file            : ../../GFN2_output/576_99_110100.mol
          omp threads                :                     8
          number of atoms            :                   194
          number of electrons        :                   626
          charge                     :                     0
          spin                       :                   0.0
          first test random number   :      0.57319864990277

   ID    Z sym.   atoms
    1    6 C      1-8, 10-12, 14-21, 23-26, 28, 30, 31, 33-40, 42-44, 46-53,
                  55-58, 60, 62, 63, 65-67, 69-71, 73, 75-82, 84-86, 88-95,
                  97-100, 102, 104, 105, 107-109, 111-113, 115, 117-119,
                  121-123, 125
    2   16 S      9, 22, 29, 32, 41, 54, 61, 64, 74, 83, 96, 103, 106, 116,
                  126
    3    9 F      13, 27, 45, 59, 87, 101
    4    7 N      68, 72, 110, 114, 120, 124
    5    1 H      127-194

           -------------------------------------------------
          |                 G F N 2 - x T B                 |
           -------------------------------------------------

        Reference                      10.1021/acs.jctc.8b01176
      * Hamiltonian:
        H0-scaling (s, p, d)           1.850000    2.230000    2.230000
        zeta-weighting                 0.500000
      * Dispersion:
        s8                             2.700000
        a1                             0.520000
        a2                             5.000000
        s9                             5.000000
      * Repulsion:
        kExp                           1.500000    1.000000
        rExp                           1.000000
      * Coulomb:
        alpha                          2.000000
        third order                    shell-resolved
        anisotropic                    true
        a3                             3.000000
        a5                             4.000000
        cn-shift                       1.200000
        cn-exp                         4.000000
        max-rad                        5.000000

      * Solvation model:               ALPB
        Solvent                        hexane
        Parameter file                 internal GFN2-xTB/ALPB
        Dielectric constant                1.8800E+00
        Reference state                gsolv [1 M gas/solution]
        Free energy shift                  4.8134E-03 Eh       3.0204E+00 kcal/mol
        Temperature                        2.9815E+02 K
        Density                            6.6000E-01 kg/L
        Solvent mass                       8.6180E+01 g/mol
        Interaction kernel             P16
        Born radius scaling (c1)           1.1040E+00
        Born radii integrator          GBOBC
        Born offset                        0.0000E+00 a0       0.0000E+00 AA
        H-bond correction              false
        Ion screening                  false
        Surface tension                    1.0000E-05 Eh       1.5569E+01 dyn/cm
        Grid points                               230 per atom

          ...................................................
          :                      SETUP                      :
          :.................................................:
          :  # basis functions                 662          :
          :  # atomic orbitals                 647          :
          :  # shells                          335          :
          :  # electrons                       626          :
          :  max. iterations                   250          :
          :  Hamiltonian                  GFN2-xTB          :
          :  restarted?                      false          :
          :  GBSA solvation                   true          :
          :  PC potential                    false          :
          :  electronic temp.          300.0000000     K    :
          :  accuracy                    1.0000000          :
          :  -> integral cutoff          0.2500000E+02      :
          :  -> integral neglect         0.1000000E-07      :
          :  -> SCF convergence          0.1000000E-05 Eh   :
          :  -> wf. convergence          0.1000000E-03 e    :
          :  Broyden damping             0.4000000          :
          ...................................................

 iter      E             dE          RMSdq      gap      omega  full diag
   1   -346.1847256 -0.346185E+03  0.437E+00    0.96       0.0  T
   2   -346.4199662 -0.235241E+00  0.248E+00    0.87       1.0  T
   3   -346.3671829  0.527833E-01  0.994E-01    0.88       1.0  T
   4   -346.4527731 -0.855902E-01  0.422E-01    0.79       1.0  T
   5   -346.4615908 -0.881765E-02  0.228E-01    0.83       1.0  T
   6   -346.4656666 -0.407580E-02  0.101E-01    0.82       1.0  T
   7   -346.4667302 -0.106367E-02  0.408E-02    0.82       1.0  T
   8   -346.4668613 -0.131080E-03  0.223E-02    0.82       1.0  T
   9   -346.4668808 -0.194619E-04  0.131E-02    0.82       1.0  T
  10   -346.4668912 -0.104619E-04  0.612E-03    0.82       1.2  T
  11   -346.4668946 -0.334764E-05  0.254E-03    0.82       2.8  T
  12   -346.4668947 -0.156700E-06  0.156E-03    0.82       4.6  T
  13   -346.4668949 -0.150070E-06  0.787E-04    0.82       9.1  T
  14   -346.4668949 -0.628558E-07  0.329E-04    0.82      21.8  T

   *** convergence criteria satisfied after 14 iterations ***

         #    Occupation            Energy/Eh            Energy/eV
      -------------------------------------------------------------
         1        2.0000           -0.8286679             -22.5492
       ...           ...                  ...                  ...
       307        2.0000           -0.3670661              -9.9884
       308        2.0000           -0.3669560              -9.9854
       309        2.0000           -0.3645142              -9.9189
       310        2.0000           -0.3641750              -9.9097
       311        2.0000           -0.3625470              -9.8654
       312        2.0000           -0.3593289              -9.7778
       313        2.0000           -0.3565289              -9.7016 (HOMO)
       314        0.0000           -0.3263514              -8.8805 (LUMO)
       315                         -0.3192170              -8.6863
       316                         -0.3013551              -8.2003
       317                         -0.2967886              -8.0760
       318                         -0.2814070              -7.6575
       ...                                ...                  ...
       647                          0.7081116              19.2687
      -------------------------------------------------------------
                  HL-Gap            0.0301775 Eh            0.8212 eV
             Fermi-level           -0.3414151 Eh           -9.2904 eV

 SCC (total)                   0 d,  0 h,  0 min,  0.740 sec
 SCC setup                      ...        0 min,  0.007 sec (  0.987%)
 Dispersion                     ...        0 min,  0.008 sec (  1.135%)
 classical contributions        ...        0 min,  0.000 sec (  0.046%)
 integral evaluation            ...        0 min,  0.039 sec (  5.215%)
 iterations                     ...        0 min,  0.579 sec ( 78.226%)
 molecular gradient             ...        0 min,  0.103 sec ( 13.916%)
 printout                       ...        0 min,  0.003 sec (  0.462%)

         :::::::::::::::::::::::::::::::::::::::::::::::::::::
         ::                     SUMMARY                     ::
         :::::::::::::::::::::::::::::::::::::::::::::::::::::
         :: total energy            -341.588308865486 Eh    ::
         :: total w/o Gsasa/hb      -341.464726073689 Eh    ::
         :: gradient norm              0.018186782547 Eh/a0 ::
         :: HOMO-LUMO gap              0.821171731776 eV    ::
         ::.................................................::
         :: SCC energy              -346.466894940491 Eh    ::
         :: -> isotropic ES            0.158240499079 Eh    ::
         :: -> anisotropic ES          0.015456983784 Eh    ::
         :: -> anisotropic XC          0.150705045331 Eh    ::
         :: -> dispersion             -0.312764280881 Eh    ::
         :: -> Gsolv                  -0.149239338485 Eh    ::
         ::    -> Gelec               -0.025656546688 Eh    ::
         ::    -> Gsasa               -0.128396147617 Eh    ::
         ::    -> Ghb                  0.000000000000 Eh    ::
         ::    -> Gshift               0.004813355820 Eh    ::
         :: repulsion energy           4.880616996555 Eh    ::
         :: add. restraining           0.000000000000 Eh    ::
         :: total charge               0.000000000003 e     ::
         :::::::::::::::::::::::::::::::::::::::::::::::::::::

           -------------------------------------------------
          |                Property Printout                |
           -------------------------------------------------

    * Orbital Energies and Occupations

         #    Occupation            Energy/Eh            Energy/eV
      -------------------------------------------------------------
         1        2.0000           -0.8286679             -22.5492
       ...           ...                  ...                  ...
       301        2.0000           -0.3771130             -10.2618
       302        2.0000           -0.3758798             -10.2282
       303        2.0000           -0.3722251             -10.1288
       304        2.0000           -0.3699939             -10.0680
       305        2.0000           -0.3688900             -10.0380
       306        2.0000           -0.3685696             -10.0293
       307        2.0000           -0.3670661              -9.9884
       308        2.0000           -0.3669560              -9.9854
       309        2.0000           -0.3645142              -9.9189
       310        2.0000           -0.3641750              -9.9097
       311        2.0000           -0.3625470              -9.8654
       312        2.0000           -0.3593289              -9.7778
       313        2.0000           -0.3565289              -9.7016 (HOMO)
       314        0.0000           -0.3263514              -8.8805 (LUMO)
       315                         -0.3192170              -8.6863
       316                         -0.3013551              -8.2003
       317                         -0.2967886              -8.0760
       318                         -0.2814070              -7.6575
       319                         -0.2765442              -7.5252
       320                         -0.2644488              -7.1960
       321                         -0.2633119              -7.1651
       322                         -0.2603102              -7.0834
       323                         -0.2555671              -6.9543
       324                         -0.2535540              -6.8996
       ...                                ...                  ...
       647                          0.7081116              19.2687
      -------------------------------------------------------------
                  HL-Gap            0.0301775 Eh            0.8212 eV
             Fermi-level           -0.3414151 Eh           -9.2904 eV

     #   Z          covCN         q      C6AA      α(0)
     1   6 C        2.935    -0.009    28.233     8.714
     2   6 C        3.070    -0.050    29.158     8.854
     3   6 C        3.147    -0.004    27.852     8.634
     4   6 C        2.996    -0.004    28.120     8.699
     5   6 C        2.979     0.012    27.746     8.640
     6   6 C        2.925    -0.039    28.980     8.828
     7   6 C        2.946    -0.042    29.054     8.841
     8   6 C        2.961     0.035    27.216     8.557
     9  16 S        2.048    -0.159   147.757    20.459
    10   6 C        3.793    -0.003    20.645     6.470
    11   6 C        3.778    -0.105    22.529     6.762
    12   6 C        2.837     0.163    24.486     8.109
    13   9 F        0.787    -0.237    11.626     4.028
    14   6 C        2.922    -0.052    29.303     8.877
    15   6 C        3.010     0.027    27.394     8.586
    16   6 C        3.134    -0.003    27.888     8.645
    17   6 C        2.992    -0.004    28.117     8.698
    18   6 C        2.978     0.014    27.691     8.632
    19   6 C        2.922    -0.037    28.916     8.818
    20   6 C        2.982    -0.037    28.921     8.821
    21   6 C        2.959     0.036    27.193     8.553
    22  16 S        2.049    -0.182   148.786    20.530
    23   6 C        3.793     0.001    20.574     6.459
    24   6 C        3.779    -0.100    22.433     6.748
    25   6 C        2.802     0.162    24.484     8.106
    26   6 C        2.924    -0.053    29.315     8.879
    27   9 F        0.787    -0.241    11.671     4.035
    28   6 C        3.006     0.024    27.465     8.597
    29  16 S        2.251    -0.061   143.593    20.168
    30   6 C        3.061    -0.053    29.263     8.871
    31   6 C        3.010     0.031    27.287     8.569
    32  16 S        2.286    -0.088   144.734    20.248
    33   6 C        3.028     0.030    27.304     8.571
    34   6 C        3.070    -0.055    29.278     8.872
    35   6 C        3.135    -0.003    27.878     8.642
    36   6 C        2.992    -0.004    28.113     8.698
    37   6 C        2.978     0.012    27.736     8.639
    38   6 C        2.924    -0.040    28.998     8.831
    39   6 C        2.944    -0.045    29.115     8.850
    40   6 C        2.961     0.034    27.236     8.560
    41  16 S        2.051    -0.158   147.727    20.457
    42   6 C        3.793    -0.004    20.666     6.474
    43   6 C        3.779    -0.106    22.547     6.765
    44   6 C        2.840     0.164    24.459     8.105
    45   9 F        0.788    -0.235    11.605     4.024
    46   6 C        2.922    -0.050    29.253     8.870
    47   6 C        3.005     0.028    27.357     8.580
    48   6 C        3.132    -0.000    27.823     8.635
    49   6 C        2.990    -0.003    28.093     8.694
    50   6 C        2.978     0.012    27.739     8.639
    51   6 C        2.924    -0.040    28.988     8.829
    52   6 C        2.943    -0.046    29.138     8.853
    53   6 C        2.960     0.034    27.244     8.561
    54  16 S        2.053    -0.151   147.441    20.437
    55   6 C        3.793    -0.004    20.667     6.474
    56   6 C        3.778    -0.107    22.559     6.767
    57   6 C        2.843     0.164    24.465     8.106
    58   6 C        2.922    -0.051    29.260     8.871
    59   9 F        0.788    -0.235    11.606     4.024
    60   6 C        3.005     0.026    27.398     8.586
    61  16 S        2.259    -0.071   144.021    20.198
    62   6 C        3.061    -0.059    29.397     8.891
    63   6 C        3.014     0.036    27.175     8.551
    64  16 S        2.267    -0.075   144.187    20.210
    65   6 C        3.002    -0.001    28.035     8.686
    66   6 C        3.148     0.065    26.284     8.387
    67   6 C        3.157     0.062    26.319     8.388
    68   7 N        1.834    -0.242    27.177     7.725
    69   6 C        2.914     0.050    26.889     8.503
    70   6 C        2.952     0.103    25.728     8.319
    71   6 C        3.760    -0.121    22.865     6.817
    72   7 N        1.842    -0.259    27.590     7.784
    73   6 C        3.004     0.002    27.968     8.675
    74  16 S        2.375     0.039   139.487    19.878
    75   6 C        3.016     0.035    27.187     8.553
    76   6 C        3.058    -0.056    29.331     8.881
    77   6 C        3.131     0.000    27.808     8.633
    78   6 C        2.992    -0.002    28.066     8.690
    79   6 C        2.978     0.016    27.654     8.626
    80   6 C        2.922    -0.036    28.900     8.816
    81   6 C        2.982    -0.039    28.959     8.827
    82   6 C        2.960     0.033    27.258     8.563
    83  16 S        2.065    -0.177   148.550    20.514
    84   6 C        3.792     0.004    20.524     6.452
    85   6 C        3.795    -0.106    22.538     6.760
    86   6 C        2.803     0.160    24.524     8.113
    87   9 F        0.787    -0.247    11.730     4.046
    88   6 C        2.925    -0.051    29.266     8.872
    89   6 C        3.006     0.022    27.510     8.604
    90   6 C        3.126    -0.001    27.847     8.641
    91   6 C        2.992    -0.004    28.118     8.698
    92   6 C        2.978     0.015    27.678     8.630
    93   6 C        2.922    -0.036    28.901     8.816
    94   6 C        2.981    -0.037    28.915     8.821
    95   6 C        2.959     0.036    27.192     8.553
    96  16 S        2.048    -0.181   148.731    20.526
    97   6 C        3.793     0.000    20.581     6.460
    98   6 C        3.778    -0.100    22.440     6.749
    99   6 C        2.802     0.162    24.500     8.109
   100   6 C        2.924    -0.053    29.327     8.881
   101   9 F        0.787    -0.244    11.700     4.040
   102   6 C        3.005     0.029    27.342     8.577
   103  16 S        2.276    -0.077   144.266    20.215
   104   6 C        3.056    -0.058    29.380     8.889
   105   6 C        3.011     0.035    27.198     8.555
   106  16 S        2.295    -0.049   143.088    20.133
   107   6 C        3.020     0.001    27.984     8.677
   108   6 C        3.168     0.069    26.121     8.351
   109   6 C        3.148     0.065    26.282     8.386
   110   7 N        1.834    -0.221    26.671     7.653
   111   6 C        2.918     0.049    26.890     8.504
   112   6 C        2.957     0.105    25.676     8.311
   113   6 C        3.760    -0.122    22.886     6.820
   114   7 N        1.871    -0.245    27.245     7.737
   115   6 C        3.008     0.010    27.769     8.644
   116  16 S        2.357     0.012   140.552    19.954
   117   6 C        3.010     0.004    27.915     8.667
   118   6 C        3.158     0.069    26.163     8.363
   119   6 C        3.180     0.067    26.097     8.340
   120   7 N        1.833    -0.243    27.191     7.727
   121   6 C        2.916     0.054    26.786     8.487
   122   6 C        2.957     0.102    25.742     8.322
   123   6 C        3.760    -0.122    22.890     6.821
   124   7 N        1.841    -0.239    27.087     7.713
   125   6 C        2.921    -0.041    29.025     8.835
   126  16 S        2.355     0.044   139.285    19.863
   127   1 H        0.926     0.056     2.245     2.343
   128   1 H        0.926     0.050     2.314     2.379
   129   1 H        0.926     0.056     2.252     2.347
   130   1 H        0.926     0.059     2.210     2.325
   131   1 H        0.925     0.054     2.276     2.359
   132   1 H        0.925     0.062     2.176     2.307
   133   1 H        0.925     0.049     2.333     2.388
   134   1 H        0.925     0.046     2.376     2.411
   135   1 H        0.925     0.055     2.255     2.349
   136   1 H        0.926     0.066     2.127     2.281
   137   1 H        0.926     0.058     2.221     2.330
   138   1 H        0.926     0.065     2.141     2.288
   139   1 H        0.925     0.064     2.148     2.292
   140   1 H        0.925     0.057     2.232     2.336
   141   1 H        0.925     0.050     2.326     2.385
   142   1 H        0.925     0.048     2.340     2.392
   143   1 H        0.925     0.042     2.424     2.435
   144   1 H        0.926     0.066     2.130     2.282
   145   1 H        0.926     0.054     2.272     2.357
   146   1 H        0.926     0.056     2.249     2.345
   147   1 H        0.926     0.053     2.282     2.362
   148   1 H        0.926     0.058     2.228     2.334
   149   1 H        0.925     0.055     2.260     2.351
   150   1 H        0.925     0.062     2.177     2.307
   151   1 H        0.925     0.053     2.282     2.363
   152   1 H        0.925     0.049     2.331     2.388
   153   1 H        0.925     0.048     2.351     2.398
   154   1 H        0.926     0.068     2.105     2.269
   155   1 H        0.926     0.056     2.252     2.347
   156   1 H        0.926     0.057     2.233     2.337
   157   1 H        0.925     0.061     2.181     2.310
   158   1 H        0.925     0.053     2.278     2.360
   159   1 H        0.925     0.053     2.282     2.362
   160   1 H        0.925     0.049     2.338     2.391
   161   1 H        0.925     0.048     2.339     2.392
   162   1 H        0.926     0.068     2.106     2.269
   163   1 H        0.926     0.078     1.995     2.209
   164   1 H        0.925     0.052     2.290     2.367
   165   1 H        0.925     0.068     2.109     2.271
   166   1 H        0.925     0.067     2.118     2.276
   167   1 H        0.925     0.064     2.151     2.294
   168   1 H        0.926     0.078     1.999     2.211
   169   1 H        0.926     0.060     2.198     2.318
   170   1 H        0.926     0.063     2.168     2.302
   171   1 H        0.925     0.059     2.214     2.327
   172   1 H        0.925     0.052     2.290     2.366
   173   1 H        0.925     0.051     2.311     2.377
   174   1 H        0.925     0.051     2.306     2.375
   175   1 H        0.925     0.050     2.319     2.381
   176   1 H        0.926     0.072     2.062     2.245
   177   1 H        0.926     0.060     2.203     2.321
   178   1 H        0.926     0.066     2.132     2.284
   179   1 H        0.925     0.057     2.230     2.335
   180   1 H        0.925     0.063     2.159     2.298
   181   1 H        0.925     0.049     2.336     2.390
   182   1 H        0.925     0.042     2.427     2.436
   183   1 H        0.925     0.050     2.323     2.384
   184   1 H        0.926     0.066     2.134     2.284
   185   1 H        0.926     0.051     2.302     2.373
   186   1 H        0.925     0.054     2.276     2.359
   187   1 H        0.925     0.072     2.062     2.246
   188   1 H        0.925     0.067     2.124     2.279
   189   1 H        0.925     0.067     2.121     2.278
   190   1 H        0.925     0.052     2.298     2.371
   191   1 H        0.925     0.065     2.139     2.287
   192   1 H        0.925     0.071     2.076     2.253
   193   1 H        0.925     0.064     2.154     2.295
   194   1 H        0.927     0.075     2.033     2.230

 Mol. C6AA /au·bohr⁶  :     711730.898259
 Mol. C8AA /au·bohr⁸  :   21076291.803809
 Mol. α(0) /au        :       1356.769300


Wiberg/Mayer (AO) data.
largest (>0.10) Wiberg bond orders for each atom

 ---------------------------------------------------------------------------
     #   Z sym  total        # sym  WBO       # sym  WBO       # sym  WBO
 ---------------------------------------------------------------------------
     1   6 C    3.932 --     2 C    1.683    29 S    1.149   127 H    0.968
     2   6 C    3.981 --     1 C    1.683     3 C    1.193   128 H    0.960
     3   6 C    3.970 --     4 C    1.301    28 C    1.261     2 C    1.193
     4   6 C    3.980 --    15 C    1.381     3 C    1.301     5 C    1.042
     5   6 C    3.986 --     6 C    1.379    14 C    1.374     4 C    1.042
     6   6 C    3.985 --     7 C    1.454     5 C    1.379   129 H    0.964
     7   6 C    3.987 --     6 C    1.454     8 C    1.382   130 H    0.961
     8   6 C    3.963 --     7 C    1.382    12 C    1.333     9 S    1.060
     9  16 S    2.261 --     8 C    1.060    10 C    0.979
    10   6 C    3.971 --    11 C    1.026     9 S    0.979   131 H    0.970
                           132 H    0.969
    11   6 C    3.992 --    10 C    1.026   133 H    0.986   134 H    0.984
                           135 H    0.977
    12   6 C    3.876 --    14 C    1.426     8 C    1.333    13 F    0.947
    13   9 F    1.081 --    12 C    0.947
    14   6 C    3.984 --    12 C    1.426     5 C    1.374   136 H    0.963
    15   6 C    3.945 --     4 C    1.381    16 C    1.251    32 S    1.094
    16   6 C    3.981 --    17 C    1.293    15 C    1.251    30 C    1.217
    17   6 C    3.962 --    28 C    1.378    16 C    1.293    18 C    1.045
    18   6 C    3.985 --    26 C    1.383    19 C    1.372    17 C    1.045
    19   6 C    3.984 --    20 C    1.466    18 C    1.372   137 H    0.965
    20   6 C    3.987 --    19 C    1.466    21 C    1.376   138 H    0.965
                            26 C    0.101
    21   6 C    3.963 --    20 C    1.376    25 C    1.350    22 S    1.048
    22  16 S    2.222 --    21 C    1.048    23 C    0.972
    23   6 C    3.968 --    24 C    1.028   139 H    0.972    22 S    0.972
                           140 H    0.969
    24   6 C    3.993 --    23 C    1.028   141 H    0.986   143 H    0.985
                           142 H    0.978
    25   6 C    3.876 --    26 C    1.413    21 C    1.350    27 F    0.943
    26   6 C    3.983 --    25 C    1.413    18 C    1.383   144 H    0.963
                            20 C    0.101
    27   9 F    1.075 --    25 C    0.943
    28   6 C    3.951 --    17 C    1.378     3 C    1.261    29 S    1.100
    29  16 S    2.532 --     1 C    1.149    28 C    1.100
    30   6 C    3.953 --    31 C    1.558    16 C    1.217   145 H    0.956
    31   6 C    3.939 --    30 C    1.558    33 C    1.155    32 S    1.076
    32  16 S    2.492 --    15 C    1.094    31 C    1.076
    33   6 C    3.930 --    34 C    1.544    31 C    1.155    61 S    1.085
    34   6 C    3.955 --    33 C    1.544    35 C    1.232   146 H    0.952
    35   6 C    3.964 --    36 C    1.278    60 C    1.245    34 C    1.232
    36   6 C    3.962 --    47 C    1.397    35 C    1.278    37 C    1.042
    37   6 C    3.986 --    38 C    1.380    46 C    1.375    36 C    1.042
    38   6 C    3.986 --    39 C    1.454    37 C    1.380   147 H    0.966
    39   6 C    3.987 --    38 C    1.454    40 C    1.382   148 H    0.961
    40   6 C    3.963 --    39 C    1.382    44 C    1.333    41 S    1.059
    41  16 S    2.264 --    40 C    1.059    42 C    0.980
    42   6 C    3.972 --    43 C    1.027    41 S    0.980   150 H    0.969
                           149 H    0.968
    43   6 C    3.992 --    42 C    1.027   151 H    0.986   153 H    0.984
                           152 H    0.978
    44   6 C    3.876 --    46 C    1.425    40 C    1.333    45 F    0.949
    45   9 F    1.084 --    44 C    0.949
    46   6 C    3.981 --    44 C    1.425    37 C    1.375   154 H    0.962
    47   6 C    3.937 --    36 C    1.397    48 C    1.235    64 S    1.097
    48   6 C    3.971 --    49 C    1.276    62 C    1.246    47 C    1.235
    49   6 C    3.952 --    60 C    1.391    48 C    1.276    50 C    1.046
    50   6 C    3.986 --    51 C    1.379    58 C    1.371    49 C    1.046
    51   6 C    3.985 --    52 C    1.453    50 C    1.379   155 H    0.965
    52   6 C    3.987 --    51 C    1.453    53 C    1.380   156 H    0.961
    53   6 C    3.961 --    52 C    1.380    57 C    1.329    54 S    1.063
    54  16 S    2.273 --    53 C    1.063    55 C    0.981
    55   6 C    3.973 --    56 C    1.026    54 S    0.981   158 H    0.969
                           157 H    0.969
    56   6 C    3.992 --    55 C    1.026   159 H    0.986   161 H    0.983
                           160 H    0.978
    57   6 C    3.876 --    58 C    1.428    53 C    1.329    59 F    0.949
    58   6 C    3.980 --    57 C    1.428    50 C    1.371   162 H    0.961
    59   9 F    1.085 --    57 C    0.949
    60   6 C    3.944 --    49 C    1.391    35 C    1.245    61 S    1.094
    61  16 S    2.487 --    60 C    1.094    33 C    1.085
    62   6 C    3.942 --    63 C    1.501    48 C    1.246   163 H    0.947
    63   6 C    3.937 --    62 C    1.501    65 C    1.201    64 S    1.081
    64  16 S    2.481 --    47 C    1.097    63 C    1.081
    65   6 C    3.912 --    66 C    1.303    63 C    1.201    74 S    1.165
    66   6 C    3.966 --    65 C    1.303    72 N    1.274    67 C    1.162
    67   6 C    3.966 --    73 C    1.300    68 N    1.273    66 C    1.162
    68   7 N    3.060 --    69 C    1.574    67 C    1.273
    69   6 C    3.962 --    68 N    1.574    70 C    1.223   164 H    0.960
    70   6 C    3.960 --    72 N    1.526    69 C    1.223    71 C    1.030
    71   6 C    3.990 --    70 C    1.030   165 H    0.983   167 H    0.965
                           166 H    0.962
    72   7 N    3.056 --    70 C    1.526    66 C    1.274
    73   6 C    3.919 --    67 C    1.300    75 C    1.205    74 S    1.170
    74  16 S    2.659 --    73 C    1.170    65 C    1.165
    75   6 C    3.933 --    76 C    1.494    73 C    1.205   103 S    1.081
    76   6 C    3.943 --    75 C    1.494    77 C    1.252   168 H    0.949
    77   6 C    3.964 --    78 C    1.272    76 C    1.252   102 C    1.233
    78   6 C    3.951 --    89 C    1.394    77 C    1.272    79 C    1.048
    79   6 C    3.985 --    88 C    1.383    80 C    1.367    78 C    1.048
    80   6 C    3.984 --    81 C    1.472    79 C    1.367   169 H    0.965
    81   6 C    3.986 --    80 C    1.472    82 C    1.369   170 H    0.966
                            88 C    0.100
    82   6 C    3.960 --    81 C    1.369    86 C    1.349    83 S    1.056
    83  16 S    2.228 --    82 C    1.056    84 C    0.968
    84   6 C    3.969 --    85 C    1.026   172 H    0.976   171 H    0.976
                            83 S    0.968
    85   6 C    3.993 --    84 C    1.026   174 H    0.986   173 H    0.986
                           175 H    0.979
    86   6 C    3.874 --    88 C    1.413    82 C    1.349    87 F    0.939
    87   9 F    1.066 --    86 C    0.939
    88   6 C    3.980 --    86 C    1.413    79 C    1.383   176 H    0.959
                            81 C    0.100
    89   6 C    3.940 --    78 C    1.394    90 C    1.235   106 S    1.098
    90   6 C    3.964 --    91 C    1.270   104 C    1.253    89 C    1.235
    91   6 C    3.952 --   102 C    1.399    90 C    1.270    92 C    1.045
    92   6 C    3.984 --   100 C    1.381    93 C    1.373    91 C    1.045
    93   6 C    3.983 --    94 C    1.466    92 C    1.373   177 H    0.964
    94   6 C    3.986 --    93 C    1.466    95 C    1.376   178 H    0.965
                           100 C    0.101
    95   6 C    3.962 --    94 C    1.376    99 C    1.349    96 S    1.049
    96  16 S    2.224 --    95 C    1.049    97 C    0.972
    97   6 C    3.968 --    98 C    1.028   180 H    0.972    96 S    0.972
                           179 H    0.969
    98   6 C    3.993 --    97 C    1.028   183 H    0.986   182 H    0.985
                           181 H    0.978
    99   6 C    3.875 --   100 C    1.415    95 C    1.349   101 F    0.941
   100   6 C    3.982 --    99 C    1.415    92 C    1.381   184 H    0.963
                            94 C    0.101
   101   9 F    1.071 --    99 C    0.941
   102   6 C    3.937 --    91 C    1.399    77 C    1.233   103 S    1.095
   103  16 S    2.483 --   102 C    1.095    75 C    1.081
   104   6 C    3.928 --   105 C    1.491    90 C    1.253   185 H    0.957
   105   6 C    3.938 --   104 C    1.491   107 C    1.210   106 S    1.086
   106  16 S    2.554 --    89 C    1.098   105 C    1.086
   107   6 C    3.902 --   108 C    1.312   105 C    1.210   116 S    1.145
   108   6 C    3.965 --   107 C    1.312   114 N    1.272   109 C    1.161
   109   6 C    3.976 --   115 C    1.299   110 N    1.274   108 C    1.161
   110   7 N    3.067 --   111 C    1.582   109 C    1.274
   111   6 C    3.959 --   110 N    1.582   112 C    1.216   186 H    0.960
   112   6 C    3.947 --   114 N    1.523   111 C    1.216   113 C    1.031
   113   6 C    3.989 --   112 C    1.031   187 H    0.982   188 H    0.964
                           189 H    0.961
   114   7 N    3.100 --   112 C    1.523   108 C    1.272
   115   6 C    3.923 --   109 C    1.299   117 C    1.226   116 S    1.151
   116  16 S    2.633 --   115 C    1.151   107 C    1.145
   117   6 C    3.945 --   118 C    1.312   115 C    1.226   126 S    1.156
                           125 C    0.106
   118   6 C    3.965 --   117 C    1.312   124 N    1.281   119 C    1.137
   119   6 C    3.978 --   125 C    1.434   120 N    1.232   118 C    1.137
   120   7 N    3.047 --   121 C    1.608   119 C    1.232
   121   6 C    3.974 --   120 N    1.608   122 C    1.203   190 H    0.960
   122   6 C    3.949 --   124 N    1.535   121 C    1.203   123 C    1.029
   123   6 C    3.990 --   122 C    1.029   192 H    0.983   193 H    0.964
                           191 H    0.964
   124   7 N    3.073 --   122 C    1.535   118 C    1.281
   125   6 C    3.878 --   119 C    1.434   126 S    1.242   194 H    0.964
                           117 C    0.106
   126  16 S    2.693 --   125 C    1.242   117 C    1.156
   127   1 H    0.996 --     1 C    0.968
   128   1 H    0.997 --     2 C    0.960
   129   1 H    0.997 --     6 C    0.964
   130   1 H    0.996 --     7 C    0.961
   131   1 H    0.997 --    10 C    0.970
   132   1 H    0.996 --    10 C    0.969
   133   1 H    0.998 --    11 C    0.986
   134   1 H    0.998 --    11 C    0.984
   135   1 H    0.997 --    11 C    0.977
   136   1 H    0.995 --    14 C    0.963
   137   1 H    0.996 --    19 C    0.965
   138   1 H    0.995 --    20 C    0.965
   139   1 H    0.996 --    23 C    0.972
   140   1 H    0.996 --    23 C    0.969
   141   1 H    0.998 --    24 C    0.986
   142   1 H    0.997 --    24 C    0.978
   143   1 H    0.998 --    24 C    0.985
   144   1 H    0.996 --    26 C    0.963
   145   1 H    0.996 --    30 C    0.956
   146   1 H    0.996 --    34 C    0.952
   147   1 H    0.997 --    38 C    0.966
   148   1 H    0.996 --    39 C    0.961
   149   1 H    0.997 --    42 C    0.968
   150   1 H    0.996 --    42 C    0.969
   151   1 H    0.997 --    43 C    0.986
   152   1 H    0.997 --    43 C    0.978
   153   1 H    0.998 --    43 C    0.984
   154   1 H    0.995 --    46 C    0.962
   155   1 H    0.997 --    51 C    0.965
   156   1 H    0.996 --    52 C    0.961
   157   1 H    0.996 --    55 C    0.969
   158   1 H    0.997 --    55 C    0.969
   159   1 H    0.997 --    56 C    0.986
   160   1 H    0.997 --    56 C    0.978
   161   1 H    0.998 --    56 C    0.983
   162   1 H    0.995 --    58 C    0.961
   163   1 H    0.993 --    62 C    0.947
   164   1 H    0.996 --    69 C    0.960
   165   1 H    0.995 --    71 C    0.983
   166   1 H    0.991 --    71 C    0.962
   167   1 H    0.992 --    71 C    0.965
   168   1 H    0.993 --    76 C    0.949
   169   1 H    0.996 --    80 C    0.965
   170   1 H    0.995 --    81 C    0.966
   171   1 H    0.996 --    84 C    0.976
   172   1 H    0.997 --    84 C    0.976
   173   1 H    0.997 --    85 C    0.986
   174   1 H    0.997 --    85 C    0.986
   175   1 H    0.997 --    85 C    0.979
   176   1 H    0.995 --    88 C    0.959
   177   1 H    0.996 --    93 C    0.964
   178   1 H    0.995 --    94 C    0.965
   179   1 H    0.996 --    97 C    0.969
   180   1 H    0.996 --    97 C    0.972
   181   1 H    0.997 --    98 C    0.978
   182   1 H    0.998 --    98 C    0.985
   183   1 H    0.998 --    98 C    0.986
   184   1 H    0.996 --   100 C    0.963
   185   1 H    0.997 --   104 C    0.957
   186   1 H    0.995 --   111 C    0.960
   187   1 H    0.995 --   113 C    0.982
   188   1 H    0.991 --   113 C    0.964
   189   1 H    0.991 --   113 C    0.961
   190   1 H    0.996 --   121 C    0.960
   191   1 H    0.991 --   123 C    0.964
   192   1 H    0.995 --   123 C    0.983
   193   1 H    0.991 --   123 C    0.964
   194   1 H    0.994 --   125 C    0.964
 ---------------------------------------------------------------------------

Topologies differ in bond orders
Writing corrected topology to xtbtopo.mol

molecular dipole:
                 x           y           z       tot (Debye)
 q only:       -2.134      -0.575       0.139
   full:       -3.185      -0.464      -0.727       8.388
molecular quadrupole (traceless):
                xx          xy          yy          xz          yz          zz
 q only:       33.910      24.516     -15.684      36.062     -20.303     -18.226
  q+dip:       60.377       4.145     -43.572      56.992     -23.518     -16.804
   full:       66.256       0.912     -53.493      49.310     -24.486     -12.763


           -------------------------------------------------
          | TOTAL ENERGY             -341.588308865486 Eh   |
          | GRADIENT NORM               0.018186782547 Eh/α |
          | HOMO-LUMO GAP               0.821171731776 eV   |
           -------------------------------------------------

------------------------------------------------------------------------
 * finished run on 2022/03/04 at 13:09:56.301     
------------------------------------------------------------------------
 total:
 * wall-time:     0 d,  0 h,  0 min,  0.839 sec
 *  cpu-time:     0 d,  0 h,  0 min,  6.603 sec
 * ratio c/w:     7.867 speedup
 SCF:
 * wall-time:     0 d,  0 h,  0 min,  0.743 sec
 *  cpu-time:     0 d,  0 h,  0 min,  5.925 sec
 * ratio c/w:     7.972 speedup

