      -----------------------------------------------------------      
     |                   =====================                   |     
     |                           x T B                           |     
     |                   =====================                   |     
     |                         S. Grimme                         |     
     |          Mulliken Center for Theoretical Chemistry        |     
     |                    University of Bonn                     |     
      -----------------------------------------------------------      

   * xtb version 6.4.1 (unknown) compiled by 'oda6@login1.crc.pitt.edu' on 2021-06-25

   xtb is free software: you can redistribute it and/or modify it under
   the terms of the GNU Lesser General Public License as published by
   the Free Software Foundation, either version 3 of the License, or
   (at your option) any later version.
   
   xtb is distributed in the hope that it will be useful,
   but WITHOUT ANY WARRANTY; without even the implied warranty of
   MERCHANTABILITY or FITNESS FOR A PARTICULAR PURPOSE.  See the
   GNU Lesser General Public License for more details.
   
   Cite this work as:
   * C. Bannwarth, E. Caldeweyher, S. Ehlert, A. Hansen, P. Pracht,
     J. Seibert, S. Spicher, S. Grimme, WIREs Comput. Mol. Sci., 2020, 11,
     e01493. DOI: 10.1002/wcms.1493
   
   for GFN2-xTB:
   * C. Bannwarth, S. Ehlert and S. Grimme., J. Chem. Theory Comput., 2019,
     15, 1652-1671. DOI: 10.1021/acs.jctc.8b01176
   for GFN1-xTB:
   * S. Grimme, C. Bannwarth, P. Shushkov, J. Chem. Theory Comput., 2017,
     13, 1989-2009. DOI: 10.1021/acs.jctc.7b00118
   for GFN0-xTB:
   * P. Pracht, E. Caldeweyher, S. Ehlert, S. Grimme, ChemRxiv, 2019, preprint.
     DOI: 10.26434/chemrxiv.8326202.v1
   for GFN-FF:
   * S. Spicher and S. Grimme, Angew. Chem. Int. Ed., 2020, 59, 15665-15673.
     DOI: 10.1002/anie.202004239
   
   for DFT-D4:
   * E. Caldeweyher, C. Bannwarth and S. Grimme, J. Chem. Phys., 2017,
     147, 034112. DOI: 10.1063/1.4993215
   * E. Caldeweyher, S. Ehlert, A. Hansen, H. Neugebauer, S. Spicher,
     C. Bannwarth and S. Grimme, J. Chem. Phys., 2019, 150, 154122.
     DOI: 10.1063/1.5090222
   * E. Caldeweyher, J.-M. Mewes, S. Ehlert and S. Grimme, Phys. Chem. Chem. Phys.
     2020, 22, 8499-8512. DOI: 10.1039/D0CP00502A
   
   for sTDA-xTB:
   * S. Grimme and C. Bannwarth, J. Chem. Phys., 2016, 145, 054103.
     DOI: 10.1063/1.4959605
   
   in the mass-spec context:
   * V. Asgeirsson, C. Bauer and S. Grimme, Chem. Sci., 2017, 8, 4879.
     DOI: 10.1039/c7sc00601b
   * J. Koopman and S. Grimme, ACS Omega 2019, 4, 12, 15120-15133.
     DOI: 10.1021/acsomega.9b02011
   
   for metadynamics refer to:
   * S. Grimme, J. Chem. Theory Comput., 2019, 155, 2847-2862
     DOI: 10.1021/acs.jctc.9b00143
   
   for SPH calculations refer to:
   * S. Spicher and S. Grimme, J. Chem. Theory Comput., 2021, 17, 1701-1714
     DOI: 10.1021/acs.jctc.0c01306
   
   with help from (in alphabetical order)
   P. Atkinson, C. Bannwarth, F. Bohle, G. Brandenburg, E. Caldeweyher
   M. Checinski, S. Dohm, S. Ehlert, S. Ehrlich, I. Gerasimov, J. Koopman
   C. Lavigne, S. Lehtola, F. März, M. Müller, F. Musil, H. Neugebauer
   J. Pisarek, C. Plett, P. Pracht, J. Seibert, P. Shushkov, S. Spicher
   M. Stahn, M. Steiner, T. Strunk, J. Stückrath, T. Rose, and J. Unsleber
   
 * started run on 2022/03/02 at 05:57:34.823     

           -------------------------------------------------
          |                Calculation Setup                |
           -------------------------------------------------

          program call               : /ihome/ghutchison/oda6/xtb/xtb-641/bin/xtb ../../GFN2_output/579_5_110011.mol --sp --alpb hexane
          hostname                   : smp-n90
          coordinate file            : ../../GFN2_output/579_5_110011.mol
          omp threads                :                     8
          number of atoms            :                   148
          number of electrons        :                   438
          charge                     :                     0
          spin                       :                   0.0
          first test random number   :      0.78475378067422

   ID    Z sym.   atoms
    1    6 C      1-12, 14, 15, 17-28, 30, 31, 33, 35-40, 42-45, 47-52,
                  54-68, 70, 71, 73-84, 86, 87
    2   16 S      13, 16, 29, 32, 34, 46, 69, 72, 85, 88
    3    9 F      41, 53
    4    1 H      89-148

           -------------------------------------------------
          |                 G F N 2 - x T B                 |
           -------------------------------------------------

        Reference                      10.1021/acs.jctc.8b01176
      * Hamiltonian:
        H0-scaling (s, p, d)           1.850000    2.230000    2.230000
        zeta-weighting                 0.500000
      * Dispersion:
        s8                             2.700000
        a1                             0.520000
        a2                             5.000000
        s9                             5.000000
      * Repulsion:
        kExp                           1.500000    1.000000
        rExp                           1.000000
      * Coulomb:
        alpha                          2.000000
        third order                    shell-resolved
        anisotropic                    true
        a3                             3.000000
        a5                             4.000000
        cn-shift                       1.200000
        cn-exp                         4.000000
        max-rad                        5.000000

      * Solvation model:               ALPB
        Solvent                        hexane
        Parameter file                 internal GFN2-xTB/ALPB
        Dielectric constant                1.8800E+00
        Reference state                gsolv [1 M gas/solution]
        Free energy shift                  4.8134E-03 Eh       3.0204E+00 kcal/mol
        Temperature                        2.9815E+02 K
        Density                            6.6000E-01 kg/L
        Solvent mass                       8.6180E+01 g/mol
        Interaction kernel             P16
        Born radius scaling (c1)           1.1040E+00
        Born radii integrator          GBOBC
        Born offset                        0.0000E+00 a0       0.0000E+00 AA
        H-bond correction              false
        Ion screening                  false
        Surface tension                    1.0000E-05 Eh       1.5569E+01 dyn/cm
        Grid points                               230 per atom

          ...................................................
          :                      SETUP                      :
          :.................................................:
          :  # basis functions                 472          :
          :  # atomic orbitals                 462          :
          :  # shells                          246          :
          :  # electrons                       438          :
          :  max. iterations                   250          :
          :  Hamiltonian                  GFN2-xTB          :
          :  restarted?                      false          :
          :  GBSA solvation                   true          :
          :  PC potential                    false          :
          :  electronic temp.          300.0000000     K    :
          :  accuracy                    1.0000000          :
          :  -> integral cutoff          0.2500000E+02      :
          :  -> integral neglect         0.1000000E-07      :
          :  -> SCF convergence          0.1000000E-05 Eh   :
          :  -> wf. convergence          0.1000000E-03 e    :
          :  Broyden damping             0.4000000          :
          ...................................................

 iter      E             dE          RMSdq      gap      omega  full diag
   1   -239.0185264 -0.239019E+03  0.368E+00    0.95       0.0  T
   2   -239.1468994 -0.128373E+00  0.204E+00    0.97       1.0  T
   3   -239.1109197  0.359797E-01  0.857E-01    0.99       1.0  T
   4   -239.1645752 -0.536555E-01  0.349E-01    0.95       1.0  T
   5   -239.1694787 -0.490356E-02  0.157E-01    0.96       1.0  T
   6   -239.1711820 -0.170323E-02  0.786E-02    0.96       1.0  T
   7   -239.1716140 -0.432017E-03  0.293E-02    0.96       1.0  T
   8   -239.1716802 -0.662291E-04  0.107E-02    0.96       1.0  T
   9   -239.1716813 -0.106000E-05  0.615E-03    0.96       1.3  T
  10   -239.1716828 -0.148505E-05  0.280E-03    0.96       2.9  T
  11   -239.1716832 -0.453642E-06  0.164E-03    0.96       5.0  T
  12   -239.1716834 -0.201039E-06  0.808E-04    0.96      10.2  T
  13   -239.1716834 -0.228043E-07  0.389E-04    0.96      21.1  T

   *** convergence criteria satisfied after 13 iterations ***

         #    Occupation            Energy/Eh            Energy/eV
      -------------------------------------------------------------
         1        2.0000           -0.8238641             -22.4185
       ...           ...                  ...                  ...
       213        2.0000           -0.3792861             -10.3209
       214        2.0000           -0.3746097             -10.1936
       215        2.0000           -0.3668401              -9.9822
       216        2.0000           -0.3632740              -9.8852
       217        2.0000           -0.3611588              -9.8276
       218        2.0000           -0.3564291              -9.6989
       219        2.0000           -0.3506528              -9.5417 (HOMO)
       220                         -0.3154869              -8.5848 (LUMO)
       221                         -0.2941303              -8.0037
       222                         -0.2853323              -7.7643
       223                         -0.2810461              -7.6477
       224                         -0.2635037              -7.1703
       ...                                ...                  ...
       462                          0.7236818              19.6924
      -------------------------------------------------------------
                  HL-Gap            0.0351659 Eh            0.9569 eV
             Fermi-level           -0.3330687 Eh           -9.0633 eV

 SCC (total)                   0 d,  0 h,  0 min,  0.361 sec
 SCC setup                      ...        0 min,  0.004 sec (  0.985%)
 Dispersion                     ...        0 min,  0.005 sec (  1.297%)
 classical contributions        ...        0 min,  0.000 sec (  0.058%)
 integral evaluation            ...        0 min,  0.019 sec (  5.349%)
 iterations                     ...        0 min,  0.267 sec ( 74.180%)
 molecular gradient             ...        0 min,  0.064 sec ( 17.662%)
 printout                       ...        0 min,  0.002 sec (  0.449%)

         :::::::::::::::::::::::::::::::::::::::::::::::::::::
         ::                     SUMMARY                     ::
         :::::::::::::::::::::::::::::::::::::::::::::::::::::
         :: total energy            -235.522591455665 Eh    ::
         :: total w/o Gsasa/hb      -235.438263346477 Eh    ::
         :: gradient norm              0.011488346897 Eh/a0 ::
         :: HOMO-LUMO gap              0.956912771778 eV    ::
         ::.................................................::
         :: SCC energy              -239.171683431579 Eh    ::
         :: -> isotropic ES            0.044622602892 Eh    ::
         :: -> anisotropic ES          0.017281910213 Eh    ::
         :: -> anisotropic XC          0.093549866401 Eh    ::
         :: -> dispersion             -0.237068081496 Eh    ::
         :: -> Gsolv                  -0.091698427431 Eh    ::
         ::    -> Gelec               -0.007370318243 Eh    ::
         ::    -> Gsasa               -0.089141465007 Eh    ::
         ::    -> Ghb                  0.000000000000 Eh    ::
         ::    -> Gshift               0.004813355820 Eh    ::
         :: repulsion energy           3.645550023376 Eh    ::
         :: add. restraining           0.000000000000 Eh    ::
         :: total charge               0.000000000042 e     ::
         :::::::::::::::::::::::::::::::::::::::::::::::::::::

           -------------------------------------------------
          |                Property Printout                |
           -------------------------------------------------

    * Orbital Energies and Occupations

         #    Occupation            Energy/Eh            Energy/eV
      -------------------------------------------------------------
         1        2.0000           -0.8238641             -22.4185
       ...           ...                  ...                  ...
       207        2.0000           -0.4017727             -10.9328
       208        2.0000           -0.3989693             -10.8565
       209        2.0000           -0.3982296             -10.8364
       210        2.0000           -0.3962031             -10.7812
       211        2.0000           -0.3931832             -10.6991
       212        2.0000           -0.3834582             -10.4344
       213        2.0000           -0.3792861             -10.3209
       214        2.0000           -0.3746097             -10.1936
       215        2.0000           -0.3668401              -9.9822
       216        2.0000           -0.3632740              -9.8852
       217        2.0000           -0.3611588              -9.8276
       218        2.0000           -0.3564291              -9.6989
       219        2.0000           -0.3506528              -9.5417 (HOMO)
       220                         -0.3154869              -8.5848 (LUMO)
       221                         -0.2941303              -8.0037
       222                         -0.2853323              -7.7643
       223                         -0.2810461              -7.6477
       224                         -0.2635037              -7.1703
       225                         -0.2535556              -6.8996
       226                         -0.2443837              -6.6500
       227                         -0.2410102              -6.5582
       228                         -0.2371032              -6.4519
       229                         -0.2342240              -6.3736
       230                         -0.2312273              -6.2920
       ...                                ...                  ...
       462                          0.7236818              19.6924
      -------------------------------------------------------------
                  HL-Gap            0.0351659 Eh            0.9569 eV
             Fermi-level           -0.3330687 Eh           -9.0633 eV

     #   Z          covCN         q      C6AA      α(0)
     1   6 C        2.933    -0.011    28.283     8.722
     2   6 C        3.072    -0.050    29.155     8.853
     3   6 C        3.143    -0.010    28.003     8.659
     4   6 C        2.988    -0.005    28.139     8.702
     5   6 C        3.806    -0.055    21.560     6.610
     6   6 C        3.754    -0.099    22.456     6.757
     7   6 C        3.009     0.020    27.534     8.608
     8   6 C        3.135    -0.009    28.021     8.665
     9   6 C        2.987    -0.005    28.149     8.703
    10   6 C        3.805    -0.056    21.569     6.612
    11   6 C        3.753    -0.100    22.459     6.758
    12   6 C        3.010     0.019    27.556     8.611
    13  16 S        2.251    -0.080   144.398    20.225
    14   6 C        3.068    -0.057    29.334     8.881
    15   6 C        3.014     0.027    27.379     8.583
    16  16 S        2.306    -0.083   144.492    20.231
    17   6 C        3.015     0.028    27.355     8.579
    18   6 C        3.068    -0.058    29.356     8.884
    19   6 C        3.136    -0.008    27.982     8.658
    20   6 C        2.990    -0.006    28.159     8.705
    21   6 C        3.806    -0.055    21.557     6.610
    22   6 C        3.754    -0.100    22.460     6.758
    23   6 C        3.011     0.021    27.517     8.605
    24   6 C        3.129    -0.007    27.987     8.661
    25   6 C        2.988    -0.005    28.131     8.700
    26   6 C        3.806    -0.054    21.535     6.606
    27   6 C        3.753    -0.095    22.369     6.744
    28   6 C        3.009     0.021    27.518     8.605
    29  16 S        2.307    -0.077   144.259    20.215
    30   6 C        3.076    -0.055    29.273     8.871
    31   6 C        3.029     0.029    27.326     8.574
    32  16 S        2.271    -0.096   145.061    20.271
    33   6 C        2.998     0.012    27.741     8.640
    34  16 S        2.433    -0.010   141.485    20.020
    35   6 C        2.968     0.017    27.623     8.621
    36   6 C        3.170    -0.003    27.731     8.603
    37   6 C        3.144    -0.006    27.913     8.644
    38   6 C        2.914    -0.032    28.797     8.800
    39   6 C        2.914    -0.048    29.188     8.859
    40   6 C        2.783     0.172    24.297     8.074
    41   9 F        0.787    -0.249    11.752     4.049
    42   6 C        2.910    -0.056    29.380     8.888
    43   6 C        2.921    -0.042    29.054     8.839
    44   6 C        2.923    -0.045    29.106     8.847
    45   6 C        2.972     0.016    27.641     8.624
    46  16 S        2.426    -0.001   141.097    19.992
    47   6 C        2.974     0.018    27.597     8.617
    48   6 C        3.163    -0.003    27.771     8.613
    49   6 C        3.160    -0.010    27.937     8.641
    50   6 C        2.914    -0.033    28.812     8.802
    51   6 C        2.914    -0.048    29.196     8.860
    52   6 C        2.784     0.171    24.315     8.077
    53   9 F        0.787    -0.250    11.762     4.051
    54   6 C        2.909    -0.052    29.280     8.873
    55   6 C        2.935    -0.041    29.025     8.836
    56   6 C        2.932    -0.040    28.989     8.830
    57   6 C        2.979     0.036    27.193     8.554
    58   6 C        3.070    -0.054    29.271     8.871
    59   6 C        3.137    -0.009    28.001     8.661
    60   6 C        2.987    -0.006    28.172     8.707
    61   6 C        3.805    -0.053    21.524     6.605
    62   6 C        3.753    -0.095    22.381     6.746
    63   6 C        3.008     0.022    27.510     8.604
    64   6 C        3.134    -0.008    27.990     8.660
    65   6 C        2.987    -0.005    28.148     8.703
    66   6 C        3.806    -0.054    21.548     6.608
    67   6 C        3.754    -0.099    22.451     6.757
    68   6 C        3.008     0.021    27.530     8.607
    69  16 S        2.285    -0.096   145.043    20.270
    70   6 C        3.068    -0.057    29.338     8.882
    71   6 C        3.014     0.028    27.353     8.579
    72  16 S        2.307    -0.083   144.526    20.234
    73   6 C        3.014     0.028    27.368     8.582
    74   6 C        3.068    -0.057    29.342     8.882
    75   6 C        3.135    -0.009    28.020     8.665
    76   6 C        2.987    -0.006    28.154     8.704
    77   6 C        3.806    -0.055    21.566     6.611
    78   6 C        3.754    -0.099    22.457     6.757
    79   6 C        3.010     0.019    27.557     8.611
    80   6 C        3.143    -0.010    28.010     8.660
    81   6 C        2.988    -0.005    28.145     8.702
    82   6 C        3.806    -0.055    21.558     6.610
    83   6 C        3.754    -0.099    22.453     6.757
    84   6 C        3.009     0.020    27.534     8.608
    85  16 S        2.308    -0.084   144.537    20.234
    86   6 C        3.072    -0.050    29.158     8.854
    87   6 C        2.933    -0.011    28.288     8.723
    88  16 S        2.251    -0.081   144.446    20.228
    89   1 H        0.926     0.047     2.352     2.398
    90   1 H        0.926     0.045     2.384     2.415
    91   1 H        0.924     0.045     2.385     2.415
    92   1 H        0.924     0.047     2.356     2.400
    93   1 H        0.925     0.041     2.433     2.439
    94   1 H        0.925     0.039     2.465     2.455
    95   1 H        0.925     0.039     2.460     2.453
    96   1 H        0.924     0.048     2.344     2.394
    97   1 H        0.924     0.044     2.391     2.418
    98   1 H        0.925     0.038     2.470     2.458
    99   1 H        0.925     0.041     2.432     2.439
   100   1 H        0.925     0.039     2.457     2.451
   101   1 H        0.926     0.045     2.385     2.415
   102   1 H        0.926     0.045     2.378     2.412
   103   1 H        0.924     0.045     2.384     2.415
   104   1 H        0.924     0.047     2.356     2.400
   105   1 H        0.925     0.042     2.427     2.436
   106   1 H        0.925     0.039     2.458     2.452
   107   1 H        0.925     0.039     2.463     2.454
   108   1 H        0.924     0.047     2.360     2.402
   109   1 H        0.924     0.045     2.382     2.413
   110   1 H        0.925     0.035     2.520     2.482
   111   1 H        0.925     0.041     2.431     2.438
   112   1 H        0.925     0.039     2.464     2.455
   113   1 H        0.926     0.046     2.365     2.405
   114   1 H        0.926     0.065     2.144     2.290
   115   1 H        0.926     0.063     2.164     2.300
   116   1 H        0.926     0.060     2.202     2.320
   117   1 H        0.925     0.053     2.286     2.364
   118   1 H        0.925     0.051     2.301     2.372
   119   1 H        0.926     0.051     2.309     2.376
   120   1 H        0.926     0.061     2.186     2.312
   121   1 H        0.926     0.058     2.224     2.332
   122   1 H        0.925     0.053     2.284     2.364
   123   1 H        0.925     0.052     2.289     2.366
   124   1 H        0.926     0.043     2.414     2.430
   125   1 H        0.924     0.047     2.355     2.400
   126   1 H        0.924     0.041     2.438     2.442
   127   1 H        0.925     0.040     2.454     2.450
   128   1 H        0.925     0.039     2.461     2.453
   129   1 H        0.925     0.036     2.506     2.476
   130   1 H        0.924     0.047     2.356     2.401
   131   1 H        0.924     0.044     2.397     2.421
   132   1 H        0.925     0.041     2.433     2.439
   133   1 H        0.925     0.040     2.453     2.449
   134   1 H        0.925     0.039     2.462     2.454
   135   1 H        0.926     0.045     2.383     2.414
   136   1 H        0.926     0.045     2.388     2.416
   137   1 H        0.924     0.048     2.350     2.397
   138   1 H        0.924     0.044     2.393     2.419
   139   1 H        0.925     0.039     2.458     2.452
   140   1 H        0.925     0.039     2.467     2.456
   141   1 H        0.925     0.041     2.434     2.440
   142   1 H        0.924     0.047     2.360     2.402
   143   1 H        0.924     0.045     2.388     2.417
   144   1 H        0.925     0.041     2.438     2.442
   145   1 H        0.925     0.039     2.466     2.456
   146   1 H        0.925     0.039     2.459     2.452
   147   1 H        0.926     0.044     2.390     2.417
   148   1 H        0.926     0.047     2.358     2.401

 Mol. C6AA /au·bohr⁶  :     373960.618286
 Mol. C8AA /au·bohr⁸  :   10881019.013227
 Mol. α(0) /au        :        983.062450


Wiberg/Mayer (AO) data.
largest (>0.10) Wiberg bond orders for each atom

 ---------------------------------------------------------------------------
     #   Z sym  total        # sym  WBO       # sym  WBO       # sym  WBO
 ---------------------------------------------------------------------------
     1   6 C    3.935 --     2 C    1.688    13 S    1.143    89 H    0.969
     2   6 C    3.982 --     1 C    1.688     3 C    1.188    90 H    0.960
                            13 S    0.101
     3   6 C    3.973 --     4 C    1.322    12 C    1.256     2 C    1.188
     4   6 C    3.986 --     7 C    1.404     3 C    1.322     5 C    1.013
     5   6 C    3.996 --     4 C    1.013     6 C    0.999    91 H    0.969
                            92 H    0.968
     6   6 C    3.994 --     5 C    0.999    95 H    0.988    94 H    0.987
                            93 H    0.986
     7   6 C    3.945 --     4 C    1.404     8 C    1.244    16 S    1.091
     8   6 C    3.985 --     9 C    1.310     7 C    1.244    14 C    1.221
     9   6 C    3.967 --    12 C    1.407     8 C    1.310    10 C    1.013
    10   6 C    3.995 --     9 C    1.013    11 C    0.998    97 H    0.969
                            96 H    0.968
    11   6 C    3.993 --    10 C    0.998   100 H    0.988    98 H    0.987
                            99 H    0.986
    12   6 C    3.951 --     9 C    1.407     3 C    1.256    13 S    1.088
    13  16 S    2.516 --     1 C    1.143    12 C    1.088     2 C    0.101
    14   6 C    3.954 --    15 C    1.548     8 C    1.221   101 H    0.958
    15   6 C    3.943 --    14 C    1.548    17 C    1.152    16 S    1.090
    16  16 S    2.495 --     7 C    1.091    15 C    1.090
    17   6 C    3.933 --    18 C    1.540    15 C    1.152    29 S    1.094
    18   6 C    3.955 --    17 C    1.540    19 C    1.230   102 H    0.958
    19   6 C    3.966 --    20 C    1.298    28 C    1.239    18 C    1.230
    20   6 C    3.966 --    23 C    1.421    19 C    1.298    21 C    1.013
    21   6 C    3.995 --    20 C    1.013    22 C    0.999   103 H    0.969
                           104 H    0.967
    22   6 C    3.993 --    21 C    0.999   106 H    0.988   107 H    0.987
                           105 H    0.985
    23   6 C    3.937 --    20 C    1.421    24 C    1.233    32 S    1.079
    24   6 C    3.972 --    25 C    1.296    30 C    1.243    23 C    1.233
    25   6 C    3.955 --    28 C    1.414    24 C    1.296    26 C    1.014
    26   6 C    3.995 --    25 C    1.014    27 C    0.998   109 H    0.968
                           108 H    0.967
    27   6 C    3.992 --    26 C    0.998   112 H    0.988   110 H    0.988
                           111 H    0.983
    28   6 C    3.945 --    25 C    1.414    19 C    1.239    29 S    1.091
    29  16 S    2.496 --    17 C    1.094    28 C    1.091
    30   6 C    3.935 --    31 C    1.506    24 C    1.243   113 H    0.951
    31   6 C    3.939 --    30 C    1.506    33 C    1.203    32 S    1.074
    32  16 S    2.480 --    23 C    1.079    31 C    1.074
    33   6 C    3.921 --    37 C    1.321    31 C    1.203    34 S    1.150
    34  16 S    2.658 --    35 C    1.152    33 C    1.150
    35   6 C    3.921 --    36 C    1.319    43 C    1.206    34 S    1.152
    36   6 C    3.969 --    35 C    1.319    42 C    1.261    37 C    1.192
    37   6 C    3.973 --    33 C    1.321    38 C    1.260    36 C    1.192
    38   6 C    3.979 --    39 C    1.571    37 C    1.260   114 H    0.954
                            42 C    0.113
    39   6 C    3.967 --    38 C    1.571    40 C    1.264   115 H    0.966
    40   6 C    3.853 --    42 C    1.521    39 C    1.264    41 F    0.941
    41   9 F    1.061 --    40 C    0.941
    42   6 C    3.978 --    40 C    1.521    36 C    1.261   116 H    0.962
                            38 C    0.113
    43   6 C    3.961 --    44 C    1.646    35 C    1.206   117 H    0.952
    44   6 C    3.940 --    43 C    1.646    45 C    1.177   118 H    0.951
    45   6 C    3.937 --    49 C    1.335    44 C    1.177    46 S    1.165
                            47 C    0.104
    46  16 S    2.678 --    45 C    1.165    47 C    1.164
    47   6 C    3.914 --    48 C    1.351    46 S    1.164    55 C    1.146
                            45 C    0.104
    48   6 C    3.984 --    47 C    1.351    54 C    1.243    49 C    1.185
    49   6 C    3.968 --    45 C    1.335    50 C    1.254    48 C    1.185
    50   6 C    3.986 --    51 C    1.579    49 C    1.254   119 H    0.966
                            54 C    0.113
    51   6 C    3.966 --    50 C    1.579    52 C    1.256   120 H    0.966
    52   6 C    3.871 --    54 C    1.532    51 C    1.256    53 F    0.940
    53   9 F    1.061 --    52 C    0.940
    54   6 C    3.980 --    52 C    1.532    48 C    1.243   121 H    0.963
                            50 C    0.113
    55   6 C    3.956 --    56 C    1.700    47 C    1.146   122 H    0.955
    56   6 C    3.962 --    55 C    1.700    57 C    1.154   123 H    0.961
    57   6 C    3.936 --    58 C    1.552    56 C    1.154    69 S    1.080
    58   6 C    3.976 --    57 C    1.552    59 C    1.226   124 H    0.955
    59   6 C    3.974 --    60 C    1.303    68 C    1.240    58 C    1.226
    60   6 C    3.969 --    63 C    1.414    59 C    1.303    61 C    1.012
    61   6 C    3.995 --    60 C    1.012    62 C    1.000   125 H    0.968
                           126 H    0.968
    62   6 C    3.993 --    61 C    1.000   128 H    0.988   127 H    0.986
                           129 H    0.981
    63   6 C    3.945 --    60 C    1.414    64 C    1.238    72 S    1.089
    64   6 C    3.973 --    65 C    1.306    63 C    1.238    70 C    1.225
    65   6 C    3.967 --    68 C    1.411    64 C    1.306    66 C    1.013
    66   6 C    3.995 --    65 C    1.013    67 C    0.998   131 H    0.969
                           130 H    0.968
    67   6 C    3.993 --    66 C    0.998   133 H    0.988   134 H    0.987
                           132 H    0.986
    68   6 C    3.948 --    65 C    1.411    59 C    1.240    69 S    1.091
    69  16 S    2.481 --    68 C    1.091    57 C    1.080
    70   6 C    3.957 --    71 C    1.546    64 C    1.225   135 H    0.958
    71   6 C    3.937 --    70 C    1.546    73 C    1.151    72 S    1.091
    72  16 S    2.492 --    71 C    1.091    63 C    1.089
    73   6 C    3.943 --    74 C    1.550    71 C    1.151    85 S    1.090
    74   6 C    3.955 --    73 C    1.550    75 C    1.220   136 H    0.958
    75   6 C    3.985 --    76 C    1.310    84 C    1.244    74 C    1.220
    76   6 C    3.967 --    79 C    1.406    75 C    1.310    77 C    1.013
    77   6 C    3.996 --    76 C    1.013    78 C    0.998   138 H    0.969
                           137 H    0.968
    78   6 C    3.993 --    77 C    0.998   139 H    0.988   140 H    0.987
                           141 H    0.986
    79   6 C    3.951 --    76 C    1.406    80 C    1.256    88 S    1.088
    80   6 C    3.973 --    81 C    1.322    79 C    1.256    86 C    1.188
    81   6 C    3.986 --    84 C    1.405    80 C    1.322    82 C    1.013
    82   6 C    3.996 --    81 C    1.013    83 C    0.999   143 H    0.970
                           142 H    0.968
    83   6 C    3.994 --    82 C    0.999   146 H    0.988   145 H    0.987
                           144 H    0.986
    84   6 C    3.946 --    81 C    1.405    75 C    1.244    85 S    1.091
    85  16 S    2.494 --    84 C    1.091    73 C    1.090
    86   6 C    3.982 --    87 C    1.688    80 C    1.188   147 H    0.960
                            88 S    0.101
    87   6 C    3.935 --    86 C    1.688    88 S    1.142   148 H    0.970
    88  16 S    2.515 --    87 C    1.142    79 C    1.088    86 C    0.101
    89   1 H    0.997 --     1 C    0.969
    90   1 H    0.997 --     2 C    0.960
    91   1 H    0.998 --     5 C    0.969
    92   1 H    0.997 --     5 C    0.968
    93   1 H    0.997 --     6 C    0.986
    94   1 H    0.998 --     6 C    0.987
    95   1 H    0.998 --     6 C    0.988
    96   1 H    0.996 --    10 C    0.968
    97   1 H    0.997 --    10 C    0.969
    98   1 H    0.998 --    11 C    0.987
    99   1 H    0.997 --    11 C    0.986
   100   1 H    0.998 --    11 C    0.988
   101   1 H    0.997 --    14 C    0.958
   102   1 H    0.997 --    18 C    0.958
   103   1 H    0.997 --    21 C    0.969
   104   1 H    0.997 --    21 C    0.967
   105   1 H    0.997 --    22 C    0.985
   106   1 H    0.998 --    22 C    0.988
   107   1 H    0.998 --    22 C    0.987
   108   1 H    0.996 --    26 C    0.967
   109   1 H    0.997 --    26 C    0.968
   110   1 H    0.999 --    27 C    0.988
   111   1 H    0.997 --    27 C    0.983
   112   1 H    0.998 --    27 C    0.988
   113   1 H    0.997 --    30 C    0.951
   114   1 H    0.995 --    38 C    0.954
   115   1 H    0.995 --    39 C    0.966
   116   1 H    0.996 --    42 C    0.962
   117   1 H    0.995 --    43 C    0.952
   118   1 H    0.994 --    44 C    0.951
   119   1 H    0.997 --    50 C    0.966
   120   1 H    0.995 --    51 C    0.966
   121   1 H    0.996 --    54 C    0.963
   122   1 H    0.993 --    55 C    0.955
   123   1 H    0.995 --    56 C    0.961
   124   1 H    0.998 --    58 C    0.955
   125   1 H    0.996 --    61 C    0.968
   126   1 H    0.998 --    61 C    0.968
   127   1 H    0.997 --    62 C    0.986
   128   1 H    0.998 --    62 C    0.988
   129   1 H    0.999 --    62 C    0.981
   130   1 H    0.997 --    66 C    0.968
   131   1 H    0.997 --    66 C    0.969
   132   1 H    0.997 --    67 C    0.986
   133   1 H    0.998 --    67 C    0.988
   134   1 H    0.998 --    67 C    0.987
   135   1 H    0.997 --    70 C    0.958
   136   1 H    0.997 --    74 C    0.958
   137   1 H    0.997 --    77 C    0.968
   138   1 H    0.997 --    77 C    0.969
   139   1 H    0.998 --    78 C    0.988
   140   1 H    0.998 --    78 C    0.987
   141   1 H    0.997 --    78 C    0.986
   142   1 H    0.997 --    82 C    0.968
   143   1 H    0.998 --    82 C    0.970
   144   1 H    0.997 --    83 C    0.986
   145   1 H    0.998 --    83 C    0.987
   146   1 H    0.998 --    83 C    0.988
   147   1 H    0.997 --    86 C    0.960
   148   1 H    0.997 --    87 C    0.970
 ---------------------------------------------------------------------------

Topologies differ in bond orders
Writing corrected topology to xtbtopo.mol

molecular dipole:
                 x           y           z       tot (Debye)
 q only:        0.716       0.006       0.649
   full:        0.684       0.065       0.418       2.044
molecular quadrupole (traceless):
                xx          xy          yy          xz          yz          zz
 q only:       -3.683       4.715     -16.252       1.571     -10.951      19.935
  q+dip:        0.811      -3.584     -22.131       6.436     -11.866      21.320
   full:        2.976       3.294     -24.053       4.551     -13.501      21.077


           -------------------------------------------------
          | TOTAL ENERGY             -235.522591455665 Eh   |
          | GRADIENT NORM               0.011488346897 Eh/α |
          | HOMO-LUMO GAP               0.956912771778 eV   |
           -------------------------------------------------

------------------------------------------------------------------------
 * finished run on 2022/03/02 at 05:57:36.031     
------------------------------------------------------------------------
 total:
 * wall-time:     0 d,  0 h,  0 min,  1.207 sec
 *  cpu-time:     0 d,  0 h,  0 min,  4.426 sec
 * ratio c/w:     3.666 speedup
 SCF:
 * wall-time:     0 d,  0 h,  0 min,  0.363 sec
 *  cpu-time:     0 d,  0 h,  0 min,  2.893 sec
 * ratio c/w:     7.975 speedup

