      -----------------------------------------------------------      
     |                   =====================                   |     
     |                           x T B                           |     
     |                   =====================                   |     
     |                         S. Grimme                         |     
     |          Mulliken Center for Theoretical Chemistry        |     
     |                    University of Bonn                     |     
      -----------------------------------------------------------      

   * xtb version 6.4.1 (unknown) compiled by 'oda6@login1.crc.pitt.edu' on 2021-06-25

   xtb is free software: you can redistribute it and/or modify it under
   the terms of the GNU Lesser General Public License as published by
   the Free Software Foundation, either version 3 of the License, or
   (at your option) any later version.
   
   xtb is distributed in the hope that it will be useful,
   but WITHOUT ANY WARRANTY; without even the implied warranty of
   MERCHANTABILITY or FITNESS FOR A PARTICULAR PURPOSE.  See the
   GNU Lesser General Public License for more details.
   
   Cite this work as:
   * C. Bannwarth, E. Caldeweyher, S. Ehlert, A. Hansen, P. Pracht,
     J. Seibert, S. Spicher, S. Grimme, WIREs Comput. Mol. Sci., 2020, 11,
     e01493. DOI: 10.1002/wcms.1493
   
   for GFN2-xTB:
   * C. Bannwarth, S. Ehlert and S. Grimme., J. Chem. Theory Comput., 2019,
     15, 1652-1671. DOI: 10.1021/acs.jctc.8b01176
   for GFN1-xTB:
   * S. Grimme, C. Bannwarth, P. Shushkov, J. Chem. Theory Comput., 2017,
     13, 1989-2009. DOI: 10.1021/acs.jctc.7b00118
   for GFN0-xTB:
   * P. Pracht, E. Caldeweyher, S. Ehlert, S. Grimme, ChemRxiv, 2019, preprint.
     DOI: 10.26434/chemrxiv.8326202.v1
   for GFN-FF:
   * S. Spicher and S. Grimme, Angew. Chem. Int. Ed., 2020, 59, 15665-15673.
     DOI: 10.1002/anie.202004239
   
   for DFT-D4:
   * E. Caldeweyher, C. Bannwarth and S. Grimme, J. Chem. Phys., 2017,
     147, 034112. DOI: 10.1063/1.4993215
   * E. Caldeweyher, S. Ehlert, A. Hansen, H. Neugebauer, S. Spicher,
     C. Bannwarth and S. Grimme, J. Chem. Phys., 2019, 150, 154122.
     DOI: 10.1063/1.5090222
   * E. Caldeweyher, J.-M. Mewes, S. Ehlert and S. Grimme, Phys. Chem. Chem. Phys.
     2020, 22, 8499-8512. DOI: 10.1039/D0CP00502A
   
   for sTDA-xTB:
   * S. Grimme and C. Bannwarth, J. Chem. Phys., 2016, 145, 054103.
     DOI: 10.1063/1.4959605
   
   in the mass-spec context:
   * V. Asgeirsson, C. Bauer and S. Grimme, Chem. Sci., 2017, 8, 4879.
     DOI: 10.1039/c7sc00601b
   * J. Koopman and S. Grimme, ACS Omega 2019, 4, 12, 15120-15133.
     DOI: 10.1021/acsomega.9b02011
   
   for metadynamics refer to:
   * S. Grimme, J. Chem. Theory Comput., 2019, 155, 2847-2862
     DOI: 10.1021/acs.jctc.9b00143
   
   for SPH calculations refer to:
   * S. Spicher and S. Grimme, J. Chem. Theory Comput., 2021, 17, 1701-1714
     DOI: 10.1021/acs.jctc.0c01306
   
   with help from (in alphabetical order)
   P. Atkinson, C. Bannwarth, F. Bohle, G. Brandenburg, E. Caldeweyher
   M. Checinski, S. Dohm, S. Ehlert, S. Ehrlich, I. Gerasimov, J. Koopman
   C. Lavigne, S. Lehtola, F. März, M. Müller, F. Musil, H. Neugebauer
   J. Pisarek, C. Plett, P. Pracht, J. Seibert, P. Shushkov, S. Spicher
   M. Stahn, M. Steiner, T. Strunk, J. Stückrath, T. Rose, and J. Unsleber
   
 * started run on 2022/03/01 at 17:30:59.880     

           -------------------------------------------------
          |                Calculation Setup                |
           -------------------------------------------------

          program call               : /ihome/ghutchison/oda6/xtb/xtb-641/bin/xtb ../../GFN2_output/655_61_000100.mol --sp --alpb hexane
          hostname                   : smp-n90
          coordinate file            : ../../GFN2_output/655_61_000100.mol
          omp threads                :                     8
          number of atoms            :                   174
          number of electrons        :                   484
          charge                     :                     0
          spin                       :                   0.0
          first test random number   :      0.09030070932375

   ID    Z sym.   atoms
    1    7 N      1, 3, 10, 12, 13, 15, 22, 24, 25, 27, 34, 36, 67, 69, 76,
                  78, 79, 81, 88, 90
    2    6 C      2, 4-9, 11, 14, 16-21, 23, 26, 28-33, 35, 37-41, 43-46, 48,
                  50-53, 55-59, 62, 64, 65, 68, 70-75, 77, 80, 82-87, 89
    3   16 S      42, 54, 63, 66
    4   17 Cl     47, 49, 60, 61
    5    1 H      91-174

           -------------------------------------------------
          |                 G F N 2 - x T B                 |
           -------------------------------------------------

        Reference                      10.1021/acs.jctc.8b01176
      * Hamiltonian:
        H0-scaling (s, p, d)           1.850000    2.230000    2.230000
        zeta-weighting                 0.500000
      * Dispersion:
        s8                             2.700000
        a1                             0.520000
        a2                             5.000000
        s9                             5.000000
      * Repulsion:
        kExp                           1.500000    1.000000
        rExp                           1.000000
      * Coulomb:
        alpha                          2.000000
        third order                    shell-resolved
        anisotropic                    true
        a3                             3.000000
        a5                             4.000000
        cn-shift                       1.200000
        cn-exp                         4.000000
        max-rad                        5.000000

      * Solvation model:               ALPB
        Solvent                        hexane
        Parameter file                 internal GFN2-xTB/ALPB
        Dielectric constant                1.8800E+00
        Reference state                gsolv [1 M gas/solution]
        Free energy shift                  4.8134E-03 Eh       3.0204E+00 kcal/mol
        Temperature                        2.9815E+02 K
        Density                            6.6000E-01 kg/L
        Solvent mass                       8.6180E+01 g/mol
        Interaction kernel             P16
        Born radius scaling (c1)           1.1040E+00
        Born radii integrator          GBOBC
        Born offset                        0.0000E+00 a0       0.0000E+00 AA
        H-bond correction              false
        Ion screening                  false
        Surface tension                    1.0000E-05 Eh       1.5569E+01 dyn/cm
        Grid points                               230 per atom

          ...................................................
          :                      SETUP                      :
          :.................................................:
          :  # basis functions                 492          :
          :  # atomic orbitals                 484          :
          :  # shells                          272          :
          :  # electrons                       484          :
          :  max. iterations                   250          :
          :  Hamiltonian                  GFN2-xTB          :
          :  restarted?                      false          :
          :  GBSA solvation                   true          :
          :  PC potential                    false          :
          :  electronic temp.          300.0000000     K    :
          :  accuracy                    1.0000000          :
          :  -> integral cutoff          0.2500000E+02      :
          :  -> integral neglect         0.1000000E-07      :
          :  -> SCF convergence          0.1000000E-05 Eh   :
          :  -> wf. convergence          0.1000000E-03 e    :
          :  Broyden damping             0.4000000          :
          ...................................................

 iter      E             dE          RMSdq      gap      omega  full diag
   1   -268.4442214 -0.268444E+03  0.331E+00    1.99       0.0  T
   2   -268.5768162 -0.132595E+00  0.193E+00    1.86       1.0  T
   3   -268.5379644  0.388518E-01  0.815E-01    1.59       1.0  T
   4   -268.5903517 -0.523873E-01  0.355E-01    1.58       1.0  T
   5   -268.6013899 -0.110382E-01  0.115E-01    1.50       1.0  T
   6   -268.6019828 -0.592888E-03  0.604E-02    1.51       1.0  T
   7   -268.6021617 -0.178874E-03  0.348E-02    1.51       1.0  T
   8   -268.6022130 -0.513648E-04  0.231E-02    1.51       1.0  T
   9   -268.6022370 -0.239428E-04  0.151E-02    1.51       1.0  T
  10   -268.6022507 -0.137634E-04  0.949E-03    1.51       1.0  T
  11   -268.6022569 -0.615697E-05  0.468E-03    1.51       1.6  T
  12   -268.6022582 -0.132348E-05  0.229E-03    1.51       3.3  T
  13   -268.6022586 -0.345157E-06  0.130E-03    1.51       5.8  T
  14   -268.6022586 -0.595736E-07  0.926E-04    1.51       8.2  T
  15   -268.6022587 -0.441177E-07  0.606E-04    1.51      12.5  T

   *** convergence criteria satisfied after 15 iterations ***

         #    Occupation            Energy/Eh            Energy/eV
      -------------------------------------------------------------
         1        2.0000           -1.0670197             -29.0351
       ...           ...                  ...                  ...
       236        2.0000           -0.3618465              -9.8463
       237        2.0000           -0.3534231              -9.6171
       238        2.0000           -0.3488365              -9.4923
       239        2.0000           -0.3467386              -9.4352
       240        2.0000           -0.3439666              -9.3598
       241        2.0000           -0.3413803              -9.2894
       242        2.0000           -0.3352591              -9.1229 (HOMO)
       243                         -0.2798149              -7.6141 (LUMO)
       244                         -0.2593275              -7.0567
       245                         -0.2521271              -6.8607
       246                         -0.2350111              -6.3950
       247                         -0.2268633              -6.1733
       ...                                ...                  ...
       484                          0.7065902              19.2273
      -------------------------------------------------------------
                  HL-Gap            0.0554443 Eh            1.5087 eV
             Fermi-level           -0.3075370 Eh           -8.3685 eV

 SCC (total)                   0 d,  0 h,  0 min,  0.498 sec
 SCC setup                      ...        0 min,  0.005 sec (  1.068%)
 Dispersion                     ...        0 min,  0.006 sec (  1.300%)
 classical contributions        ...        0 min,  0.000 sec (  0.065%)
 integral evaluation            ...        0 min,  0.024 sec (  4.897%)
 iterations                     ...        0 min,  0.366 sec ( 73.442%)
 molecular gradient             ...        0 min,  0.094 sec ( 18.833%)
 printout                       ...        0 min,  0.002 sec (  0.379%)

         :::::::::::::::::::::::::::::::::::::::::::::::::::::
         ::                     SUMMARY                     ::
         :::::::::::::::::::::::::::::::::::::::::::::::::::::
         :: total energy            -265.538994014026 Eh    ::
         :: total w/o Gsasa/hb      -265.470844894487 Eh    ::
         :: gradient norm              0.010401833142 Eh/a0 ::
         :: HOMO-LUMO gap              1.508714924794 eV    ::
         ::.................................................::
         :: SCC energy              -268.602258666689 Eh    ::
         :: -> isotropic ES            0.174679293344 Eh    ::
         :: -> anisotropic ES          0.015059835115 Eh    ::
         :: -> anisotropic XC          0.168366852012 Eh    ::
         :: -> dispersion             -0.281184367490 Eh    ::
         :: -> Gsolv                  -0.087788885031 Eh    ::
         ::    -> Gelec               -0.019639765492 Eh    ::
         ::    -> Gsasa               -0.072962475358 Eh    ::
         ::    -> Ghb                  0.000000000000 Eh    ::
         ::    -> Gshift               0.004813355820 Eh    ::
         :: repulsion energy           3.044276716291 Eh    ::
         :: add. restraining           0.000000000000 Eh    ::
         :: total charge               0.000000000000 e     ::
         :::::::::::::::::::::::::::::::::::::::::::::::::::::

           -------------------------------------------------
          |                Property Printout                |
           -------------------------------------------------

    * Orbital Energies and Occupations

         #    Occupation            Energy/Eh            Energy/eV
      -------------------------------------------------------------
         1        2.0000           -1.0670197             -29.0351
       ...           ...                  ...                  ...
       230        2.0000           -0.3700107             -10.0685
       231        2.0000           -0.3694882             -10.0543
       232        2.0000           -0.3680571             -10.0153
       233        2.0000           -0.3674974             -10.0001
       234        2.0000           -0.3663709              -9.9695
       235        2.0000           -0.3631735              -9.8825
       236        2.0000           -0.3618465              -9.8463
       237        2.0000           -0.3534231              -9.6171
       238        2.0000           -0.3488365              -9.4923
       239        2.0000           -0.3467386              -9.4352
       240        2.0000           -0.3439666              -9.3598
       241        2.0000           -0.3413803              -9.2894
       242        2.0000           -0.3352591              -9.1229 (HOMO)
       243                         -0.2798149              -7.6141 (LUMO)
       244                         -0.2593275              -7.0567
       245                         -0.2521271              -6.8607
       246                         -0.2350111              -6.3950
       247                         -0.2268633              -6.1733
       248                         -0.2223393              -6.0502
       249                         -0.2145469              -5.8381
       250                         -0.2102229              -5.7205
       251                         -0.2059164              -5.6033
       252                         -0.1925789              -5.2403
       253                         -0.1883663              -5.1257
       ...                                ...                  ...
       484                          0.7065902              19.2273
      -------------------------------------------------------------
                  HL-Gap            0.0554443 Eh            1.5087 eV
             Fermi-level           -0.3075370 Eh           -8.3685 eV

     #   Z          covCN         q      C6AA      α(0)
     1   7 N        2.692    -0.292    27.529     7.793
     2   6 C        3.762     0.100    18.981     6.210
     3   7 N        2.700    -0.296    27.627     7.806
     4   6 C        3.832     0.050    19.711     6.317
     5   6 C        3.806    -0.075    21.925     6.666
     6   6 C        3.849     0.043    19.825     6.333
     7   6 C        3.825     0.040    19.881     6.345
     8   6 C        3.805    -0.064    21.723     6.635
     9   6 C        3.849     0.049    19.725     6.317
    10   7 N        2.820    -0.157    24.386     7.334
    11   6 C        3.761     0.071    19.439     6.285
    12   7 N        2.691    -0.281    27.251     7.753
    13   7 N        2.833    -0.140    24.019     7.279
    14   6 C        3.755     0.099    19.008     6.217
    15   7 N        2.720    -0.267    26.895     7.702
    16   6 C        3.858     0.060    19.536     6.286
    17   6 C        3.803    -0.078    21.991     6.676
    18   6 C        3.856     0.047    19.750     6.321
    19   6 C        3.828     0.040    19.877     6.344
    20   6 C        3.803    -0.081    22.049     6.685
    21   6 C        3.840     0.037    19.921     6.349
    22   7 N        2.813    -0.136    23.945     7.268
    23   6 C        3.756     0.057    19.665     6.323
    24   7 N        2.690    -0.287    27.387     7.772
    25   7 N        2.819    -0.146    24.151     7.299
    26   6 C        3.757     0.090    19.141     6.238
    27   7 N        2.698    -0.293    27.545     7.795
    28   6 C        3.841     0.051    19.701     6.314
    29   6 C        3.808    -0.077    21.969     6.672
    30   6 C        3.851     0.044    19.805     6.330
    31   6 C        3.824     0.036    19.948     6.356
    32   6 C        3.805    -0.080    22.019     6.680
    33   6 C        3.837     0.036    19.939     6.353
    34   7 N        2.769    -0.172    24.723     7.385
    35   6 C        3.762     0.084    19.223     6.250
    36   7 N        2.695    -0.269    26.967     7.713
    37   6 C        2.926     0.093    25.945     8.353
    38   6 C        3.058    -0.077    29.858     8.961
    39   6 C        3.133    -0.009    28.017     8.665
    40   6 C        3.016    -0.006    28.149     8.703
    41   6 C        3.013     0.005    27.896     8.664
    42  16 S        2.396    -0.000   141.059    19.990
    43   6 C        3.006     0.013    27.710     8.635
    44   6 C        3.825    -0.060    21.625     6.617
    45   6 C        3.754    -0.107    22.607     6.780
    46   6 C        3.115     0.063    26.438     8.423
    47  17 Cl       0.949    -0.169   104.464    15.637
    48   6 C        3.102     0.068    26.357     8.413
    49  17 Cl       0.971    -0.157   104.087    15.608
    50   6 C        3.003     0.022    27.495     8.601
    51   6 C        3.140    -0.001    27.816     8.631
    52   6 C        3.012    -0.012    28.290     8.725
    53   6 C        3.013     0.003    27.928     8.669
    54  16 S        2.394     0.009   140.702    19.964
    55   6 C        3.006     0.012    27.722     8.637
    56   6 C        3.823    -0.056    21.568     6.609
    57   6 C        3.753    -0.110    22.671     6.790
    58   6 C        3.112     0.064    26.412     8.419
    59   6 C        3.102     0.068    26.352     8.412
    60  17 Cl       0.946    -0.167   104.377    15.630
    61  17 Cl       0.949    -0.167   104.399    15.632
    62   6 C        3.006     0.024    27.451     8.594
    63  16 S        2.267    -0.117   145.948    20.333
    64   6 C        3.063    -0.093    30.273     9.023
    65   6 C        2.929     0.094    25.921     8.350
    66  16 S        2.284    -0.126   146.358    20.362
    67   7 N        2.787    -0.111    23.427     7.189
    68   6 C        3.732     0.092    19.143     6.245
    69   7 N        2.715    -0.268    26.932     7.708
    70   6 C        3.839     0.041    19.863     6.340
    71   6 C        3.806    -0.083    22.075     6.688
    72   6 C        3.833     0.045    19.793     6.330
    73   6 C        3.838     0.037    19.934     6.352
    74   6 C        3.808    -0.081    22.046     6.684
    75   6 C        3.844     0.046    19.771     6.325
    76   7 N        2.813    -0.154    24.321     7.324
    77   6 C        3.744     0.067    19.520     6.303
    78   7 N        2.685    -0.287    27.389     7.773
    79   7 N        2.821    -0.146    24.160     7.300
    80   6 C        3.753     0.083    19.252     6.257
    81   7 N        2.699    -0.297    27.652     7.810
    82   6 C        3.833     0.046    19.781     6.328
    83   6 C        3.804    -0.075    21.935     6.668
    84   6 C        3.856     0.044    19.801     6.329
    85   6 C        3.823     0.048    19.758     6.325
    86   6 C        3.807    -0.075    21.930     6.666
    87   6 C        3.833     0.041    19.867     6.342
    88   7 N        2.697    -0.297    27.647     7.809
    89   6 C        3.763     0.090    19.133     6.235
    90   7 N        2.693    -0.286    27.378     7.771
    91   1 H        0.860     0.161     1.331     1.807
    92   1 H        0.922     0.001     3.042     2.728
    93   1 H        0.924     0.037     2.494     2.470
    94   1 H        0.860     0.144     1.444     1.882
    95   1 H        0.923    -0.000     3.067     2.739
    96   1 H        0.924     0.049     2.329     2.387
    97   1 H        0.924     0.056     2.252     2.347
    98   1 H        0.924     0.029     2.600     2.522
    99   1 H        0.923    -0.002     3.101     2.754
   100   1 H        0.924     0.035     2.523     2.484
   101   1 H        0.924     0.049     2.336     2.390
   102   1 H        0.924     0.023     2.682     2.561
   103   1 H        0.924     0.049     2.326     2.385
   104   1 H        0.923     0.027     2.624     2.533
   105   1 H        0.860     0.161     1.329     1.806
   106   1 H        0.921    -0.030     3.633     2.981
   107   1 H        0.924     0.029     2.601     2.522
   108   1 H        0.860     0.151     1.391     1.848
   109   1 H        0.921    -0.011     3.263     2.825
   110   1 H        0.924     0.040     2.451     2.448
   111   1 H        0.924     0.072     2.061     2.245
   112   1 H        0.924     0.026     2.641     2.542
   113   1 H        0.922     0.009     2.901     2.664
   114   1 H        0.924     0.041     2.429     2.437
   115   1 H        0.925     0.074     2.043     2.235
   116   1 H        0.924     0.033     2.542     2.494
   117   1 H        0.924     0.056     2.250     2.346
   118   1 H        0.924     0.043     2.403     2.424
   119   1 H        0.860     0.139     1.481     1.907
   120   1 H        0.922     0.002     3.027     2.721
   121   1 H        0.924     0.028     2.616     2.529
   122   1 H        0.860     0.141     1.461     1.893
   123   1 H        0.922    -0.001     3.068     2.739
   124   1 H        0.924     0.051     2.312     2.378
   125   1 H        0.925     0.064     2.148     2.292
   126   1 H        0.924     0.033     2.538     2.491
   127   1 H        0.924     0.035     2.511     2.478
   128   1 H        0.925     0.064     2.149     2.292
   129   1 H        0.925     0.062     2.171     2.304
   130   1 H        0.923     0.032     2.561     2.503
   131   1 H        0.924     0.045     2.380     2.413
   132   1 H        0.923     0.039     2.461     2.453
   133   1 H        0.860     0.158     1.351     1.821
   134   1 H        0.926     0.053     2.282     2.362
   135   1 H        0.924     0.074     2.040     2.234
   136   1 H        0.924     0.064     2.150     2.293
   137   1 H        0.925     0.045     2.382     2.413
   138   1 H        0.925     0.049     2.335     2.389
   139   1 H        0.925     0.052     2.294     2.369
   140   1 H        0.924     0.064     2.152     2.294
   141   1 H        0.924     0.063     2.168     2.302
   142   1 H        0.925     0.063     2.160     2.298
   143   1 H        0.925     0.044     2.399     2.422
   144   1 H        0.925     0.045     2.383     2.414
   145   1 H        0.926     0.043     2.404     2.425
   146   1 H        0.924     0.053     2.287     2.365
   147   1 H        0.921     0.010     2.896     2.662
   148   1 H        0.860     0.153     1.383     1.842
   149   1 H        0.923     0.031     2.569     2.507
   150   1 H        0.925     0.072     2.062     2.246
   151   1 H        0.925     0.053     2.283     2.363
   152   1 H        0.924     0.020     2.740     2.589
   153   1 H        0.924     0.026     2.643     2.543
   154   1 H        0.925     0.056     2.247     2.344
   155   1 H        0.925     0.073     2.053     2.240
   156   1 H        0.923     0.032     2.565     2.504
   157   1 H        0.924     0.046     2.368     2.407
   158   1 H        0.924     0.045     2.389     2.417
   159   1 H        0.860     0.141     1.463     1.895
   160   1 H        0.924     0.051     2.306     2.375
   161   1 H        0.922     0.017     2.786     2.610
   162   1 H        0.860     0.147     1.420     1.867
   163   1 H        0.924     0.025     2.655     2.548
   164   1 H        0.924     0.041     2.438     2.442
   165   1 H        0.924     0.044     2.397     2.421
   166   1 H        0.924     0.028     2.620     2.531
   167   1 H        0.923    -0.003     3.106     2.756
   168   1 H        0.925     0.063     2.168     2.302
   169   1 H        0.924     0.037     2.493     2.469
   170   1 H        0.924     0.018     2.764     2.600
   171   1 H        0.860     0.141     1.461     1.893
   172   1 H        0.924     0.041     2.437     2.441
   173   1 H        0.923     0.010     2.893     2.660
   174   1 H        0.860     0.161     1.327     1.804

 Mol. C6AA /au·bohr⁶  :     372775.148572
 Mol. C8AA /au·bohr⁸  :    9567002.847205
 Mol. α(0) /au        :        932.204674


Wiberg/Mayer (AO) data.
largest (>0.10) Wiberg bond orders for each atom

 ---------------------------------------------------------------------------
     #   Z sym  total        # sym  WBO       # sym  WBO       # sym  WBO
 ---------------------------------------------------------------------------
     1   7 N    3.064 --     2 C    1.018     9 C    0.995    91 H    0.948
     2   6 C    3.981 --     1 N    1.018     3 N    0.997    93 H    0.973
                            92 H    0.961
     3   7 N    3.052 --     4 C    1.001     2 C    0.997    94 H    0.956
     4   6 C    3.983 --     3 N    1.001     5 C    0.993    95 H    0.965
                             9 C    0.961
     5   6 C    3.995 --     6 C    1.000     4 C    0.993    96 H    0.974
                            97 H    0.970
     6   6 C    3.984 --     5 C    1.000    12 N    0.995    98 H    0.964
                             7 C    0.962
     7   6 C    3.986 --     8 C    0.992    10 N    0.979     6 C    0.962
                            99 H    0.951
     8   6 C    3.996 --     9 C    0.999     7 C    0.992   100 H    0.973
                           101 H    0.971
     9   6 C    3.982 --     8 C    0.999     1 N    0.995     4 C    0.961
                           102 H    0.960
    10   7 N    3.114 --    13 N    1.014     7 C    0.979    11 C    0.965
    11   6 C    3.974 --    12 N    1.024   103 H    0.972    10 N    0.965
                           104 H    0.956
    12   7 N    3.062 --    11 C    1.024     6 C    0.995   105 H    0.948
    13   7 N    3.130 --    10 N    1.014    14 C    0.989    21 C    0.973
    14   6 C    3.984 --    15 N    1.017    13 N    0.989   107 H    0.956
                           106 H    0.944
    15   7 N    3.065 --    14 C    1.017    16 C    0.999   108 H    0.940
    16   6 C    3.984 --    15 N    0.999    17 C    0.996    21 C    0.977
                           109 H    0.954
    17   6 C    3.993 --    16 C    0.996    18 C    0.988   110 H    0.978
                           111 H    0.967
    18   6 C    3.986 --    24 N    0.999    17 C    0.988   112 H    0.972
                            19 C    0.970
    19   6 C    3.984 --    20 C    0.992    22 N    0.984    18 C    0.970
                           113 H    0.957
    20   6 C    3.993 --    19 C    0.992    21 C    0.984   114 H    0.978
                           115 H    0.968
    21   6 C    3.981 --    20 C    0.984    16 C    0.977    13 N    0.973
                           116 H    0.967
    22   7 N    3.117 --    25 N    1.012    19 C    0.984    23 C    0.965
    23   6 C    3.974 --    24 N    1.010   118 H    0.970    22 N    0.965
                           117 H    0.959
    24   7 N    3.061 --    23 C    1.010    18 C    0.999   119 H    0.957
    25   7 N    3.124 --    22 N    1.012    26 C    0.993    33 C    0.976
    26   6 C    3.983 --    27 N    0.999    25 N    0.993   121 H    0.966
                           120 H    0.961
    27   7 N    3.057 --    28 C    0.999    26 C    0.999   122 H    0.955
    28   6 C    3.983 --    27 N    0.999    29 C    0.994    33 C    0.966
                           123 H    0.964
    29   6 C    3.993 --    28 C    0.994    30 C    0.992   124 H    0.974
                           125 H    0.969
    30   6 C    3.982 --    36 N    0.998    29 C    0.992   126 H    0.971
                            31 C    0.962
    31   6 C    3.966 --    32 C    0.990   127 H    0.967    30 C    0.962
                            34 N    0.949
    32   6 C    3.990 --    33 C    0.997    31 C    0.990   129 H    0.965
                           128 H    0.964
    33   6 C    3.982 --    32 C    0.997    25 N    0.976    28 C    0.966
                           130 H    0.965
    34   7 N    3.262 --    37 C    1.133    35 C    0.963    31 C    0.949
    35   6 C    3.973 --    36 N    1.030   131 H    0.972    34 N    0.963
                           132 H    0.953
    36   7 N    3.076 --    35 C    1.030    30 C    0.998   133 H    0.953
    37   6 C    3.925 --    38 C    1.599    34 N    1.133    63 S    1.034
    38   6 C    3.972 --    37 C    1.599    39 C    1.202   134 H    0.955
    39   6 C    3.970 --    40 C    1.274    62 C    1.266    38 C    1.202
    40   6 C    3.966 --    50 C    1.370    39 C    1.274    41 C    1.077
    41   6 C    3.948 --    48 C    1.517    42 S    1.117    40 C    1.077
    42  16 S    2.618 --    43 C    1.150    41 C    1.117
    43   6 C    3.940 --    46 C    1.546    42 S    1.150    44 C    1.027
    44   6 C    3.987 --    43 C    1.027    45 C    0.997   136 H    0.966
                           135 H    0.959
    45   6 C    3.991 --    44 C    0.997   137 H    0.988   138 H    0.986
                           139 H    0.984
    46   6 C    3.901 --    43 C    1.546    48 C    1.215    47 Cl   0.969
    47  17 Cl   1.113 --    46 C    0.969
    48   6 C    3.889 --    41 C    1.517    46 C    1.215    49 Cl   0.976
    49  17 Cl   1.134 --    48 C    0.976
    50   6 C    3.946 --    40 C    1.370    51 C    1.251    66 S    1.078
    51   6 C    3.977 --    52 C    1.275    50 C    1.251    64 C    1.223
    52   6 C    3.958 --    62 C    1.360    51 C    1.275    53 C    1.072
    53   6 C    3.948 --    59 C    1.515    54 S    1.125    52 C    1.072
    54  16 S    2.618 --    55 C    1.155    53 C    1.125
    55   6 C    3.938 --    58 C    1.542    54 S    1.155    56 C    1.025
    56   6 C    3.987 --    55 C    1.025    57 C    0.996   140 H    0.973
                           141 H    0.957
    57   6 C    3.990 --    56 C    0.996   143 H    0.985   144 H    0.984
                           142 H    0.981
    58   6 C    3.902 --    55 C    1.542    59 C    1.221    61 Cl   0.970
    59   6 C    3.898 --    53 C    1.515    58 C    1.221    60 Cl   0.974
    60  17 Cl   1.121 --    59 C    0.974
    61  17 Cl   1.116 --    58 C    0.970
    62   6 C    3.954 --    52 C    1.360    39 C    1.266    63 S    1.099
    63  16 S    2.487 --    62 C    1.099    37 C    1.034
    64   6 C    3.955 --    65 C    1.521    51 C    1.223   145 H    0.955
    65   6 C    3.928 --    64 C    1.521    67 N    1.195    66 S    1.062
    66  16 S    2.474 --    50 C    1.078    65 C    1.062
    67   7 N    3.388 --    65 C    1.195    68 C    0.987    75 C    0.958
    68   6 C    3.973 --    69 N    1.021    67 N    0.987   146 H    0.963
                           147 H    0.944
    69   7 N    3.059 --    68 C    1.021    70 C    0.993   148 H    0.951
    70   6 C    3.978 --    69 N    0.993    71 C    0.992    75 C    0.973
                           149 H    0.956
    71   6 C    3.991 --    70 C    0.992    72 C    0.991   151 H    0.975
                           150 H    0.970
    72   6 C    3.984 --    78 N    1.003    71 C    0.991   152 H    0.972
                            73 C    0.957
    73   6 C    3.981 --    76 N    0.990    74 C    0.987   153 H    0.961
                            72 C    0.957
    74   6 C    3.990 --    75 C    0.989    73 C    0.987   155 H    0.970
                           154 H    0.969
    75   6 C    3.967 --    74 C    0.989    70 C    0.973   156 H    0.961
                            67 N    0.958
    76   7 N    3.121 --    79 N    1.006    73 C    0.990    77 C    0.972
    77   6 C    3.976 --    78 N    1.008    76 N    0.972   157 H    0.972
                           158 H    0.965
    78   7 N    3.070 --    77 C    1.008    72 C    1.003   159 H    0.954
    79   7 N    3.121 --    76 N    1.006    80 C    1.003    87 C    0.969
    80   6 C    3.977 --    79 N    1.003    81 N    0.997   160 H    0.969
                           161 H    0.960
    81   7 N    3.056 --    82 C    1.003    80 C    0.997   162 H    0.952
    82   6 C    3.984 --    81 N    1.003    83 C    0.985    87 C    0.970
                           163 H    0.966
    83   6 C    3.996 --    84 C    1.000    82 C    0.985   164 H    0.975
                           165 H    0.970
    84   6 C    3.984 --    83 C    1.000    90 N    1.000   166 H    0.967
                            85 C    0.959
    85   6 C    3.984 --    88 N    1.001    86 C    0.992   167 H    0.966
                            84 C    0.959
    86   6 C    3.994 --    85 C    0.992    87 C    0.990   169 H    0.971
                           168 H    0.970
    87   6 C    3.986 --    86 C    0.990    82 C    0.970    79 N    0.969
                           170 H    0.963
    88   7 N    3.054 --    85 C    1.001    89 C    0.989   171 H    0.958
    89   6 C    3.979 --    90 N    1.023    88 N    0.989   172 H    0.972
                           173 H    0.965
    90   7 N    3.063 --    89 C    1.023    84 C    1.000   174 H    0.947
    91   1 H    0.974 --     1 N    0.948
    92   1 H    1.000 --     2 C    0.961
    93   1 H    0.998 --     2 C    0.973
    94   1 H    0.979 --     3 N    0.956
    95   1 H    1.000 --     4 C    0.965
    96   1 H    0.997 --     5 C    0.974
    97   1 H    0.997 --     5 C    0.970
    98   1 H    0.999 --     6 C    0.964
    99   1 H    1.000 --     7 C    0.951
   100   1 H    0.999 --     8 C    0.973
   101   1 H    0.997 --     8 C    0.971
   102   1 H    0.999 --     9 C    0.960
   103   1 H    0.997 --    11 C    0.972
   104   1 H    0.999 --    11 C    0.956
   105   1 H    0.974 --    12 N    0.948
   106   1 H    0.999 --    14 C    0.944
   107   1 H    0.999 --    14 C    0.956
   108   1 H    0.977 --    15 N    0.940
   109   1 H    1.000 --    16 C    0.954
   110   1 H    0.998 --    17 C    0.978
   111   1 H    0.994 --    17 C    0.967
   112   1 H    0.999 --    18 C    0.972
   113   1 H    1.000 --    19 C    0.957
   114   1 H    0.998 --    20 C    0.978
   115   1 H    0.994 --    20 C    0.968
   116   1 H    0.999 --    21 C    0.967
   117   1 H    0.997 --    23 C    0.959
   118   1 H    0.998 --    23 C    0.970
   119   1 H    0.980 --    24 N    0.957
   120   1 H    1.000 --    26 C    0.961
   121   1 H    0.999 --    26 C    0.966
   122   1 H    0.980 --    27 N    0.955
   123   1 H    1.000 --    28 C    0.964
   124   1 H    0.997 --    29 C    0.974
   125   1 H    0.996 --    29 C    0.969
   126   1 H    0.999 --    30 C    0.971
   127   1 H    0.998 --    31 C    0.967
   128   1 H    0.996 --    32 C    0.964
   129   1 H    0.996 --    32 C    0.965
   130   1 H    0.999 --    33 C    0.965
   131   1 H    0.997 --    35 C    0.972
   132   1 H    0.998 --    35 C    0.953
   133   1 H    0.975 --    36 N    0.953
   134   1 H    0.996 --    38 C    0.955
   135   1 H    0.993 --    44 C    0.959
   136   1 H    0.995 --    44 C    0.966
   137   1 H    0.998 --    45 C    0.988
   138   1 H    0.998 --    45 C    0.986
   139   1 H    0.996 --    45 C    0.984
   140   1 H    0.995 --    56 C    0.973
   141   1 H    0.995 --    56 C    0.957
   142   1 H    0.996 --    57 C    0.981
   143   1 H    0.998 --    57 C    0.985
   144   1 H    0.997 --    57 C    0.984
   145   1 H    0.997 --    64 C    0.955
   146   1 H    0.995 --    68 C    0.963
   147   1 H    0.998 --    68 C    0.944
   148   1 H    0.976 --    69 N    0.951
   149   1 H    0.999 --    70 C    0.956
   150   1 H    0.995 --    71 C    0.970
   151   1 H    0.996 --    71 C    0.975
   152   1 H    0.999 --    72 C    0.972
   153   1 H    0.999 --    73 C    0.961
   154   1 H    0.997 --    74 C    0.969
   155   1 H    0.995 --    74 C    0.970
   156   1 H    0.998 --    75 C    0.961
   157   1 H    0.997 --    77 C    0.972
   158   1 H    0.998 --    77 C    0.965
   159   1 H    0.980 --    78 N    0.954
   160   1 H    0.997 --    80 C    0.969
   161   1 H    1.000 --    80 C    0.960
   162   1 H    0.978 --    81 N    0.952
   163   1 H    0.999 --    82 C    0.966
   164   1 H    0.998 --    83 C    0.975
   165   1 H    0.998 --    83 C    0.970
   166   1 H    0.999 --    84 C    0.967
   167   1 H    1.000 --    85 C    0.966
   168   1 H    0.996 --    86 C    0.970
   169   1 H    0.999 --    86 C    0.971
   170   1 H    1.000 --    87 C    0.963
   171   1 H    0.980 --    88 N    0.958
   172   1 H    0.998 --    89 C    0.972
   173   1 H    1.000 --    89 C    0.965
   174   1 H    0.974 --    90 N    0.947
 ---------------------------------------------------------------------------

Topologies differ in bond orders
Writing corrected topology to xtbtopo.mol

molecular dipole:
                 x           y           z       tot (Debye)
 q only:        3.060       0.063      -2.649
   full:        2.609       0.514      -1.771       8.120
molecular quadrupole (traceless):
                xx          xy          yy          xz          yz          zz
 q only:      -12.784     -24.797      46.218      31.352      15.391     -33.434
  q+dip:      -12.055     -13.529      24.180      10.660       7.031     -12.125
   full:      -13.148     -13.692      25.132      10.371       7.085     -11.984


           -------------------------------------------------
          | TOTAL ENERGY             -265.538994014026 Eh   |
          | GRADIENT NORM               0.010401833142 Eh/α |
          | HOMO-LUMO GAP               1.508714924794 eV   |
           -------------------------------------------------

------------------------------------------------------------------------
 * finished run on 2022/03/01 at 17:31:00.982     
------------------------------------------------------------------------
 total:
 * wall-time:     0 d,  0 h,  0 min,  1.101 sec
 *  cpu-time:     0 d,  0 h,  0 min,  5.611 sec
 * ratio c/w:     5.095 speedup
 SCF:
 * wall-time:     0 d,  0 h,  0 min,  0.501 sec
 *  cpu-time:     0 d,  0 h,  0 min,  3.989 sec
 * ratio c/w:     7.963 speedup

