      -----------------------------------------------------------      
     |                   =====================                   |     
     |                           x T B                           |     
     |                   =====================                   |     
     |                         S. Grimme                         |     
     |          Mulliken Center for Theoretical Chemistry        |     
     |                    University of Bonn                     |     
      -----------------------------------------------------------      

   * xtb version 6.4.1 (unknown) compiled by 'oda6@login1.crc.pitt.edu' on 2021-06-25

   xtb is free software: you can redistribute it and/or modify it under
   the terms of the GNU Lesser General Public License as published by
   the Free Software Foundation, either version 3 of the License, or
   (at your option) any later version.
   
   xtb is distributed in the hope that it will be useful,
   but WITHOUT ANY WARRANTY; without even the implied warranty of
   MERCHANTABILITY or FITNESS FOR A PARTICULAR PURPOSE.  See the
   GNU Lesser General Public License for more details.
   
   Cite this work as:
   * C. Bannwarth, E. Caldeweyher, S. Ehlert, A. Hansen, P. Pracht,
     J. Seibert, S. Spicher, S. Grimme, WIREs Comput. Mol. Sci., 2020, 11,
     e01493. DOI: 10.1002/wcms.1493
   
   for GFN2-xTB:
   * C. Bannwarth, S. Ehlert and S. Grimme., J. Chem. Theory Comput., 2019,
     15, 1652-1671. DOI: 10.1021/acs.jctc.8b01176
   for GFN1-xTB:
   * S. Grimme, C. Bannwarth, P. Shushkov, J. Chem. Theory Comput., 2017,
     13, 1989-2009. DOI: 10.1021/acs.jctc.7b00118
   for GFN0-xTB:
   * P. Pracht, E. Caldeweyher, S. Ehlert, S. Grimme, ChemRxiv, 2019, preprint.
     DOI: 10.26434/chemrxiv.8326202.v1
   for GFN-FF:
   * S. Spicher and S. Grimme, Angew. Chem. Int. Ed., 2020, 59, 15665-15673.
     DOI: 10.1002/anie.202004239
   
   for DFT-D4:
   * E. Caldeweyher, C. Bannwarth and S. Grimme, J. Chem. Phys., 2017,
     147, 034112. DOI: 10.1063/1.4993215
   * E. Caldeweyher, S. Ehlert, A. Hansen, H. Neugebauer, S. Spicher,
     C. Bannwarth and S. Grimme, J. Chem. Phys., 2019, 150, 154122.
     DOI: 10.1063/1.5090222
   * E. Caldeweyher, J.-M. Mewes, S. Ehlert and S. Grimme, Phys. Chem. Chem. Phys.
     2020, 22, 8499-8512. DOI: 10.1039/D0CP00502A
   
   for sTDA-xTB:
   * S. Grimme and C. Bannwarth, J. Chem. Phys., 2016, 145, 054103.
     DOI: 10.1063/1.4959605
   
   in the mass-spec context:
   * V. Asgeirsson, C. Bauer and S. Grimme, Chem. Sci., 2017, 8, 4879.
     DOI: 10.1039/c7sc00601b
   * J. Koopman and S. Grimme, ACS Omega 2019, 4, 12, 15120-15133.
     DOI: 10.1021/acsomega.9b02011
   
   for metadynamics refer to:
   * S. Grimme, J. Chem. Theory Comput., 2019, 155, 2847-2862
     DOI: 10.1021/acs.jctc.9b00143
   
   for SPH calculations refer to:
   * S. Spicher and S. Grimme, J. Chem. Theory Comput., 2021, 17, 1701-1714
     DOI: 10.1021/acs.jctc.0c01306
   
   with help from (in alphabetical order)
   P. Atkinson, C. Bannwarth, F. Bohle, G. Brandenburg, E. Caldeweyher
   M. Checinski, S. Dohm, S. Ehlert, S. Ehrlich, I. Gerasimov, J. Koopman
   C. Lavigne, S. Lehtola, F. März, M. Müller, F. Musil, H. Neugebauer
   J. Pisarek, C. Plett, P. Pracht, J. Seibert, P. Shushkov, S. Spicher
   M. Stahn, M. Steiner, T. Strunk, J. Stückrath, T. Rose, and J. Unsleber
   
 * started run on 2022/03/04 at 07:06:32.895     

           -------------------------------------------------
          |                Calculation Setup                |
           -------------------------------------------------

          program call               : /ihome/ghutchison/oda6/xtb/xtb-641/bin/xtb ../../GFN2_output/687_99_111001.mol --sp --alpb hexane
          hostname                   : smp-n90
          coordinate file            : ../../GFN2_output/687_99_111001.mol
          omp threads                :                     8
          number of atoms            :                   250
          number of electrons        :                   782
          charge                     :                     0
          spin                       :                   0.0
          first test random number   :      0.93977202888607

   ID    Z sym.   atoms
    1    6 C      1-8, 10-12, 14-21, 23-26, 28, 30, 31, 33-40, 42-44, 46-53,
                  55-58, 60, 62, 63, 65-72, 74-76, 78-85, 87-90, 92, 94, 95,
                  97, 99-105, 107-111, 113-119, 121-132, 134-136, 138-145,
                  147-150, 152, 154, 155
    2   16 S      9, 22, 29, 32, 41, 54, 61, 64, 73, 86, 93, 96, 98, 112,
                  133, 146, 153, 156
    3    9 F      13, 27, 45, 59, 77, 91, 137, 151
    4    8 O      106, 120
    5    1 H      157-250

           -------------------------------------------------
          |                 G F N 2 - x T B                 |
           -------------------------------------------------

        Reference                      10.1021/acs.jctc.8b01176
      * Hamiltonian:
        H0-scaling (s, p, d)           1.850000    2.230000    2.230000
        zeta-weighting                 0.500000
      * Dispersion:
        s8                             2.700000
        a1                             0.520000
        a2                             5.000000
        s9                             5.000000
      * Repulsion:
        kExp                           1.500000    1.000000
        rExp                           1.000000
      * Coulomb:
        alpha                          2.000000
        third order                    shell-resolved
        anisotropic                    true
        a3                             3.000000
        a5                             4.000000
        cn-shift                       1.200000
        cn-exp                         4.000000
        max-rad                        5.000000

      * Solvation model:               ALPB
        Solvent                        hexane
        Parameter file                 internal GFN2-xTB/ALPB
        Dielectric constant                1.8800E+00
        Reference state                gsolv [1 M gas/solution]
        Free energy shift                  4.8134E-03 Eh       3.0204E+00 kcal/mol
        Temperature                        2.9815E+02 K
        Density                            6.6000E-01 kg/L
        Solvent mass                       8.6180E+01 g/mol
        Interaction kernel             P16
        Born radius scaling (c1)           1.1040E+00
        Born radii integrator          GBOBC
        Born offset                        0.0000E+00 a0       0.0000E+00 AA
        H-bond correction              false
        Ion screening                  false
        Surface tension                    1.0000E-05 Eh       1.5569E+01 dyn/cm
        Grid points                               230 per atom

          ...................................................
          :                      SETUP                      :
          :.................................................:
          :  # basis functions                 826          :
          :  # atomic orbitals                 808          :
          :  # shells                          424          :
          :  # electrons                       782          :
          :  max. iterations                   250          :
          :  Hamiltonian                  GFN2-xTB          :
          :  restarted?                      false          :
          :  GBSA solvation                   true          :
          :  PC potential                    false          :
          :  electronic temp.          300.0000000     K    :
          :  accuracy                    1.0000000          :
          :  -> integral cutoff          0.2500000E+02      :
          :  -> integral neglect         0.1000000E-07      :
          :  -> SCF convergence          0.1000000E-05 Eh   :
          :  -> wf. convergence          0.1000000E-03 e    :
          :  Broyden damping             0.4000000          :
          ...................................................

 iter      E             dE          RMSdq      gap      omega  full diag
   1   -432.6216894 -0.432622E+03  0.436E+00    0.90       0.0  T
   2   -432.9010990 -0.279410E+00  0.244E+00    0.89       1.0  T
   3   -432.8331038  0.679953E-01  0.944E-01    0.93       1.0  T
   4   -432.9375694 -0.104466E+00  0.404E-01    0.89       1.0  T
   5   -432.9466507 -0.908128E-02  0.207E-01    0.91       1.0  T
   6   -432.9503207 -0.367000E-02  0.108E-01    0.89       1.0  T
   7   -432.9520331 -0.171249E-02  0.439E-02    0.90       1.0  T
   8   -432.9522502 -0.217020E-03  0.221E-02    0.90       1.0  T
   9   -432.9522584 -0.822734E-05  0.141E-02    0.90       1.0  T
  10   -432.9522779 -0.195524E-04  0.664E-03    0.90       1.0  T
  11   -432.9522848 -0.689588E-05  0.236E-03    0.90       2.7  T
  12   -432.9522851 -0.273475E-06  0.125E-03    0.90       5.0  T
  13   -432.9522852 -0.542447E-07  0.519E-04    0.90      12.2  T
  14   -432.9522852 -0.180009E-07  0.219E-04    0.90      28.9  T

   *** convergence criteria satisfied after 14 iterations ***

         #    Occupation            Energy/Eh            Energy/eV
      -------------------------------------------------------------
         1        2.0000           -0.8322101             -22.6456
       ...           ...                  ...                  ...
       385        2.0000           -0.3685519             -10.0288
       386        2.0000           -0.3674600              -9.9991
       387        2.0000           -0.3659717              -9.9586
       388        2.0000           -0.3646900              -9.9237
       389        2.0000           -0.3642924              -9.9129
       390        2.0000           -0.3595375              -9.7835
       391        2.0000           -0.3424212              -9.3178 (HOMO)
       392                         -0.3094958              -8.4218 (LUMO)
       393                         -0.3021641              -8.2223
       394                         -0.2920639              -7.9475
       395                         -0.2850341              -7.7562
       396                         -0.2786896              -7.5835
       ...                                ...                  ...
       808                          0.7151431              19.4600
      -------------------------------------------------------------
                  HL-Gap            0.0329254 Eh            0.8959 eV
             Fermi-level           -0.3259587 Eh           -8.8698 eV

 SCC (total)                   0 d,  0 h,  0 min,  1.200 sec
 SCC setup                      ...        0 min,  0.011 sec (  0.926%)
 Dispersion                     ...        0 min,  0.013 sec (  1.111%)
 classical contributions        ...        0 min,  0.001 sec (  0.047%)
 integral evaluation            ...        0 min,  0.058 sec (  4.837%)
 iterations                     ...        0 min,  0.872 sec ( 72.701%)
 molecular gradient             ...        0 min,  0.238 sec ( 19.868%)
 printout                       ...        0 min,  0.006 sec (  0.503%)

         :::::::::::::::::::::::::::::::::::::::::::::::::::::
         ::                     SUMMARY                     ::
         :::::::::::::::::::::::::::::::::::::::::::::::::::::
         :: total energy            -426.763561689875 Eh    ::
         :: total w/o Gsasa/hb      -426.634054461705 Eh    ::
         :: gradient norm              0.019682605385 Eh/a0 ::
         :: HOMO-LUMO gap              0.895944999990 eV    ::
         ::.................................................::
         :: SCC energy              -432.952285189254 Eh    ::
         :: -> isotropic ES            0.169873097995 Eh    ::
         :: -> anisotropic ES          0.015215287405 Eh    ::
         :: -> anisotropic XC          0.152564818910 Eh    ::
         :: -> dispersion             -0.452935678642 Eh    ::
         :: -> Gsolv                  -0.155740735218 Eh    ::
         ::    -> Gelec               -0.026233507048 Eh    ::
         ::    -> Gsasa               -0.134320583990 Eh    ::
         ::    -> Ghb                  0.000000000000 Eh    ::
         ::    -> Gshift               0.004813355820 Eh    ::
         :: repulsion energy           6.168586823505 Eh    ::
         :: add. restraining           0.000000000000 Eh    ::
         :: total charge              -0.000000000027 e     ::
         :::::::::::::::::::::::::::::::::::::::::::::::::::::

           -------------------------------------------------
          |                Property Printout                |
           -------------------------------------------------

    * Orbital Energies and Occupations

         #    Occupation            Energy/Eh            Energy/eV
      -------------------------------------------------------------
         1        2.0000           -0.8322101             -22.6456
       ...           ...                  ...                  ...
       379        2.0000           -0.3761751             -10.2362
       380        2.0000           -0.3755581             -10.2195
       381        2.0000           -0.3732443             -10.1565
       382        2.0000           -0.3711909             -10.1006
       383        2.0000           -0.3702300             -10.0745
       384        2.0000           -0.3698182             -10.0633
       385        2.0000           -0.3685519             -10.0288
       386        2.0000           -0.3674600              -9.9991
       387        2.0000           -0.3659717              -9.9586
       388        2.0000           -0.3646900              -9.9237
       389        2.0000           -0.3642924              -9.9129
       390        2.0000           -0.3595375              -9.7835
       391        2.0000           -0.3424212              -9.3178 (HOMO)
       392                         -0.3094958              -8.4218 (LUMO)
       393                         -0.3021641              -8.2223
       394                         -0.2920639              -7.9475
       395                         -0.2850341              -7.7562
       396                         -0.2786896              -7.5835
       397                         -0.2730164              -7.4292
       398                         -0.2693705              -7.3299
       399                         -0.2652174              -7.2169
       400                         -0.2628884              -7.1536
       401                         -0.2583624              -7.0304
       402                         -0.2566814              -6.9847
       ...                                ...                  ...
       808                          0.7151431              19.4600
      -------------------------------------------------------------
                  HL-Gap            0.0329254 Eh            0.8959 eV
             Fermi-level           -0.3259587 Eh           -8.8698 eV

     #   Z          covCN         q      C6AA      α(0)
     1   6 C        2.934    -0.009    28.235     8.714
     2   6 C        3.071    -0.050    29.159     8.854
     3   6 C        3.140    -0.004    27.881     8.641
     4   6 C        2.989    -0.004    28.114     8.698
     5   6 C        2.978     0.016    27.656     8.626
     6   6 C        2.923    -0.039    28.975     8.827
     7   6 C        2.952    -0.035    28.867     8.812
     8   6 C        2.962     0.036    27.190     8.553
     9  16 S        2.043    -0.185   148.900    20.538
    10   6 C        3.793    -0.000    20.597     6.463
    11   6 C        3.780    -0.100    22.436     6.748
    12   6 C        2.823     0.167    24.396     8.093
    13   9 F        0.787    -0.232    11.575     4.019
    14   6 C        2.925    -0.054    29.336     8.882
    15   6 C        3.005     0.025    27.428     8.591
    16   6 C        3.142    -0.004    27.865     8.638
    17   6 C        2.993    -0.004    28.121     8.699
    18   6 C        2.978     0.014    27.685     8.631
    19   6 C        2.922    -0.038    28.947     8.823
    20   6 C        2.980    -0.039    28.970     8.829
    21   6 C        2.960     0.035    27.210     8.556
    22  16 S        2.045    -0.184   148.843    20.534
    23   6 C        3.793     0.002    20.559     6.457
    24   6 C        3.777    -0.102    22.468     6.753
    25   6 C        2.803     0.164    24.459     8.102
    26   6 C        2.924    -0.052    29.292     8.876
    27   9 F        0.787    -0.240    11.659     4.033
    28   6 C        3.008     0.024    27.447     8.594
    29  16 S        2.247    -0.056   143.365    20.152
    30   6 C        3.071    -0.059    29.390     8.889
    31   6 C        3.013     0.030    27.311     8.572
    32  16 S        2.285    -0.075   144.173    20.209
    33   6 C        3.012     0.029    27.325     8.575
    34   6 C        3.073    -0.057    29.337     8.881
    35   6 C        3.146    -0.003    27.845     8.633
    36   6 C        2.996    -0.003    28.089     8.694
    37   6 C        2.978     0.016    27.652     8.626
    38   6 C        2.922    -0.037    28.919     8.819
    39   6 C        2.978    -0.039    28.958     8.827
    40   6 C        2.960     0.035    27.210     8.556
    41  16 S        2.045    -0.186   148.935    20.540
    42   6 C        3.793     0.001    20.564     6.458
    43   6 C        3.777    -0.102    22.467     6.753
    44   6 C        2.803     0.164    24.449     8.101
    45   9 F        0.787    -0.240    11.658     4.033
    46   6 C        2.924    -0.052    29.280     8.874
    47   6 C        3.010     0.028    27.361     8.580
    48   6 C        3.126     0.001    27.821     8.637
    49   6 C        2.988    -0.005    28.147     8.703
    50   6 C        2.976     0.010    27.778     8.645
    51   6 C        2.925    -0.041    29.008     8.832
    52   6 C        2.941    -0.045    29.109     8.849
    53   6 C        2.961     0.033    27.265     8.565
    54  16 S        2.062    -0.140   146.942    20.402
    55   6 C        3.794    -0.006    20.692     6.478
    56   6 C        3.781    -0.102    22.471     6.753
    57   6 C        2.853     0.159    24.565     8.123
    58   6 C        2.922    -0.055    29.374     8.888
    59   9 F        0.788    -0.238    11.633     4.029
    60   6 C        3.005     0.026    27.417     8.589
    61  16 S        2.293    -0.082   144.463    20.229
    62   6 C        3.074    -0.056    29.299     8.875
    63   6 C        3.019     0.035    27.193     8.554
    64  16 S        2.272    -0.054   143.279    20.146
    65   6 C        3.013     0.031    27.287     8.569
    66   6 C        3.069    -0.052    29.210     8.862
    67   6 C        3.150    -0.001    27.771     8.620
    68   6 C        2.996    -0.001    28.052     8.688
    69   6 C        2.978     0.013    27.721     8.637
    70   6 C        2.924    -0.041    29.009     8.833
    71   6 C        2.943    -0.046    29.141     8.854
    72   6 C        2.961     0.034    27.240     8.561
    73  16 S        2.053    -0.153   147.515    20.442
    74   6 C        3.793    -0.004    20.656     6.472
    75   6 C        3.778    -0.106    22.553     6.766
    76   6 C        2.844     0.164    24.461     8.106
    77   9 F        0.788    -0.233    11.580     4.020
    78   6 C        2.923    -0.049    29.206     8.862
    79   6 C        3.007     0.029    27.344     8.578
    80   6 C        3.137    -0.002    27.846     8.637
    81   6 C        2.991    -0.008    28.212     8.713
    82   6 C        2.977     0.014    27.684     8.631
    83   6 C        2.921    -0.038    28.946     8.823
    84   6 C        2.976    -0.037    28.902     8.819
    85   6 C        2.960     0.035    27.207     8.556
    86  16 S        2.046    -0.189   149.084    20.550
    87   6 C        3.793     0.001    20.567     6.458
    88   6 C        3.779    -0.100    22.434     6.748
    89   6 C        2.804     0.162    24.500     8.109
    90   6 C        2.926    -0.054    29.339     8.883
    91   9 F        0.787    -0.244    11.702     4.041
    92   6 C        3.003     0.028    27.353     8.579
    93  16 S        2.293    -0.061   143.577    20.167
    94   6 C        3.061    -0.060    29.421     8.895
    95   6 C        3.048     0.033    27.207     8.555
    96  16 S        2.392    -0.092   144.876    20.258
    97   6 C        3.018     0.007    27.835     8.654
    98  16 S        2.535    -0.022   141.950    20.053
    99   6 C        2.971     0.018    27.599     8.617
   100   6 C        3.148    -0.007    27.932     8.646
   101   6 C        3.149    -0.011    28.008     8.657
   102   6 C        2.914    -0.050    29.232     8.866
   103   6 C        2.963     0.005    27.912     8.666
   104   6 C        3.759    -0.110    22.659     6.786
   105   6 C        2.867     0.137    25.003     8.196
   106   8 O        1.705    -0.281    18.669     5.834
   107   6 C        3.645     0.036    20.302     6.476
   108   6 C        2.908    -0.079    29.972     8.977
   109   6 C        2.992    -0.044    29.072     8.845
   110   6 C        2.939    -0.046    29.133     8.852
   111   6 C        2.975     0.022    27.499     8.602
   112  16 S        2.354    -0.049   143.094    20.133
   113   6 C        2.971     0.016    27.650     8.625
   114   6 C        3.156    -0.005    27.828     8.626
   115   6 C        3.141    -0.013    28.083     8.672
   116   6 C        2.915    -0.051    29.279     8.873
   117   6 C        2.962     0.006    27.893     8.663
   118   6 C        3.759    -0.113    22.706     6.793
   119   6 C        2.867     0.139    24.958     8.189
   120   8 O        1.706    -0.276    18.576     5.819
   121   6 C        3.645     0.043    20.184     6.457
   122   6 C        2.911    -0.077    29.919     8.969
   123   6 C        2.936    -0.035    28.859     8.810
   124   6 C        2.916    -0.050    29.253     8.869
   125   6 C        2.975     0.040    27.093     8.538
   126   6 C        3.073    -0.066    29.551     8.913
   127   6 C        3.131    -0.006    27.965     8.658
   128   6 C        2.991    -0.010    28.255     8.719
   129   6 C        2.977     0.012    27.747     8.640
   130   6 C        2.921    -0.038    28.948     8.823
   131   6 C        2.989    -0.041    29.003     8.834
   132   6 C        2.959     0.035    27.222     8.558
   133  16 S        2.051    -0.175   148.463    20.507
   134   6 C        3.793     0.002    20.552     6.456
   135   6 C        3.777    -0.100    22.442     6.749
   136   6 C        2.800     0.160    24.522     8.112
   137   9 F        0.787    -0.244    11.703     4.041
   138   6 C        2.925    -0.055    29.363     8.886
   139   6 C        3.006     0.021    27.516     8.605
   140   6 C        3.142    -0.005    27.902     8.644
   141   6 C        2.993    -0.005    28.140     8.702
   142   6 C        2.978     0.020    27.548     8.610
   143   6 C        2.926    -0.031    28.771     8.796
   144   6 C        2.955    -0.028    28.692     8.786
   145   6 C        2.961     0.036    27.192     8.553
   146  16 S        2.026    -0.233   151.021    20.683
   147   6 C        3.793     0.008    20.452     6.440
   148   6 C        3.771    -0.096    22.371     6.740
   149   6 C        2.813     0.166    24.416     8.096
   150   6 C        2.922    -0.053    29.326     8.880
   151   9 F        0.787    -0.237    11.626     4.028
   152   6 C        3.007     0.024    27.459     8.596
   153  16 S        2.271    -0.088   144.721    20.247
   154   6 C        3.074    -0.048    29.113     8.847
   155   6 C        2.932    -0.011    28.293     8.723
   156  16 S        2.253    -0.069   143.940    20.193
   157   1 H        0.926     0.057     2.239     2.340
   158   1 H        0.926     0.052     2.297     2.370
   159   1 H        0.926     0.061     2.190     2.314
   160   1 H        0.926     0.061     2.186     2.312
   161   1 H        0.925     0.048     2.340     2.392
   162   1 H        0.925     0.057     2.236     2.338
   163   1 H        0.925     0.044     2.396     2.420
   164   1 H        0.925     0.052     2.295     2.369
   165   1 H        0.925     0.041     2.436     2.441
   166   1 H        0.926     0.068     2.104     2.268
   167   1 H        0.926     0.056     2.250     2.345
   168   1 H        0.926     0.063     2.161     2.299
   169   1 H        0.925     0.058     2.222     2.331
   170   1 H        0.925     0.062     2.181     2.309
   171   1 H        0.925     0.049     2.331     2.388
   172   1 H        0.925     0.058     2.223     2.332
   173   1 H        0.925     0.037     2.488     2.467
   174   1 H        0.926     0.067     2.118     2.276
   175   1 H        0.926     0.049     2.328     2.386
   176   1 H        0.926     0.049     2.331     2.387
   177   1 H        0.926     0.056     2.242     2.341
   178   1 H        0.926     0.064     2.156     2.296
   179   1 H        0.925     0.058     2.227     2.334
   180   1 H        0.925     0.061     2.183     2.311
   181   1 H        0.925     0.048     2.339     2.392
   182   1 H        0.925     0.037     2.486     2.466
   183   1 H        0.925     0.057     2.230     2.335
   184   1 H        0.926     0.067     2.117     2.275
   185   1 H        0.926     0.058     2.223     2.332
   186   1 H        0.926     0.058     2.222     2.331
   187   1 H        0.925     0.062     2.180     2.309
   188   1 H        0.925     0.055     2.253     2.347
   189   1 H        0.925     0.048     2.351     2.398
   190   1 H        0.925     0.051     2.311     2.377
   191   1 H        0.925     0.046     2.374     2.409
   192   1 H        0.926     0.062     2.179     2.308
   193   1 H        0.926     0.053     2.285     2.364
   194   1 H        0.926     0.049     2.338     2.391
   195   1 H        0.926     0.051     2.311     2.377
   196   1 H        0.926     0.055     2.255     2.348
   197   1 H        0.925     0.061     2.190     2.314
   198   1 H        0.925     0.053     2.287     2.365
   199   1 H        0.925     0.053     2.286     2.364
   200   1 H        0.925     0.048     2.343     2.393
   201   1 H        0.925     0.048     2.340     2.392
   202   1 H        0.926     0.069     2.094     2.263
   203   1 H        0.926     0.063     2.165     2.301
   204   1 H        0.926     0.065     2.141     2.288
   205   1 H        0.925     0.062     2.174     2.306
   206   1 H        0.925     0.057     2.240     2.340
   207   1 H        0.925     0.050     2.318     2.381
   208   1 H        0.925     0.048     2.347     2.396
   209   1 H        0.925     0.041     2.434     2.440
   210   1 H        0.926     0.065     2.141     2.288
   211   1 H        0.926     0.045     2.381     2.413
   212   1 H        0.926     0.045     2.389     2.417
   213   1 H        0.925     0.049     2.332     2.388
   214   1 H        0.925     0.061     2.184     2.311
   215   1 H        0.925     0.061     2.186     2.312
   216   1 H        0.925     0.069     2.101     2.267
   217   1 H        0.924     0.047     2.358     2.401
   218   1 H        0.924     0.046     2.370     2.407
   219   1 H        0.926     0.046     2.376     2.410
   220   1 H        0.926     0.059     2.205     2.322
   221   1 H        0.926     0.045     2.379     2.412
   222   1 H        0.926     0.050     2.324     2.384
   223   1 H        0.925     0.049     2.327     2.386
   224   1 H        0.925     0.071     2.071     2.250
   225   1 H        0.925     0.064     2.156     2.296
   226   1 H        0.925     0.068     2.104     2.268
   227   1 H        0.924     0.037     2.486     2.466
   228   1 H        0.924     0.043     2.413     2.429
   229   1 H        0.926     0.036     2.498     2.471
   230   1 H        0.925     0.048     2.349     2.397
   231   1 H        0.925     0.047     2.356     2.401
   232   1 H        0.926     0.045     2.386     2.416
   233   1 H        0.926     0.056     2.243     2.342
   234   1 H        0.926     0.063     2.167     2.302
   235   1 H        0.925     0.057     2.231     2.336
   236   1 H        0.925     0.063     2.164     2.300
   237   1 H        0.925     0.049     2.327     2.385
   238   1 H        0.925     0.053     2.279     2.361
   239   1 H        0.925     0.045     2.386     2.416
   240   1 H        0.926     0.067     2.114     2.274
   241   1 H        0.926     0.063     2.166     2.301
   242   1 H        0.926     0.076     2.020     2.222
   243   1 H        0.925     0.052     2.295     2.369
   244   1 H        0.925     0.046     2.365     2.405
   245   1 H        0.925     0.040     2.451     2.448
   246   1 H        0.925     0.046     2.367     2.406
   247   1 H        0.925     0.047     2.353     2.399
   248   1 H        0.926     0.064     2.151     2.293
   249   1 H        0.926     0.039     2.460     2.453
   250   1 H        0.926     0.056     2.246     2.344

 Mol. C6AA /au·bohr⁶  :    1115654.080857
 Mol. C8AA /au·bohr⁸  :   32753009.239820
 Mol. α(0) /au        :       1699.307940


Wiberg/Mayer (AO) data.
largest (>0.10) Wiberg bond orders for each atom

 ---------------------------------------------------------------------------
     #   Z sym  total        # sym  WBO       # sym  WBO       # sym  WBO
 ---------------------------------------------------------------------------
     1   6 C    3.931 --     2 C    1.680    29 S    1.150   157 H    0.968
     2   6 C    3.981 --     1 C    1.680     3 C    1.195   158 H    0.959
     3   6 C    3.971 --     4 C    1.295    28 C    1.260     2 C    1.195
     4   6 C    3.980 --    15 C    1.376     3 C    1.295     5 C    1.054
     5   6 C    3.988 --     6 C    1.375    14 C    1.375     4 C    1.054
     6   6 C    3.984 --     7 C    1.457     5 C    1.375   159 H    0.960
     7   6 C    3.987 --     6 C    1.457     8 C    1.393   160 H    0.964
                            14 C    0.100
     8   6 C    3.963 --     7 C    1.393    12 C    1.349     9 S    1.027
     9  16 S    2.178 --     8 C    1.027    10 C    0.972
    10   6 C    3.973 --    11 C    1.027     9 S    0.972   161 H    0.970
                           162 H    0.965
    11   6 C    3.994 --    10 C    1.027   164 H    0.986   165 H    0.985
                           163 H    0.976
    12   6 C    3.879 --    14 C    1.417     8 C    1.349    13 F    0.953
    13   9 F    1.087 --    12 C    0.953
    14   6 C    3.983 --    12 C    1.417     5 C    1.375   166 H    0.961
                             7 C    0.100
    15   6 C    3.945 --     4 C    1.376    16 C    1.251    32 S    1.096
    16   6 C    3.982 --    17 C    1.290    15 C    1.251    30 C    1.221
    17   6 C    3.962 --    28 C    1.381    16 C    1.290    18 C    1.042
    18   6 C    3.985 --    26 C    1.387    19 C    1.370    17 C    1.042
    19   6 C    3.987 --    20 C    1.469    18 C    1.370   167 H    0.966
    20   6 C    3.987 --    19 C    1.469    21 C    1.375   168 H    0.965
                            26 C    0.101
    21   6 C    3.963 --    20 C    1.375    25 C    1.351    22 S    1.047
    22  16 S    2.225 --    21 C    1.047    23 C    0.970
    23   6 C    3.967 --    24 C    1.028   170 H    0.972    22 S    0.970
                           169 H    0.968
    24   6 C    3.993 --    23 C    1.028   173 H    0.985   172 H    0.980
                           171 H    0.977
    25   6 C    3.876 --    26 C    1.410    21 C    1.351    27 F    0.944
    26   6 C    3.981 --    25 C    1.410    18 C    1.387   174 H    0.962
                            20 C    0.101
    27   9 F    1.076 --    25 C    0.944
    28   6 C    3.952 --    17 C    1.381     3 C    1.260    29 S    1.102
    29  16 S    2.531 --     1 C    1.150    28 C    1.102
    30   6 C    3.957 --    31 C    1.552    16 C    1.221   175 H    0.956
    31   6 C    3.940 --    30 C    1.552    33 C    1.146    32 S    1.090
    32  16 S    2.503 --    15 C    1.096    31 C    1.090
    33   6 C    3.934 --    34 C    1.548    31 C    1.146    61 S    1.090
    34   6 C    3.958 --    33 C    1.548    35 C    1.226   176 H    0.956
    35   6 C    3.971 --    36 C    1.281    60 C    1.251    34 C    1.226
    36   6 C    3.961 --    47 C    1.393    35 C    1.281    37 C    1.041
    37   6 C    3.985 --    46 C    1.387    38 C    1.371    36 C    1.041
    38   6 C    3.986 --    39 C    1.467    37 C    1.371   177 H    0.966
    39   6 C    3.987 --    38 C    1.467    40 C    1.377   178 H    0.965
                            46 C    0.101
    40   6 C    3.963 --    39 C    1.377    44 C    1.352    41 S    1.043
    41  16 S    2.218 --    40 C    1.043    42 C    0.970
    42   6 C    3.967 --    43 C    1.028   180 H    0.973    41 S    0.970
                           179 H    0.969
    43   6 C    3.993 --    42 C    1.028   182 H    0.985   183 H    0.981
                           181 H    0.977
    44   6 C    3.876 --    46 C    1.411    40 C    1.352    45 F    0.944
    45   9 F    1.076 --    44 C    0.944
    46   6 C    3.981 --    44 C    1.411    37 C    1.387   184 H    0.962
                            39 C    0.101
    47   6 C    3.946 --    36 C    1.393    48 C    1.240    64 S    1.102
    48   6 C    3.970 --    49 C    1.280    47 C    1.240    62 C    1.234
    49   6 C    3.961 --    60 C    1.380    48 C    1.280    50 C    1.056
    50   6 C    3.986 --    51 C    1.376    58 C    1.361    49 C    1.056
    51   6 C    3.983 --    52 C    1.453    50 C    1.376   185 H    0.962
    52   6 C    3.986 --    51 C    1.453    53 C    1.379   186 H    0.961
    53   6 C    3.960 --    52 C    1.379    57 C    1.326    54 S    1.069
    54  16 S    2.286 --    53 C    1.069    55 C    0.983
    55   6 C    3.973 --    56 C    1.026    54 S    0.983   188 H    0.969
                           187 H    0.969
    56   6 C    3.992 --    55 C    1.026   191 H    0.985   189 H    0.981
                           190 H    0.978
    57   6 C    3.874 --    58 C    1.434    53 C    1.326    59 F    0.944
    58   6 C    3.983 --    57 C    1.434    50 C    1.361   192 H    0.956
    59   9 F    1.082 --    57 C    0.944
    60   6 C    3.943 --    49 C    1.380    35 C    1.251    61 S    1.092
    61  16 S    2.502 --    60 C    1.092    33 C    1.090
    62   6 C    3.953 --    63 C    1.537    48 C    1.234   193 H    0.955
    63   6 C    3.931 --    62 C    1.537    65 C    1.141    64 S    1.102
    64  16 S    2.505 --    63 C    1.102    47 C    1.102
    65   6 C    3.925 --    66 C    1.547    63 C    1.141    93 S    1.082
    66   6 C    3.960 --    65 C    1.547    67 C    1.230   194 H    0.959
    67   6 C    3.961 --    68 C    1.272    92 C    1.247    66 C    1.230
    68   6 C    3.963 --    79 C    1.406    67 C    1.272    69 C    1.038
    69   6 C    3.987 --    70 C    1.386    78 C    1.372    68 C    1.038
    70   6 C    3.986 --    71 C    1.450    69 C    1.386   195 H    0.967
    71   6 C    3.987 --    70 C    1.450    72 C    1.383   196 H    0.961
    72   6 C    3.963 --    71 C    1.383    76 C    1.329    73 S    1.062
    73  16 S    2.272 --    72 C    1.062    74 C    0.982
    74   6 C    3.973 --    75 C    1.026    73 S    0.982   198 H    0.969
                           197 H    0.969
    75   6 C    3.992 --    74 C    1.026   199 H    0.986   201 H    0.984
                           200 H    0.979
    76   6 C    3.878 --    78 C    1.428    72 C    1.329    77 F    0.950
    77   9 F    1.087 --    76 C    0.950
    78   6 C    3.982 --    76 C    1.428    69 C    1.372   202 H    0.960
    79   6 C    3.935 --    68 C    1.406    80 C    1.237    96 S    1.080
    80   6 C    3.969 --    81 C    1.274    79 C    1.237    94 C    1.237
    81   6 C    3.948 --    92 C    1.382    80 C    1.274    82 C    1.050
    82   6 C    3.984 --    90 C    1.376    83 C    1.374    81 C    1.050
    83   6 C    3.982 --    84 C    1.463    82 C    1.374   203 H    0.961
    84   6 C    3.987 --    83 C    1.463    85 C    1.381   204 H    0.966
                            90 C    0.100
    85   6 C    3.960 --    84 C    1.381    89 C    1.350    86 S    1.041
    86  16 S    2.204 --    85 C    1.041    87 C    0.971
    87   6 C    3.968 --    88 C    1.028   205 H    0.973    86 S    0.971
                           206 H    0.969
    88   6 C    3.994 --    87 C    1.028   207 H    0.986   209 H    0.985
                           208 H    0.978
    89   6 C    3.875 --    90 C    1.418    85 C    1.350    91 F    0.941
    90   6 C    3.982 --    89 C    1.418    82 C    1.376   210 H    0.963
                            84 C    0.100
    91   9 F    1.071 --    89 C    0.941
    92   6 C    3.945 --    81 C    1.382    67 C    1.247    93 S    1.096
    93  16 S    2.496 --    92 C    1.096    65 C    1.082
    94   6 C    3.937 --    95 C    1.498    80 C    1.237   211 H    0.956
    95   6 C    3.930 --    94 C    1.498    97 C    1.203    96 S    1.071
    96  16 S    2.465 --    79 C    1.080    95 C    1.071
    97   6 C    3.893 --   101 C    1.306    95 C    1.203    98 S    1.140
    98  16 S    2.603 --    97 C    1.140    99 C    1.126
    99   6 C    3.913 --   100 C    1.300   109 C    1.247    98 S    1.126
   100   6 C    3.962 --    99 C    1.300   108 C    1.268   101 C    1.197
   101   6 C    3.971 --    97 C    1.306   102 C    1.258   100 C    1.197
   102   6 C    3.980 --   103 C    1.556   101 C    1.258   212 H    0.962
   103   6 C    3.973 --   102 C    1.556   105 C    1.198   104 C    1.033
   104   6 C    3.992 --   103 C    1.033   213 H    0.985   215 H    0.966
                           214 H    0.966
   105   6 C    3.919 --   108 C    1.487   103 C    1.198   106 O    1.064
   106   8 O    2.220 --   105 C    1.064   107 C    0.979
   107   6 C    3.939 --   106 O    0.979   216 H    0.979   218 H    0.976
                           217 H    0.975
   108   6 C    3.974 --   105 C    1.487   100 C    1.268   219 H    0.959
   109   6 C    3.953 --   110 C    1.567    99 C    1.247   220 H    0.952
   110   6 C    3.943 --   109 C    1.567   111 C    1.232   221 H    0.955
   111   6 C    3.921 --   115 C    1.311   110 C    1.232   112 S    1.146
   112  16 S    2.578 --   111 C    1.146   113 C    1.134
   113   6 C    3.894 --   114 C    1.332   123 C    1.187   112 S    1.134
   114   6 C    3.982 --   113 C    1.332   122 C    1.243   115 C    1.197
   115   6 C    3.962 --   111 C    1.311   116 C    1.248   114 C    1.197
   116   6 C    3.981 --   117 C    1.564   115 C    1.248   222 H    0.956
   117   6 C    3.971 --   116 C    1.564   119 C    1.184   118 C    1.035
   118   6 C    3.990 --   117 C    1.035   223 H    0.984   225 H    0.964
                           224 H    0.961
   119   6 C    3.924 --   122 C    1.498   117 C    1.184   120 O    1.065
   120   8 O    2.228 --   119 C    1.065   121 C    0.982
   121   6 C    3.942 --   120 O    0.982   226 H    0.978   228 H    0.976
                           227 H    0.975
   122   6 C    3.973 --   119 C    1.498   114 C    1.243   229 H    0.960
   123   6 C    3.960 --   124 C    1.663   113 C    1.187   230 H    0.957
   124   6 C    3.948 --   123 C    1.663   125 C    1.167   231 H    0.956
   125   6 C    3.937 --   126 C    1.536   124 C    1.167   153 S    1.084
   126   6 C    3.946 --   125 C    1.536   127 C    1.228   232 H    0.959
   127   6 C    3.981 --   128 C    1.287   152 C    1.244   126 C    1.228
   128   6 C    3.959 --   139 C    1.380   127 C    1.287   129 C    1.046
   129   6 C    3.985 --   138 C    1.383   130 C    1.366   128 C    1.046
   130   6 C    3.985 --   131 C    1.472   129 C    1.366   233 H    0.965
   131   6 C    3.987 --   130 C    1.472   132 C    1.363   234 H    0.966
   132   6 C    3.963 --   131 C    1.363   136 C    1.348   133 S    1.060
   133  16 S    2.251 --   132 C    1.060   134 C    0.972
   134   6 C    3.967 --   135 C    1.027   133 S    0.972   236 H    0.972
                           235 H    0.968
   135   6 C    3.992 --   134 C    1.027   238 H    0.985   239 H    0.984
                           237 H    0.977
   136   6 C    3.875 --   138 C    1.412   132 C    1.348   137 F    0.940
   137   9 F    1.070 --   136 C    0.940
   138   6 C    3.981 --   136 C    1.412   129 C    1.383   240 H    0.960
   139   6 C    3.950 --   128 C    1.380   140 C    1.263   156 S    1.092
   140   6 C    3.969 --   141 C    1.298   139 C    1.263   154 C    1.191
   141   6 C    3.979 --   152 C    1.381   140 C    1.298   142 C    1.042
   142   6 C    3.987 --   150 C    1.385   143 C    1.382   141 C    1.042
   143   6 C    3.984 --   144 C    1.450   142 C    1.382   241 H    0.960
   144   6 C    3.985 --   143 C    1.450   145 C    1.402   242 H    0.961
                           150 C    0.103
   145   6 C    3.962 --   144 C    1.402   149 C    1.361   146 S    1.000
   146  16 S    2.114 --   145 C    1.000   147 C    0.964
   147   6 C    3.973 --   148 C    1.027   244 H    0.976   243 H    0.967
                           146 S    0.964
   148   6 C    3.994 --   147 C    1.027   246 H    0.984   247 H    0.983
                           245 H    0.977
   149   6 C    3.878 --   150 C    1.408   145 C    1.361   151 F    0.950
   150   6 C    3.983 --   149 C    1.408   142 C    1.385   248 H    0.963
                           144 C    0.103
   151   9 F    1.080 --   149 C    0.950
   152   6 C    3.949 --   141 C    1.381   127 C    1.244   153 S    1.103
   153  16 S    2.522 --   152 C    1.103   125 C    1.084
   154   6 C    3.982 --   155 C    1.686   140 C    1.191   249 H    0.957
   155   6 C    3.930 --   154 C    1.686   156 S    1.141   250 H    0.965
   156  16 S    2.522 --   155 C    1.141   139 C    1.092
   157   1 H    0.996 --     1 C    0.968
   158   1 H    0.997 --     2 C    0.959
   159   1 H    0.996 --     6 C    0.960
   160   1 H    0.996 --     7 C    0.964
   161   1 H    0.998 --    10 C    0.970
   162   1 H    0.996 --    10 C    0.965
   163   1 H    0.998 --    11 C    0.976
   164   1 H    0.997 --    11 C    0.986
   165   1 H    0.998 --    11 C    0.985
   166   1 H    0.995 --    14 C    0.961
   167   1 H    0.997 --    19 C    0.966
   168   1 H    0.995 --    20 C    0.965
   169   1 H    0.996 --    23 C    0.968
   170   1 H    0.996 --    23 C    0.972
   171   1 H    0.997 --    24 C    0.977
   172   1 H    0.997 --    24 C    0.980
   173   1 H    0.999 --    24 C    0.985
   174   1 H    0.995 --    26 C    0.962
   175   1 H    0.997 --    30 C    0.956
   176   1 H    0.997 --    34 C    0.956
   177   1 H    0.997 --    38 C    0.966
   178   1 H    0.995 --    39 C    0.965
   179   1 H    0.996 --    42 C    0.969
   180   1 H    0.996 --    42 C    0.973
   181   1 H    0.997 --    43 C    0.977
   182   1 H    0.999 --    43 C    0.985
   183   1 H    0.997 --    43 C    0.981
   184   1 H    0.995 --    46 C    0.962
   185   1 H    0.997 --    51 C    0.962
   186   1 H    0.996 --    52 C    0.961
   187   1 H    0.996 --    55 C    0.969
   188   1 H    0.997 --    55 C    0.969
   189   1 H    0.998 --    56 C    0.981
   190   1 H    0.997 --    56 C    0.978
   191   1 H    0.998 --    56 C    0.985
   192   1 H    0.996 --    58 C    0.956
   193   1 H    0.997 --    62 C    0.955
   194   1 H    0.997 --    66 C    0.959
   195   1 H    0.997 --    70 C    0.967
   196   1 H    0.996 --    71 C    0.961
   197   1 H    0.996 --    74 C    0.969
   198   1 H    0.997 --    74 C    0.969
   199   1 H    0.997 --    75 C    0.986
   200   1 H    0.997 --    75 C    0.979
   201   1 H    0.998 --    75 C    0.984
   202   1 H    0.995 --    78 C    0.960
   203   1 H    0.996 --    83 C    0.961
   204   1 H    0.995 --    84 C    0.966
   205   1 H    0.996 --    87 C    0.973
   206   1 H    0.996 --    87 C    0.969
   207   1 H    0.997 --    88 C    0.986
   208   1 H    0.997 --    88 C    0.978
   209   1 H    0.998 --    88 C    0.985
   210   1 H    0.996 --    90 C    0.963
   211   1 H    0.997 --    94 C    0.956
   212   1 H    0.997 --   102 C    0.962
   213   1 H    0.997 --   104 C    0.985
   214   1 H    0.992 --   104 C    0.966
   215   1 H    0.992 --   104 C    0.966
   216   1 H    0.995 --   107 C    0.979
   217   1 H    0.997 --   107 C    0.975
   218   1 H    0.997 --   107 C    0.976
   219   1 H    0.997 --   108 C    0.959
   220   1 H    0.996 --   109 C    0.952
   221   1 H    0.995 --   110 C    0.955
   222   1 H    0.996 --   116 C    0.956
   223   1 H    0.997 --   118 C    0.984
   224   1 H    0.990 --   118 C    0.961
   225   1 H    0.991 --   118 C    0.964
   226   1 H    0.995 --   121 C    0.978
   227   1 H    0.998 --   121 C    0.975
   228   1 H    0.998 --   121 C    0.976
   229   1 H    0.998 --   122 C    0.960
   230   1 H    0.993 --   123 C    0.957
   231   1 H    0.996 --   124 C    0.956
   232   1 H    0.997 --   126 C    0.959
   233   1 H    0.996 --   130 C    0.965
   234   1 H    0.995 --   131 C    0.966
   235   1 H    0.996 --   134 C    0.968
   236   1 H    0.996 --   134 C    0.972
   237   1 H    0.997 --   135 C    0.977
   238   1 H    0.997 --   135 C    0.985
   239   1 H    0.998 --   135 C    0.984
   240   1 H    0.995 --   138 C    0.960
   241   1 H    0.996 --   143 C    0.960
   242   1 H    0.994 --   144 C    0.961
   243   1 H    0.996 --   147 C    0.967
   244   1 H    0.998 --   147 C    0.976
   245   1 H    0.998 --   148 C    0.977
   246   1 H    0.998 --   148 C    0.984
   247   1 H    0.998 --   148 C    0.983
   248   1 H    0.996 --   150 C    0.963
   249   1 H    0.998 --   154 C    0.957
   250   1 H    0.996 --   155 C    0.965
 ---------------------------------------------------------------------------

Topologies differ in bond orders
Writing corrected topology to xtbtopo.mol

molecular dipole:
                 x           y           z       tot (Debye)
 q only:        0.205      -1.218      -1.290
   full:       -0.251      -1.041      -1.510       4.704
molecular quadrupole (traceless):
                xx          xy          yy          xz          yz          zz
 q only:        2.220      51.434      39.671      12.003       5.279     -41.891
  q+dip:       -5.078      53.886      43.370      22.250       4.318     -38.292
   full:       -6.057      59.628      46.356      21.165       0.068     -40.299


           -------------------------------------------------
          | TOTAL ENERGY             -426.763561689875 Eh   |
          | GRADIENT NORM               0.019682605385 Eh/α |
          | HOMO-LUMO GAP               0.895944999990 eV   |
           -------------------------------------------------

------------------------------------------------------------------------
 * finished run on 2022/03/04 at 07:06:34.245     
------------------------------------------------------------------------
 total:
 * wall-time:     0 d,  0 h,  0 min,  1.350 sec
 *  cpu-time:     0 d,  0 h,  0 min, 10.671 sec
 * ratio c/w:     7.904 speedup
 SCF:
 * wall-time:     0 d,  0 h,  0 min,  1.204 sec
 *  cpu-time:     0 d,  0 h,  0 min,  9.608 sec
 * ratio c/w:     7.982 speedup

