      -----------------------------------------------------------      
     |                   =====================                   |     
     |                           x T B                           |     
     |                   =====================                   |     
     |                         S. Grimme                         |     
     |          Mulliken Center for Theoretical Chemistry        |     
     |                    University of Bonn                     |     
      -----------------------------------------------------------      

   * xtb version 6.4.1 (unknown) compiled by 'oda6@login1.crc.pitt.edu' on 2021-06-25

   xtb is free software: you can redistribute it and/or modify it under
   the terms of the GNU Lesser General Public License as published by
   the Free Software Foundation, either version 3 of the License, or
   (at your option) any later version.
   
   xtb is distributed in the hope that it will be useful,
   but WITHOUT ANY WARRANTY; without even the implied warranty of
   MERCHANTABILITY or FITNESS FOR A PARTICULAR PURPOSE.  See the
   GNU Lesser General Public License for more details.
   
   Cite this work as:
   * C. Bannwarth, E. Caldeweyher, S. Ehlert, A. Hansen, P. Pracht,
     J. Seibert, S. Spicher, S. Grimme, WIREs Comput. Mol. Sci., 2020, 11,
     e01493. DOI: 10.1002/wcms.1493
   
   for GFN2-xTB:
   * C. Bannwarth, S. Ehlert and S. Grimme., J. Chem. Theory Comput., 2019,
     15, 1652-1671. DOI: 10.1021/acs.jctc.8b01176
   for GFN1-xTB:
   * S. Grimme, C. Bannwarth, P. Shushkov, J. Chem. Theory Comput., 2017,
     13, 1989-2009. DOI: 10.1021/acs.jctc.7b00118
   for GFN0-xTB:
   * P. Pracht, E. Caldeweyher, S. Ehlert, S. Grimme, ChemRxiv, 2019, preprint.
     DOI: 10.26434/chemrxiv.8326202.v1
   for GFN-FF:
   * S. Spicher and S. Grimme, Angew. Chem. Int. Ed., 2020, 59, 15665-15673.
     DOI: 10.1002/anie.202004239
   
   for DFT-D4:
   * E. Caldeweyher, C. Bannwarth and S. Grimme, J. Chem. Phys., 2017,
     147, 034112. DOI: 10.1063/1.4993215
   * E. Caldeweyher, S. Ehlert, A. Hansen, H. Neugebauer, S. Spicher,
     C. Bannwarth and S. Grimme, J. Chem. Phys., 2019, 150, 154122.
     DOI: 10.1063/1.5090222
   * E. Caldeweyher, J.-M. Mewes, S. Ehlert and S. Grimme, Phys. Chem. Chem. Phys.
     2020, 22, 8499-8512. DOI: 10.1039/D0CP00502A
   
   for sTDA-xTB:
   * S. Grimme and C. Bannwarth, J. Chem. Phys., 2016, 145, 054103.
     DOI: 10.1063/1.4959605
   
   in the mass-spec context:
   * V. Asgeirsson, C. Bauer and S. Grimme, Chem. Sci., 2017, 8, 4879.
     DOI: 10.1039/c7sc00601b
   * J. Koopman and S. Grimme, ACS Omega 2019, 4, 12, 15120-15133.
     DOI: 10.1021/acsomega.9b02011
   
   for metadynamics refer to:
   * S. Grimme, J. Chem. Theory Comput., 2019, 155, 2847-2862
     DOI: 10.1021/acs.jctc.9b00143
   
   for SPH calculations refer to:
   * S. Spicher and S. Grimme, J. Chem. Theory Comput., 2021, 17, 1701-1714
     DOI: 10.1021/acs.jctc.0c01306
   
   with help from (in alphabetical order)
   P. Atkinson, C. Bannwarth, F. Bohle, G. Brandenburg, E. Caldeweyher
   M. Checinski, S. Dohm, S. Ehlert, S. Ehrlich, I. Gerasimov, J. Koopman
   C. Lavigne, S. Lehtola, F. März, M. Müller, F. Musil, H. Neugebauer
   J. Pisarek, C. Plett, P. Pracht, J. Seibert, P. Shushkov, S. Spicher
   M. Stahn, M. Steiner, T. Strunk, J. Stückrath, T. Rose, and J. Unsleber
   
 * started run on 2022/03/04 at 05:03:08.002     

           -------------------------------------------------
          |                Calculation Setup                |
           -------------------------------------------------

          program call               : /ihome/ghutchison/oda6/xtb/xtb-641/bin/xtb ../../GFN2_output/687_184_001111.mol --sp --alpb hexane
          hostname                   : smp-n90
          coordinate file            : ../../GFN2_output/687_184_001111.mol
          omp threads                :                     8
          number of atoms            :                   130
          number of electrons        :                   406
          charge                     :                     0
          spin                       :                   0.0
          first test random number   :      0.00863798974744

   ID    Z sym.   atoms
    1    6 C      1, 3-9, 11-15, 17-23, 25-33, 35-38, 40-47, 49-52, 54-61,
                  63-66, 68-75, 77-80, 82-84
    2   16 S      2, 16, 34, 39, 48, 53, 62, 67, 76, 81
    3    8 O      10, 24
    4    1 H      85-130

           -------------------------------------------------
          |                 G F N 2 - x T B                 |
           -------------------------------------------------

        Reference                      10.1021/acs.jctc.8b01176
      * Hamiltonian:
        H0-scaling (s, p, d)           1.850000    2.230000    2.230000
        zeta-weighting                 0.500000
      * Dispersion:
        s8                             2.700000
        a1                             0.520000
        a2                             5.000000
        s9                             5.000000
      * Repulsion:
        kExp                           1.500000    1.000000
        rExp                           1.000000
      * Coulomb:
        alpha                          2.000000
        third order                    shell-resolved
        anisotropic                    true
        a3                             3.000000
        a5                             4.000000
        cn-shift                       1.200000
        cn-exp                         4.000000
        max-rad                        5.000000

      * Solvation model:               ALPB
        Solvent                        hexane
        Parameter file                 internal GFN2-xTB/ALPB
        Dielectric constant                1.8800E+00
        Reference state                gsolv [1 M gas/solution]
        Free energy shift                  4.8134E-03 Eh       3.0204E+00 kcal/mol
        Temperature                        2.9815E+02 K
        Density                            6.6000E-01 kg/L
        Solvent mass                       8.6180E+01 g/mol
        Interaction kernel             P16
        Born radius scaling (c1)           1.1040E+00
        Born radii integrator          GBOBC
        Born offset                        0.0000E+00 a0       0.0000E+00 AA
        H-bond correction              false
        Ion screening                  false
        Surface tension                    1.0000E-05 Eh       1.5569E+01 dyn/cm
        Grid points                               230 per atom

          ...................................................
          :                      SETUP                      :
          :.................................................:
          :  # basis functions                 442          :
          :  # atomic orbitals                 432          :
          :  # shells                          224          :
          :  # electrons                       406          :
          :  max. iterations                   250          :
          :  Hamiltonian                  GFN2-xTB          :
          :  restarted?                      false          :
          :  GBSA solvation                   true          :
          :  PC potential                    false          :
          :  electronic temp.          300.0000000     K    :
          :  accuracy                    1.0000000          :
          :  -> integral cutoff          0.2500000E+02      :
          :  -> integral neglect         0.1000000E-07      :
          :  -> SCF convergence          0.1000000E-05 Eh   :
          :  -> wf. convergence          0.1000000E-03 e    :
          :  Broyden damping             0.4000000          :
          ...................................................

 iter      E             dE          RMSdq      gap      omega  full diag
   1   -221.5164985 -0.221516E+03  0.428E+00    0.78       0.0  T
   2   -221.5982329 -0.817344E-01  0.264E+00    0.48       1.0  T
   3   -221.4391379  0.159095E+00  0.162E+00    0.91       1.0  T
   4   -221.6871843 -0.248046E+00  0.338E-01    0.65       1.0  T
   5   -221.6877733 -0.589037E-03  0.198E-01    0.65       1.0  T
   6   -221.6904715 -0.269813E-02  0.885E-02    0.63       1.0  T
   7   -221.6910751 -0.603621E-03  0.399E-02    0.63       1.0  T
   8   -221.6911907 -0.115551E-03  0.202E-02    0.64       1.0  T
   9   -221.6912120 -0.213088E-04  0.115E-02    0.63       1.0  T
  10   -221.6912166 -0.462453E-05  0.664E-03    0.63       1.3  T
  11   -221.6912190 -0.244529E-05  0.322E-03    0.64       2.7  T
  12   -221.6912197 -0.624627E-06  0.150E-03    0.64       5.9  T
  13   -221.6912197 -0.445821E-07  0.940E-04    0.64       9.3  T
  14   -221.6912197 -0.373587E-07  0.366E-04    0.64      23.9  T

   *** convergence criteria satisfied after 14 iterations ***

         #    Occupation            Energy/Eh            Energy/eV
      -------------------------------------------------------------
         1        2.0000           -0.7399873             -20.1361
       ...           ...                  ...                  ...
       197        2.0000           -0.3752959             -10.2123
       198        2.0000           -0.3703803             -10.0786
       199        2.0000           -0.3614954              -9.8368
       200        2.0000           -0.3561964              -9.6926
       201        2.0000           -0.3464302              -9.4268
       202        2.0000           -0.3378544              -9.1935
       203        2.0000           -0.3316196              -9.0238 (HOMO)
       204        0.0000           -0.3082662              -8.3884 (LUMO)
       205                         -0.2985183              -8.1231
       206                         -0.2907340              -7.9113
       207                         -0.2851124              -7.7583
       208                         -0.2825241              -7.6879
       ...                                ...                  ...
       432                          0.7416415              20.1811
      -------------------------------------------------------------
                  HL-Gap            0.0233534 Eh            0.6355 eV
             Fermi-level           -0.3199422 Eh           -8.7061 eV

 SCC (total)                   0 d,  0 h,  0 min,  0.360 sec
 SCC setup                      ...        0 min,  0.003 sec (  0.876%)
 Dispersion                     ...        0 min,  0.005 sec (  1.442%)
 classical contributions        ...        0 min,  0.000 sec (  0.048%)
 integral evaluation            ...        0 min,  0.021 sec (  5.962%)
 iterations                     ...        0 min,  0.270 sec ( 75.123%)
 molecular gradient             ...        0 min,  0.058 sec ( 16.112%)
 printout                       ...        0 min,  0.001 sec (  0.413%)

         :::::::::::::::::::::::::::::::::::::::::::::::::::::
         ::                     SUMMARY                     ::
         :::::::::::::::::::::::::::::::::::::::::::::::::::::
         :: total energy            -218.178682925920 Eh    ::
         :: total w/o Gsasa/hb      -218.106826977665 Eh    ::
         :: gradient norm              0.007462886443 Eh/a0 ::
         :: HOMO-LUMO gap              0.635478597000 eV    ::
         ::.................................................::
         :: SCC energy              -221.691219739586 Eh    ::
         :: -> isotropic ES            0.043585935422 Eh    ::
         :: -> anisotropic ES          0.015531479903 Eh    ::
         :: -> anisotropic XC          0.088629759370 Eh    ::
         :: -> dispersion             -0.246731412334 Eh    ::
         :: -> Gsolv                  -0.078209070920 Eh    ::
         ::    -> Gelec               -0.006353122665 Eh    ::
         ::    -> Gsasa               -0.076669304075 Eh    ::
         ::    -> Ghb                  0.000000000000 Eh    ::
         ::    -> Gshift               0.004813355820 Eh    ::
         :: repulsion energy           3.501137932903 Eh    ::
         :: add. restraining           0.000000000000 Eh    ::
         :: total charge               0.000000000000 e     ::
         :::::::::::::::::::::::::::::::::::::::::::::::::::::

           -------------------------------------------------
          |                Property Printout                |
           -------------------------------------------------

    * Orbital Energies and Occupations

         #    Occupation            Energy/Eh            Energy/eV
      -------------------------------------------------------------
         1        2.0000           -0.7399873             -20.1361
       ...           ...                  ...                  ...
       191        2.0000           -0.3965885             -10.7917
       192        2.0000           -0.3860957             -10.5062
       193        2.0000           -0.3850097             -10.4766
       194        2.0000           -0.3827257             -10.4145
       195        2.0000           -0.3810027             -10.3676
       196        2.0000           -0.3779726             -10.2852
       197        2.0000           -0.3752959             -10.2123
       198        2.0000           -0.3703803             -10.0786
       199        2.0000           -0.3614954              -9.8368
       200        2.0000           -0.3561964              -9.6926
       201        2.0000           -0.3464302              -9.4268
       202        2.0000           -0.3378544              -9.1935
       203        2.0000           -0.3316196              -9.0238 (HOMO)
       204        0.0000           -0.3082662              -8.3884 (LUMO)
       205                         -0.2985183              -8.1231
       206                         -0.2907340              -7.9113
       207                         -0.2851124              -7.7583
       208                         -0.2825241              -7.6879
       209                         -0.2754639              -7.4958
       210                         -0.2715505              -7.3893
       211                         -0.2655654              -7.2264
       212                         -0.2547799              -6.9329
       213                         -0.2438958              -6.6367
       214                         -0.2293000              -6.2396
       ...                                ...                  ...
       432                          0.7416415              20.1811
      -------------------------------------------------------------
                  HL-Gap            0.0233534 Eh            0.6355 eV
             Fermi-level           -0.3199422 Eh           -8.7061 eV

     #   Z          covCN         q      C6AA      α(0)
     1   6 C        2.928    -0.026    28.641     8.777
     2  16 S        2.297    -0.010   141.456    20.018
     3   6 C        2.975     0.012    27.732     8.638
     4   6 C        3.161    -0.008    27.896     8.634
     5   6 C        3.157    -0.006    27.859     8.630
     6   6 C        2.914    -0.046    29.145     8.853
     7   6 C        2.963     0.002    27.975     8.675
     8   6 C        3.759    -0.104    22.534     6.768
     9   6 C        2.869     0.138    24.979     8.193
    10   8 O        1.705    -0.280    18.643     5.830
    11   6 C        3.646     0.043    20.173     6.454
    12   6 C        2.907    -0.078    29.941     8.972
    13   6 C        2.932    -0.039    28.957     8.825
    14   6 C        2.939    -0.048    29.203     8.863
    15   6 C        2.978     0.028    27.378     8.583
    16  16 S        2.333    -0.059   143.514    20.163
    17   6 C        2.964     0.010    27.784     8.646
    18   6 C        3.151    -0.007    27.917     8.642
    19   6 C        3.145    -0.015    28.112     8.675
    20   6 C        2.916    -0.047    29.161     8.855
    21   6 C        2.963     0.001    28.011     8.681
    22   6 C        3.758    -0.110    22.655     6.786
    23   6 C        2.867     0.137    25.000     8.196
    24   8 O        1.705    -0.283    18.702     5.839
    25   6 C        3.644     0.037    20.287     6.474
    26   6 C        2.909    -0.081    30.034     8.986
    27   6 C        2.916    -0.042    29.053     8.839
    28   6 C        2.969    -0.058    29.436     8.899
    29   6 C        2.943     0.037    27.172     8.549
    30   6 C        2.944    -0.042    29.042     8.839
    31   6 C        3.080    -0.008    28.130     8.695
    32   6 C        3.087    -0.003    27.996     8.673
    33   6 C        2.889    -0.001    28.051     8.683
    34  16 S        2.125    -0.017   141.761    20.039
    35   6 C        3.098    -0.001    27.927     8.660
    36   6 C        3.249    -0.017    27.402     8.475
    37   6 C        3.065    -0.048    29.123     8.849
    38   6 C        2.949    -0.018    28.449     8.748
    39  16 S        2.230    -0.057   143.400    20.155
    40   6 C        3.034    -0.022    28.520     8.760
    41   6 C        2.901    -0.035    28.876     8.811
    42   6 C        2.959    -0.056    29.382     8.891
    43   6 C        2.948     0.034    27.236     8.560
    44   6 C        2.941    -0.044    29.091     8.846
    45   6 C        3.073    -0.009    28.169     8.702
    46   6 C        3.092    -0.003    27.980     8.670
    47   6 C        2.888    -0.002    28.071     8.686
    48  16 S        2.102    -0.005   141.265    20.004
    49   6 C        3.090    -0.000    27.931     8.663
    50   6 C        3.267    -0.018    27.171     8.412
    51   6 C        3.065    -0.048    29.127     8.850
    52   6 C        2.951    -0.017    28.427     8.745
    53  16 S        2.231    -0.062   143.648    20.172
    54   6 C        3.022    -0.023    28.555     8.765
    55   6 C        2.893    -0.036    28.885     8.812
    56   6 C        2.968    -0.058    29.431     8.899
    57   6 C        2.943     0.033    27.251     8.562
    58   6 C        2.938    -0.041    29.023     8.836
    59   6 C        3.081    -0.012    28.231     8.711
    60   6 C        3.088    -0.005    28.049     8.681
    61   6 C        2.888    -0.002    28.066     8.686
    62  16 S        2.123    -0.028   142.199    20.070
    63   6 C        3.100    -0.002    27.946     8.663
    64   6 C        3.246    -0.015    27.366     8.474
    65   6 C        3.064    -0.047    29.088     8.844
    66   6 C        2.949    -0.018    28.450     8.748
    67  16 S        2.225    -0.072   144.029    20.199
    68   6 C        3.031    -0.024    28.564     8.766
    69   6 C        2.902    -0.036    28.889     8.813
    70   6 C        2.959    -0.053    29.321     8.882
    71   6 C        2.948     0.029    27.344     8.577
    72   6 C        2.941    -0.043    29.064     8.842
    73   6 C        3.078    -0.013    28.252     8.714
    74   6 C        3.095    -0.006    28.047     8.680
    75   6 C        2.889     0.001    28.015     8.678
    76  16 S        2.113    -0.039   142.661    20.103
    77   6 C        3.102    -0.002    27.936     8.661
    78   6 C        3.243    -0.016    27.428     8.488
    79   6 C        3.068    -0.047    29.098     8.845
    80   6 C        2.947    -0.018    28.465     8.750
    81  16 S        2.222    -0.067   143.844    20.186
    82   6 C        3.034    -0.024    28.576     8.768
    83   6 C        2.890    -0.030    28.749     8.791
    84   6 C        2.838    -0.099    30.492     9.049
    85   1 H        0.926     0.049     2.335     2.389
    86   1 H        0.926     0.044     2.395     2.420
    87   1 H        0.925     0.051     2.310     2.377
    88   1 H        0.925     0.047     2.358     2.402
    89   1 H        0.925     0.057     2.236     2.338
    90   1 H        0.925     0.064     2.151     2.293
    91   1 H        0.924     0.042     2.416     2.431
    92   1 H        0.924     0.046     2.370     2.407
    93   1 H        0.926     0.043     2.411     2.428
    94   1 H        0.925     0.059     2.216     2.328
    95   1 H        0.926     0.051     2.302     2.372
    96   1 H        0.926     0.045     2.382     2.414
    97   1 H        0.925     0.058     2.221     2.331
    98   1 H        0.925     0.048     2.347     2.396
    99   1 H        0.925     0.058     2.222     2.331
   100   1 H        0.925     0.067     2.118     2.276
   101   1 H        0.924     0.046     2.376     2.411
   102   1 H        0.924     0.045     2.383     2.414
   103   1 H        0.926     0.038     2.474     2.460
   104   1 H        0.925     0.048     2.350     2.397
   105   1 H        0.925     0.044     2.402     2.424
   106   1 H        0.926     0.066     2.134     2.284
   107   1 H        0.926     0.067     2.120     2.277
   108   1 H        0.926     0.037     2.486     2.466
   109   1 H        0.926     0.049     2.326     2.385
   110   1 H        0.925     0.048     2.344     2.394
   111   1 H        0.926     0.043     2.415     2.430
   112   1 H        0.926     0.050     2.316     2.380
   113   1 H        0.926     0.063     2.162     2.299
   114   1 H        0.926     0.039     2.457     2.451
   115   1 H        0.926     0.045     2.381     2.413
   116   1 H        0.925     0.042     2.420     2.433
   117   1 H        0.925     0.038     2.474     2.460
   118   1 H        0.926     0.056     2.241     2.341
   119   1 H        0.926     0.063     2.161     2.299
   120   1 H        0.926     0.050     2.324     2.384
   121   1 H        0.926     0.044     2.392     2.419
   122   1 H        0.925     0.037     2.495     2.470
   123   1 H        0.926     0.042     2.422     2.434
   124   1 H        0.925     0.045     2.378     2.412
   125   1 H        0.926     0.061     2.183     2.311
   126   1 H        0.926     0.039     2.466     2.456
   127   1 H        0.926     0.044     2.397     2.421
   128   1 H        0.925     0.028     2.612     2.527
   129   1 H        0.926     0.027     2.629     2.536
   130   1 H        0.926     0.035     2.521     2.483

 Mol. C6AA /au·bohr⁶  :     334592.753917
 Mol. C8AA /au·bohr⁸  :   10003680.293012
 Mol. α(0) /au        :        942.272970


Wiberg/Mayer (AO) data.
largest (>0.10) Wiberg bond orders for each atom

 ---------------------------------------------------------------------------
     #   Z sym  total        # sym  WBO       # sym  WBO       # sym  WBO
 ---------------------------------------------------------------------------
     1   6 C    3.867 --     5 C    1.436     2 S    1.237    85 H    0.968
     2  16 S    2.635 --     1 C    1.237     3 C    1.122
     3   6 C    3.932 --     4 C    1.303    13 C    1.276     2 S    1.122
     4   6 C    3.955 --     3 C    1.303    12 C    1.271     5 C    1.181
     5   6 C    3.986 --     1 C    1.436     6 C    1.214     4 C    1.181
     6   6 C    3.971 --     7 C    1.589     5 C    1.214    86 H    0.964
     7   6 C    3.985 --     6 C    1.589     9 C    1.185     8 C    1.029
     8   6 C    3.994 --     7 C    1.029    88 H    0.985    89 H    0.969
                            87 H    0.968
     9   6 C    3.897 --    12 C    1.489     7 C    1.185    10 O    1.065
    10   8 O    2.217 --     9 C    1.065    11 C    0.978
    11   6 C    3.939 --    10 O    0.978    90 H    0.976    91 H    0.975
                            92 H    0.974
    12   6 C    3.976 --     9 C    1.489     4 C    1.271    93 H    0.958
    13   6 C    3.929 --    14 C    1.544     3 C    1.276    94 H    0.942
    14   6 C    3.961 --    13 C    1.544    15 C    1.272    95 H    0.952
    15   6 C    3.917 --    19 C    1.285    14 C    1.272    16 S    1.137
    16  16 S    2.602 --    15 C    1.137    17 C    1.114
    17   6 C    3.898 --    27 C    1.276    18 C    1.275    16 S    1.114
    18   6 C    3.969 --    17 C    1.275    26 C    1.275    19 C    1.215
    19   6 C    3.958 --    15 C    1.285    20 C    1.262    18 C    1.215
    20   6 C    3.978 --    21 C    1.553    19 C    1.262    96 H    0.963
    21   6 C    3.960 --    20 C    1.553    23 C    1.204    22 C    1.031
    22   6 C    3.993 --    21 C    1.031    98 H    0.985    99 H    0.968
                            97 H    0.968
    23   6 C    3.908 --    26 C    1.482    21 C    1.204    24 O    1.061
    24   8 O    2.216 --    23 C    1.061    25 C    0.981
    25   6 C    3.940 --    24 O    0.981   100 H    0.979   102 H    0.976
                           101 H    0.976
    26   6 C    3.969 --    23 C    1.482    18 C    1.275   103 H    0.958
    27   6 C    3.935 --    28 C    1.562    17 C    1.276   104 H    0.951
    28   6 C    3.913 --    27 C    1.562    29 C    1.213   105 H    0.959
    29   6 C    3.895 --    30 C    1.462    28 C    1.213    34 S    1.054
    30   6 C    3.953 --    29 C    1.462    31 C    1.330   106 H    0.939
    31   6 C    3.946 --    30 C    1.330    40 C    1.319    32 C    1.067
    32   6 C    3.979 --    33 C    1.577    35 C    1.169    31 C    1.067
    33   6 C    3.941 --    32 C    1.577    34 S    1.191   107 H    0.958
    34  16 S    2.544 --    33 C    1.191    29 C    1.054
    35   6 C    3.907 --    36 C    1.364    32 C    1.169    39 S    1.138
    36   6 C    3.974 --    35 C    1.364    37 C    1.240    40 C    1.141
    37   6 C    3.979 --    38 C    1.634    36 C    1.240   108 H    0.958
    38   6 C    3.927 --    37 C    1.634    39 S    1.170   109 H    0.969
    39  16 S    2.573 --    38 C    1.170    35 C    1.138
    40   6 C    3.929 --    31 C    1.319    41 C    1.232    36 C    1.141
    41   6 C    3.939 --    42 C    1.600    40 C    1.232   110 H    0.947
    42   6 C    3.914 --    41 C    1.600    43 C    1.209   111 H    0.954
    43   6 C    3.929 --    44 C    1.463    42 C    1.209    48 S    1.067
    44   6 C    3.938 --    43 C    1.463    45 C    1.317   112 H    0.947
    45   6 C    3.962 --    54 C    1.337    44 C    1.317    46 C    1.064
    46   6 C    3.983 --    47 C    1.579    49 C    1.169    45 C    1.064
    47   6 C    3.944 --    46 C    1.579    48 S    1.186   113 H    0.959
    48  16 S    2.605 --    47 C    1.186    43 C    1.067
    49   6 C    3.911 --    50 C    1.370    46 C    1.169    53 S    1.135
    50   6 C    3.976 --    49 C    1.370    51 C    1.241    54 C    1.135
    51   6 C    3.979 --    52 C    1.634    50 C    1.241   114 H    0.962
    52   6 C    3.926 --    51 C    1.634    53 S    1.169   115 H    0.971
    53  16 S    2.588 --    52 C    1.169    49 C    1.135
    54   6 C    3.930 --    45 C    1.337    55 C    1.212    50 C    1.135
    55   6 C    3.928 --    56 C    1.609    54 C    1.212   116 H    0.958
    56   6 C    3.931 --    55 C    1.609    57 C    1.201   117 H    0.961
    57   6 C    3.892 --    58 C    1.467    56 C    1.201    62 S    1.053
    58   6 C    3.969 --    57 C    1.467    59 C    1.320   118 H    0.944
    59   6 C    3.946 --    68 C    1.332    58 C    1.320    60 C    1.065
    60   6 C    3.980 --    61 C    1.578    63 C    1.171    59 C    1.065
    61   6 C    3.943 --    60 C    1.578    62 S    1.190   119 H    0.959
    62  16 S    2.566 --    61 C    1.190    57 C    1.053
    63   6 C    3.910 --    64 C    1.365    60 C    1.171    67 S    1.133
    64   6 C    3.975 --    63 C    1.365    65 C    1.240    68 C    1.140
    65   6 C    3.979 --    66 C    1.636    64 C    1.240   120 H    0.956
    66   6 C    3.926 --    65 C    1.636    67 S    1.164   121 H    0.971
    67  16 S    2.584 --    66 C    1.164    63 C    1.133
    68   6 C    3.948 --    59 C    1.332    69 C    1.222    64 C    1.140
    69   6 C    3.939 --    70 C    1.614    68 C    1.222   122 H    0.946
    70   6 C    3.916 --    69 C    1.614    71 C    1.196   123 H    0.954
    71   6 C    3.910 --    72 C    1.490    70 C    1.196    76 S    1.051
    72   6 C    3.935 --    71 C    1.490    73 C    1.297   124 H    0.949
    73   6 C    3.979 --    82 C    1.381    72 C    1.297    74 C    1.055
    74   6 C    3.986 --    75 C    1.584    77 C    1.174    73 C    1.055
    75   6 C    3.947 --    74 C    1.584    76 S    1.186   125 H    0.958
    76  16 S    2.595 --    75 C    1.186    71 C    1.051
    77   6 C    3.912 --    78 C    1.358    74 C    1.174    81 S    1.135
    78   6 C    3.978 --    77 C    1.358    79 C    1.238    82 C    1.149
    79   6 C    3.978 --    80 C    1.635    78 C    1.238   126 H    0.958
    80   6 C    3.927 --    79 C    1.635    81 S    1.167   127 H    0.971
    81  16 S    2.589 --    80 C    1.167    77 C    1.135
    82   6 C    3.925 --    73 C    1.381    83 C    1.154    78 C    1.149
    83   6 C    3.991 --    84 C    1.829    82 C    1.154   128 H    0.960
    84   6 C    3.897 --    83 C    1.829   129 H    0.980   130 H    0.973
    85   1 H    0.997 --     1 C    0.968
    86   1 H    0.997 --     6 C    0.964
    87   1 H    0.994 --     8 C    0.968
    88   1 H    0.997 --     8 C    0.985
    89   1 H    0.994 --     8 C    0.969
    90   1 H    0.995 --    11 C    0.976
    91   1 H    0.997 --    11 C    0.975
    92   1 H    0.997 --    11 C    0.974
    93   1 H    0.997 --    12 C    0.958
    94   1 H    0.996 --    13 C    0.942
    95   1 H    0.997 --    14 C    0.952
    96   1 H    0.997 --    20 C    0.963
    97   1 H    0.993 --    22 C    0.968
    98   1 H    0.997 --    22 C    0.985
    99   1 H    0.993 --    22 C    0.968
   100   1 H    0.995 --    25 C    0.979
   101   1 H    0.997 --    25 C    0.976
   102   1 H    0.997 --    25 C    0.976
   103   1 H    0.998 --    26 C    0.958
   104   1 H    0.996 --    27 C    0.951
   105   1 H    0.995 --    28 C    0.959
   106   1 H    0.995 --    30 C    0.939
   107   1 H    0.994 --    33 C    0.958
   108   1 H    0.998 --    37 C    0.958
   109   1 H    0.997 --    38 C    0.969
   110   1 H    0.996 --    41 C    0.947
   111   1 H    0.997 --    42 C    0.954
   112   1 H    0.997 --    44 C    0.947
   113   1 H    0.995 --    47 C    0.959
   114   1 H    0.998 --    51 C    0.962
   115   1 H    0.997 --    52 C    0.971
   116   1 H    0.993 --    55 C    0.958
   117   1 H    0.996 --    56 C    0.961
   118   1 H    0.996 --    58 C    0.944
   119   1 H    0.995 --    61 C    0.959
   120   1 H    0.997 --    65 C    0.956
   121   1 H    0.997 --    66 C    0.971
   122   1 H    0.997 --    69 C    0.946
   123   1 H    0.997 --    70 C    0.954
   124   1 H    0.997 --    72 C    0.949
   125   1 H    0.995 --    75 C    0.958
   126   1 H    0.998 --    79 C    0.958
   127   1 H    0.997 --    80 C    0.971
   128   1 H    0.998 --    83 C    0.960
   129   1 H    0.998 --    84 C    0.980
   130   1 H    0.999 --    84 C    0.973
 ---------------------------------------------------------------------------

Topologies differ in bond orders
Writing corrected topology to xtbtopo.mol

molecular dipole:
                 x           y           z       tot (Debye)
 q only:       -1.294      -0.297       2.024
   full:       -0.933      -0.360       1.267       4.103
molecular quadrupole (traceless):
                xx          xy          yy          xz          yz          zz
 q only:        1.219      14.653      -3.791     -10.096     -16.268       2.572
  q+dip:        9.904      16.325      -8.934     -14.959     -19.425      -0.970
   full:       11.899      15.122     -16.612     -14.910     -21.193       4.713


           -------------------------------------------------
          | TOTAL ENERGY             -218.178682925920 Eh   |
          | GRADIENT NORM               0.007462886443 Eh/α |
          | HOMO-LUMO GAP               0.635478597000 eV   |
           -------------------------------------------------

------------------------------------------------------------------------
 * finished run on 2022/03/04 at 05:03:08.450     
------------------------------------------------------------------------
 total:
 * wall-time:     0 d,  0 h,  0 min,  0.448 sec
 *  cpu-time:     0 d,  0 h,  0 min,  3.472 sec
 * ratio c/w:     7.751 speedup
 SCF:
 * wall-time:     0 d,  0 h,  0 min,  0.362 sec
 *  cpu-time:     0 d,  0 h,  0 min,  2.886 sec
 * ratio c/w:     7.976 speedup

