      -----------------------------------------------------------      
     |                   =====================                   |     
     |                           x T B                           |     
     |                   =====================                   |     
     |                         S. Grimme                         |     
     |          Mulliken Center for Theoretical Chemistry        |     
     |                    University of Bonn                     |     
      -----------------------------------------------------------      

   * xtb version 6.4.1 (unknown) compiled by 'oda6@login1.crc.pitt.edu' on 2021-06-25

   xtb is free software: you can redistribute it and/or modify it under
   the terms of the GNU Lesser General Public License as published by
   the Free Software Foundation, either version 3 of the License, or
   (at your option) any later version.
   
   xtb is distributed in the hope that it will be useful,
   but WITHOUT ANY WARRANTY; without even the implied warranty of
   MERCHANTABILITY or FITNESS FOR A PARTICULAR PURPOSE.  See the
   GNU Lesser General Public License for more details.
   
   Cite this work as:
   * C. Bannwarth, E. Caldeweyher, S. Ehlert, A. Hansen, P. Pracht,
     J. Seibert, S. Spicher, S. Grimme, WIREs Comput. Mol. Sci., 2020, 11,
     e01493. DOI: 10.1002/wcms.1493
   
   for GFN2-xTB:
   * C. Bannwarth, S. Ehlert and S. Grimme., J. Chem. Theory Comput., 2019,
     15, 1652-1671. DOI: 10.1021/acs.jctc.8b01176
   for GFN1-xTB:
   * S. Grimme, C. Bannwarth, P. Shushkov, J. Chem. Theory Comput., 2017,
     13, 1989-2009. DOI: 10.1021/acs.jctc.7b00118
   for GFN0-xTB:
   * P. Pracht, E. Caldeweyher, S. Ehlert, S. Grimme, ChemRxiv, 2019, preprint.
     DOI: 10.26434/chemrxiv.8326202.v1
   for GFN-FF:
   * S. Spicher and S. Grimme, Angew. Chem. Int. Ed., 2020, 59, 15665-15673.
     DOI: 10.1002/anie.202004239
   
   for DFT-D4:
   * E. Caldeweyher, C. Bannwarth and S. Grimme, J. Chem. Phys., 2017,
     147, 034112. DOI: 10.1063/1.4993215
   * E. Caldeweyher, S. Ehlert, A. Hansen, H. Neugebauer, S. Spicher,
     C. Bannwarth and S. Grimme, J. Chem. Phys., 2019, 150, 154122.
     DOI: 10.1063/1.5090222
   * E. Caldeweyher, J.-M. Mewes, S. Ehlert and S. Grimme, Phys. Chem. Chem. Phys.
     2020, 22, 8499-8512. DOI: 10.1039/D0CP00502A
   
   for sTDA-xTB:
   * S. Grimme and C. Bannwarth, J. Chem. Phys., 2016, 145, 054103.
     DOI: 10.1063/1.4959605
   
   in the mass-spec context:
   * V. Asgeirsson, C. Bauer and S. Grimme, Chem. Sci., 2017, 8, 4879.
     DOI: 10.1039/c7sc00601b
   * J. Koopman and S. Grimme, ACS Omega 2019, 4, 12, 15120-15133.
     DOI: 10.1021/acsomega.9b02011
   
   for metadynamics refer to:
   * S. Grimme, J. Chem. Theory Comput., 2019, 155, 2847-2862
     DOI: 10.1021/acs.jctc.9b00143
   
   for SPH calculations refer to:
   * S. Spicher and S. Grimme, J. Chem. Theory Comput., 2021, 17, 1701-1714
     DOI: 10.1021/acs.jctc.0c01306
   
   with help from (in alphabetical order)
   P. Atkinson, C. Bannwarth, F. Bohle, G. Brandenburg, E. Caldeweyher
   M. Checinski, S. Dohm, S. Ehlert, S. Ehrlich, I. Gerasimov, J. Koopman
   C. Lavigne, S. Lehtola, F. März, M. Müller, F. Musil, H. Neugebauer
   J. Pisarek, C. Plett, P. Pracht, J. Seibert, P. Shushkov, S. Spicher
   M. Stahn, M. Steiner, T. Strunk, J. Stückrath, T. Rose, and J. Unsleber
   
 * started run on 2022/03/02 at 16:34:09.668     

           -------------------------------------------------
          |                Calculation Setup                |
           -------------------------------------------------

          program call               : /ihome/ghutchison/oda6/xtb/xtb-641/bin/xtb ../../GFN2_output/824_61_000011.mol --sp --alpb hexane
          hostname                   : smp-n90
          coordinate file            : ../../GFN2_output/824_61_000011.mol
          omp threads                :                     8
          number of atoms            :                   154
          number of electrons        :                   522
          charge                     :                     0
          spin                       :                   0.0
          first test random number   :      0.02854708508891

   ID    Z sym.   atoms
    1    6 C      1, 3-7, 9-12, 14-18, 20-23, 25-29, 31-34, 36-40, 42-49,
                  51-54, 56, 58-61, 63-67, 70, 72, 73, 75-79, 81-84, 86,
                  88-91, 93-97, 100, 102, 103
    2   16 S      2, 13, 24, 35, 50, 62, 71, 74, 80, 92, 101, 104
    3    8 O      8, 19, 30, 41
    4   17 Cl     55, 57, 68, 69, 85, 87, 98, 99
    5    1 H      105-154

           -------------------------------------------------
          |                 G F N 2 - x T B                 |
           -------------------------------------------------

        Reference                      10.1021/acs.jctc.8b01176
      * Hamiltonian:
        H0-scaling (s, p, d)           1.850000    2.230000    2.230000
        zeta-weighting                 0.500000
      * Dispersion:
        s8                             2.700000
        a1                             0.520000
        a2                             5.000000
        s9                             5.000000
      * Repulsion:
        kExp                           1.500000    1.000000
        rExp                           1.000000
      * Coulomb:
        alpha                          2.000000
        third order                    shell-resolved
        anisotropic                    true
        a3                             3.000000
        a5                             4.000000
        cn-shift                       1.200000
        cn-exp                         4.000000
        max-rad                        5.000000

      * Solvation model:               ALPB
        Solvent                        hexane
        Parameter file                 internal GFN2-xTB/ALPB
        Dielectric constant                1.8800E+00
        Reference state                gsolv [1 M gas/solution]
        Free energy shift                  4.8134E-03 Eh       3.0204E+00 kcal/mol
        Temperature                        2.9815E+02 K
        Density                            6.6000E-01 kg/L
        Solvent mass                       8.6180E+01 g/mol
        Interaction kernel             P16
        Born radius scaling (c1)           1.1040E+00
        Born radii integrator          GBOBC
        Born offset                        0.0000E+00 a0       0.0000E+00 AA
        H-bond correction              false
        Ion screening                  false
        Surface tension                    1.0000E-05 Eh       1.5569E+01 dyn/cm
        Grid points                               230 per atom

          ...................................................
          :                      SETUP                      :
          :.................................................:
          :  # basis functions                 586          :
          :  # atomic orbitals                 566          :
          :  # shells                          278          :
          :  # electrons                       522          :
          :  max. iterations                   250          :
          :  Hamiltonian                  GFN2-xTB          :
          :  restarted?                      false          :
          :  GBSA solvation                   true          :
          :  PC potential                    false          :
          :  electronic temp.          300.0000000     K    :
          :  accuracy                    1.0000000          :
          :  -> integral cutoff          0.2500000E+02      :
          :  -> integral neglect         0.1000000E-07      :
          :  -> SCF convergence          0.1000000E-05 Eh   :
          :  -> wf. convergence          0.1000000E-03 e    :
          :  Broyden damping             0.4000000          :
          ...................................................

 iter      E             dE          RMSdq      gap      omega  full diag
   1   -292.2568256 -0.292257E+03  0.435E+00    0.70       0.0  T
   2   -292.4209633 -0.164138E+00  0.241E+00    0.69       1.0  T
   3   -292.3170326  0.103931E+00  0.119E+00    0.86       1.0  T
   4   -292.4311608 -0.114128E+00  0.522E-01    0.70       1.0  T
   5   -292.4524736 -0.213128E-01  0.253E-01    0.74       1.0  T
   6   -292.4583500 -0.587643E-02  0.119E-01    0.70       1.0  T
   7   -292.4591607 -0.810674E-03  0.602E-02    0.71       1.0  T
   8   -292.4593639 -0.203167E-03  0.397E-02    0.70       1.0  T
   9   -292.4594080 -0.441444E-04  0.294E-02    0.71       1.0  T
  10   -292.4594444 -0.363676E-04  0.188E-02    0.71       1.0  T
  11   -292.4594661 -0.217192E-04  0.122E-02    0.71       1.0  T
  12   -292.4594747 -0.857972E-05  0.662E-03    0.71       1.2  T
  13   -292.4594773 -0.266048E-05  0.271E-03    0.71       3.0  T
  14   -292.4594778 -0.411099E-06  0.154E-03    0.71       5.2  T
  15   -292.4594778 -0.777685E-07  0.111E-03    0.71       7.3  T
  16   -292.4594779 -0.435364E-07  0.778E-04    0.71      10.4  T
  17   -292.4594779 -0.346701E-07  0.514E-04    0.71      15.7  T

   *** convergence criteria satisfied after 17 iterations ***

         #    Occupation            Energy/Eh            Energy/eV
      -------------------------------------------------------------
         1        2.0000           -1.0711769             -29.1482
       ...           ...                  ...                  ...
       255        2.0000           -0.3877769             -10.5519
       256        2.0000           -0.3811704             -10.3722
       257        2.0000           -0.3736415             -10.1673
       258        2.0000           -0.3711695             -10.1000
       259        2.0000           -0.3664168              -9.9707
       260        2.0000           -0.3584377              -9.7536
       261        2.0000           -0.3370350              -9.1712 (HOMO)
       262        0.0000           -0.3110605              -8.4644 (LUMO)
       263                         -0.2991657              -8.1407
       264                         -0.2879599              -7.8358
       265                         -0.2812947              -7.6544
       266                         -0.2733016              -7.4369
       ...                                ...                  ...
       566                          0.7316688              19.9097
      -------------------------------------------------------------
                  HL-Gap            0.0259745 Eh            0.7068 eV
             Fermi-level           -0.3240478 Eh           -8.8178 eV

 SCC (total)                   0 d,  0 h,  0 min,  0.648 sec
 SCC setup                      ...        0 min,  0.005 sec (  0.755%)
 Dispersion                     ...        0 min,  0.005 sec (  0.836%)
 classical contributions        ...        0 min,  0.000 sec (  0.036%)
 integral evaluation            ...        0 min,  0.029 sec (  4.507%)
 iterations                     ...        0 min,  0.530 sec ( 81.812%)
 molecular gradient             ...        0 min,  0.075 sec ( 11.631%)
 printout                       ...        0 min,  0.003 sec (  0.411%)

         :::::::::::::::::::::::::::::::::::::::::::::::::::::
         ::                     SUMMARY                     ::
         :::::::::::::::::::::::::::::::::::::::::::::::::::::
         :: total energy            -288.712145696262 Eh    ::
         :: total w/o Gsasa/hb      -288.605518668802 Eh    ::
         :: gradient norm              0.013272303854 Eh/a0 ::
         :: HOMO-LUMO gap              0.706803199632 eV    ::
         ::.................................................::
         :: SCC energy              -292.459477913744 Eh    ::
         :: -> isotropic ES            0.106916692716 Eh    ::
         :: -> anisotropic ES         -0.002381086029 Eh    ::
         :: -> anisotropic XC          0.082633226622 Eh    ::
         :: -> dispersion             -0.276399030913 Eh    ::
         :: -> Gsolv                  -0.122379142409 Eh    ::
         ::    -> Gelec               -0.015752114949 Eh    ::
         ::    -> Gsasa               -0.111440383280 Eh    ::
         ::    -> Ghb                  0.000000000000 Eh    ::
         ::    -> Gshift               0.004813355820 Eh    ::
         :: repulsion energy           3.747824321674 Eh    ::
         :: add. restraining           0.000000000000 Eh    ::
         :: total charge              -0.000000000008 e     ::
         :::::::::::::::::::::::::::::::::::::::::::::::::::::

           -------------------------------------------------
          |                Property Printout                |
           -------------------------------------------------

    * Orbital Energies and Occupations

         #    Occupation            Energy/Eh            Energy/eV
      -------------------------------------------------------------
         1        2.0000           -1.0711769             -29.1482
       ...           ...                  ...                  ...
       249        2.0000           -0.3967606             -10.7964
       250        2.0000           -0.3961253             -10.7791
       251        2.0000           -0.3958401             -10.7714
       252        2.0000           -0.3950881             -10.7509
       253        2.0000           -0.3932617             -10.7012
       254        2.0000           -0.3911244             -10.6430
       255        2.0000           -0.3877769             -10.5519
       256        2.0000           -0.3811704             -10.3722
       257        2.0000           -0.3736415             -10.1673
       258        2.0000           -0.3711695             -10.1000
       259        2.0000           -0.3664168              -9.9707
       260        2.0000           -0.3584377              -9.7536
       261        2.0000           -0.3370350              -9.1712 (HOMO)
       262        0.0000           -0.3110605              -8.4644 (LUMO)
       263                         -0.2991657              -8.1407
       264                         -0.2879599              -7.8358
       265                         -0.2812947              -7.6544
       266                         -0.2733016              -7.4369
       267                         -0.2719465              -7.4000
       268                         -0.2634399              -7.1686
       269                         -0.2629991              -7.1566
       270                         -0.2607832              -7.0963
       271                         -0.2528176              -6.8795
       272                         -0.2422399              -6.5917
       ...                                ...                  ...
       566                          0.7316688              19.9097
      -------------------------------------------------------------
                  HL-Gap            0.0259745 Eh            0.7068 eV
             Fermi-level           -0.3240478 Eh           -8.8178 eV

     #   Z          covCN         q      C6AA      α(0)
     1   6 C        2.925    -0.039    28.966     8.826
     2  16 S        2.337    -0.001   141.101    19.993
     3   6 C        3.016     0.008    27.822     8.652
     4   6 C        3.157    -0.014    28.051     8.660
     5   6 C        3.165     0.002    27.640     8.592
     6   6 C        2.912    -0.070    29.739     8.942
     7   6 C        2.859     0.143    24.885     8.177
     8   8 O        1.706    -0.298    18.955     5.878
     9   6 C        3.642     0.040    20.253     6.471
    10   6 C        2.915    -0.064    29.603     8.922
    11   6 C        2.909    -0.037    28.926     8.819
    12   6 C        3.014     0.007    27.850     8.657
    13  16 S        2.361    -0.033   142.423    20.086
    14   6 C        3.005     0.014    27.696     8.633
    15   6 C        3.146    -0.012    28.053     8.665
    16   6 C        3.151    -0.004    27.830     8.629
    17   6 C        2.911    -0.080    30.003     8.982
    18   6 C        2.865     0.145    24.842     8.170
    19   8 O        1.705    -0.289    18.807     5.855
    20   6 C        3.646     0.037    20.276     6.471
    21   6 C        2.917    -0.051    29.267     8.871
    22   6 C        2.911    -0.035    28.882     8.812
    23   6 C        3.005     0.011    27.759     8.643
    24  16 S        2.371    -0.031   142.322    20.079
    25   6 C        3.015     0.011    27.749     8.641
    26   6 C        3.149    -0.010    27.996     8.655
    27   6 C        3.142    -0.002    27.839     8.634
    28   6 C        2.915    -0.067    29.659     8.930
    29   6 C        2.861     0.145    24.844     8.170
    30   8 O        1.706    -0.290    18.820     5.857
    31   6 C        3.643     0.038    20.284     6.475
    32   6 C        2.915    -0.063    29.579     8.918
    33   6 C        2.912    -0.038    28.947     8.822
    34   6 C        3.019     0.011    27.759     8.642
    35  16 S        2.394    -0.009   141.432    20.016
    36   6 C        3.011     0.010    27.781     8.646
    37   6 C        3.145    -0.008    27.950     8.650
    38   6 C        3.146    -0.004    27.850     8.634
    39   6 C        2.910    -0.079    29.971     8.977
    40   6 C        2.865     0.145    24.839     8.169
    41   8 O        1.706    -0.287    18.769     5.849
    42   6 C        3.646     0.037    20.287     6.473
    43   6 C        2.917    -0.048    29.185     8.859
    44   6 C        2.910    -0.035    28.864     8.810
    45   6 C        3.026     0.035    27.179     8.551
    46   6 C        3.063    -0.059    29.395     8.891
    47   6 C        3.138     0.002    27.749     8.621
    48   6 C        3.013    -0.003    28.073     8.691
    49   6 C        3.013     0.007    27.848     8.656
    50  16 S        2.394     0.018   140.308    19.936
    51   6 C        3.009     0.014    27.685     8.631
    52   6 C        3.825    -0.056    21.567     6.608
    53   6 C        3.754    -0.107    22.593     6.778
    54   6 C        3.107     0.064    26.422     8.422
    55  17 Cl       0.948    -0.166   104.366    15.629
    56   6 C        3.101     0.068    26.361     8.414
    57  17 Cl       0.946    -0.163   104.241    15.620
    58   6 C        3.006     0.028    27.363     8.581
    59   6 C        3.138    -0.000    27.794     8.628
    60   6 C        3.014    -0.000    28.018     8.683
    61   6 C        3.012     0.006    27.858     8.658
    62  16 S        2.394     0.022   140.174    19.927
    63   6 C        3.009     0.014    27.679     8.630
    64   6 C        3.824    -0.057    21.585     6.611
    65   6 C        3.754    -0.107    22.600     6.779
    66   6 C        3.110     0.064    26.425     8.422
    67   6 C        3.099     0.069    26.345     8.411
    68  17 Cl       0.945    -0.164   104.302    15.624
    69  17 Cl       0.949    -0.164   104.291    15.624
    70   6 C        3.005     0.029    27.344     8.578
    71  16 S        2.321    -0.066   143.779    20.181
    72   6 C        3.068    -0.052    29.225     8.864
    73   6 C        3.017     0.032    27.255     8.564
    74  16 S        2.315    -0.051   143.172    20.139
    75   6 C        3.016     0.035    27.206     8.556
    76   6 C        3.069    -0.057    29.337     8.881
    77   6 C        3.139     0.001    27.772     8.624
    78   6 C        3.011     0.001    27.988     8.678
    79   6 C        3.013     0.006    27.862     8.659
    80  16 S        2.382     0.011   140.594    19.957
    81   6 C        3.008     0.014    27.678     8.630
    82   6 C        3.825    -0.056    21.567     6.608
    83   6 C        3.754    -0.102    22.511     6.765
    84   6 C        3.111     0.066    26.382     8.414
    85  17 Cl       0.949    -0.165   104.330    15.626
    86   6 C        3.101     0.071    26.300     8.404
    87  17 Cl       0.960    -0.156   104.035    15.604
    88   6 C        3.006     0.027    27.383     8.584
    89   6 C        3.148    -0.001    27.770     8.620
    90   6 C        3.011     0.002    27.975     8.676
    91   6 C        3.014     0.006    27.869     8.660
    92  16 S        2.376     0.014   140.501    19.950
    93   6 C        3.009     0.013    27.706     8.634
    94   6 C        3.823    -0.056    21.570     6.609
    95   6 C        3.754    -0.106    22.591     6.777
    96   6 C        3.111     0.066    26.387     8.415
    97   6 C        3.100     0.070    26.303     8.405
    98  17 Cl       0.958    -0.156   104.051    15.606
    99  17 Cl       0.949    -0.164   104.287    15.623
   100   6 C        3.007     0.029    27.345     8.578
   101  16 S        2.311    -0.046   142.978    20.125
   102   6 C        3.073    -0.050    29.152     8.853
   103   6 C        2.936    -0.007    28.191     8.708
   104  16 S        2.267    -0.042   142.787    20.112
   105   1 H        0.927     0.052     2.300     2.371
   106   1 H        0.926     0.047     2.362     2.403
   107   1 H        0.925     0.066     2.125     2.280
   108   1 H        0.924     0.045     2.385     2.415
   109   1 H        0.924     0.044     2.396     2.421
   110   1 H        0.926     0.041     2.431     2.438
   111   1 H        0.926     0.042     2.420     2.432
   112   1 H        0.926     0.045     2.387     2.416
   113   1 H        0.924     0.045     2.385     2.415
   114   1 H        0.924     0.046     2.372     2.408
   115   1 H        0.925     0.068     2.108     2.270
   116   1 H        0.926     0.056     2.245     2.343
   117   1 H        0.926     0.058     2.220     2.330
   118   1 H        0.926     0.063     2.162     2.299
   119   1 H        0.925     0.069     2.099     2.266
   120   1 H        0.924     0.047     2.359     2.402
   121   1 H        0.924     0.045     2.379     2.412
   122   1 H        0.926     0.045     2.389     2.417
   123   1 H        0.926     0.046     2.370     2.407
   124   1 H        0.926     0.047     2.361     2.403
   125   1 H        0.924     0.047     2.364     2.404
   126   1 H        0.925     0.069     2.097     2.264
   127   1 H        0.924     0.046     2.375     2.410
   128   1 H        0.926     0.057     2.232     2.336
   129   1 H        0.926     0.052     2.290     2.366
   130   1 H        0.926     0.053     2.287     2.365
   131   1 H        0.924     0.065     2.145     2.291
   132   1 H        0.924     0.064     2.154     2.295
   133   1 H        0.925     0.051     2.302     2.372
   134   1 H        0.925     0.046     2.369     2.407
   135   1 H        0.925     0.051     2.311     2.377
   136   1 H        0.924     0.064     2.148     2.292
   137   1 H        0.924     0.066     2.135     2.285
   138   1 H        0.925     0.050     2.318     2.381
   139   1 H        0.925     0.047     2.361     2.403
   140   1 H        0.925     0.052     2.296     2.369
   141   1 H        0.926     0.056     2.251     2.346
   142   1 H        0.926     0.058     2.223     2.332
   143   1 H        0.924     0.065     2.142     2.289
   144   1 H        0.924     0.064     2.154     2.295
   145   1 H        0.925     0.051     2.306     2.375
   146   1 H        0.925     0.047     2.361     2.403
   147   1 H        0.925     0.046     2.372     2.408
   148   1 H        0.924     0.065     2.138     2.286
   149   1 H        0.924     0.063     2.167     2.302
   150   1 H        0.925     0.052     2.301     2.372
   151   1 H        0.925     0.048     2.343     2.394
   152   1 H        0.925     0.048     2.350     2.397
   153   1 H        0.926     0.056     2.245     2.343
   154   1 H        0.926     0.061     2.189     2.314

 Mol. C6AA /au·bohr⁶  :     533764.451239
 Mol. C8AA /au·bohr⁸  :   16728520.626841
 Mol. α(0) /au        :       1174.030374


Wiberg/Mayer (AO) data.
largest (>0.10) Wiberg bond orders for each atom

 ---------------------------------------------------------------------------
     #   Z sym  total        # sym  WBO       # sym  WBO       # sym  WBO
 ---------------------------------------------------------------------------
     1   6 C    3.873 --     5 C    1.432     2 S    1.231   105 H    0.968
                             3 C    0.118
     2  16 S    2.672 --     1 C    1.231     3 C    1.156
     3   6 C    3.942 --     4 C    1.335    12 C    1.197     2 S    1.156
                             1 C    0.118
     4   6 C    3.965 --     3 C    1.335    11 C    1.256     5 C    1.165
     5   6 C    3.986 --     1 C    1.432     6 C    1.242     4 C    1.165
     6   6 C    3.966 --     7 C    1.495     5 C    1.242   106 H    0.966
                            11 C    0.113
     7   6 C    3.926 --     6 C    1.495    10 C    1.234     8 O    1.049
     8   8 O    2.204 --     7 C    1.049     9 C    0.980
     9   6 C    3.940 --     8 O    0.980   107 H    0.979   109 H    0.977
                           108 H    0.976
    10   6 C    3.968 --    11 C    1.579     7 C    1.234   110 H    0.965
    11   6 C    3.989 --    10 C    1.579     4 C    1.256   111 H    0.965
                             6 C    0.113
    12   6 C    3.873 --    16 C    1.311     3 C    1.197    13 S    1.136
    13  16 S    2.622 --    12 C    1.136    14 C    1.128
    14   6 C    3.919 --    15 C    1.286    23 C    1.271    13 S    1.128
    15   6 C    3.961 --    14 C    1.286    22 C    1.262    16 C    1.203
    16   6 C    3.980 --    12 C    1.311    17 C    1.257    15 C    1.203
    17   6 C    3.966 --    18 C    1.486    16 C    1.257   112 H    0.959
    18   6 C    3.915 --    17 C    1.486    21 C    1.230    19 O    1.057
    19   8 O    2.211 --    18 C    1.057    20 C    0.980
    20   6 C    3.939 --    19 O    0.980   115 H    0.979   114 H    0.976
                           113 H    0.976
    21   6 C    3.959 --    22 C    1.584    18 C    1.230   116 H    0.967
    22   6 C    3.980 --    21 C    1.584    15 C    1.262   117 H    0.952
    23   6 C    3.897 --    14 C    1.271    27 C    1.270    24 S    1.127
    24  16 S    2.617 --    25 C    1.136    23 C    1.127
    25   6 C    3.889 --    26 C    1.293    34 C    1.227    24 S    1.136
    26   6 C    3.972 --    25 C    1.293    33 C    1.269    27 C    1.196
    27   6 C    3.967 --    28 C    1.303    23 C    1.270    26 C    1.196
    28   6 C    3.970 --    29 C    1.445    27 C    1.303   118 H    0.950
                            33 C    0.108
    29   6 C    3.908 --    28 C    1.445    32 C    1.259    30 O    1.058
    30   8 O    2.209 --    29 C    1.058    31 C    0.978
    31   6 C    3.938 --   119 H    0.979    30 O    0.978   121 H    0.976
                           120 H    0.976
    32   6 C    3.972 --    33 C    1.558    29 C    1.259   122 H    0.964
    33   6 C    3.976 --    32 C    1.558    26 C    1.269   123 H    0.964
                            28 C    0.108
    34   6 C    3.920 --    38 C    1.298    25 C    1.227    35 S    1.144
    35  16 S    2.619 --    36 C    1.151    34 C    1.144
    36   6 C    3.887 --    37 C    1.318    45 C    1.191    35 S    1.151
    37   6 C    3.973 --    36 C    1.318    44 C    1.245    38 C    1.200
    38   6 C    3.966 --    34 C    1.298    39 C    1.264    37 C    1.200
    39   6 C    3.975 --    40 C    1.482    38 C    1.264   124 H    0.958
                            44 C    0.101
    40   6 C    3.913 --    39 C    1.482    43 C    1.226    41 O    1.060
    41   8 O    2.213 --    40 C    1.060    42 C    0.979
    42   6 C    3.939 --    41 O    0.979   126 H    0.979   125 H    0.976
                           127 H    0.976
    43   6 C    3.977 --    44 C    1.599    40 C    1.226   128 H    0.966
    44   6 C    3.978 --    43 C    1.599    37 C    1.245   129 H    0.961
                            39 C    0.101
    45   6 C    3.932 --    46 C    1.511    36 C    1.191    71 S    1.075
    46   6 C    3.938 --    45 C    1.511    47 C    1.242   130 H    0.956
    47   6 C    3.971 --    48 C    1.269    46 C    1.242    70 C    1.239
    48   6 C    3.937 --    58 C    1.369    47 C    1.269    49 C    1.075
    49   6 C    3.949 --    56 C    1.513    50 S    1.128    48 C    1.075
    50  16 S    2.608 --    51 C    1.157    49 C    1.128
    51   6 C    3.940 --    54 C    1.542    50 S    1.157    52 C    1.027
    52   6 C    3.988 --    51 C    1.027    53 C    0.995   131 H    0.966
                           132 H    0.964
    53   6 C    3.991 --    52 C    0.995   134 H    0.988   135 H    0.986
                           133 H    0.984
    54   6 C    3.903 --    51 C    1.542    56 C    1.220    55 Cl   0.971
    55  17 Cl   1.116 --    54 C    0.971
    56   6 C    3.897 --    49 C    1.513    54 C    1.220    57 Cl   0.974
    57  17 Cl   1.124 --    56 C    0.974
    58   6 C    3.948 --    48 C    1.369    59 C    1.247    74 S    1.109
    59   6 C    3.966 --    60 C    1.263    58 C    1.247    72 C    1.237
    60   6 C    3.951 --    70 C    1.382    59 C    1.263    61 C    1.073
    61   6 C    3.949 --    67 C    1.513    62 S    1.128    60 C    1.073
    62  16 S    2.611 --    63 C    1.160    61 C    1.128
    63   6 C    3.940 --    66 C    1.540    62 S    1.160    64 C    1.026
    64   6 C    3.987 --    63 C    1.026    65 C    0.994   136 H    0.967
                           137 H    0.964
    65   6 C    3.991 --    64 C    0.994   139 H    0.988   138 H    0.987
                           140 H    0.984
    66   6 C    3.903 --    63 C    1.540    67 C    1.220    69 Cl   0.972
    67   6 C    3.891 --    61 C    1.513    66 C    1.220    68 Cl   0.974
    68  17 Cl   1.123 --    67 C    0.974
    69  17 Cl   1.118 --    66 C    0.972
    70   6 C    3.944 --    60 C    1.382    47 C    1.239    71 S    1.106
    71  16 S    2.491 --    70 C    1.106    45 C    1.075
    72   6 C    3.955 --    73 C    1.534    59 C    1.237   141 H    0.958
    73   6 C    3.930 --    72 C    1.534    75 C    1.154    74 S    1.094
    74  16 S    2.515 --    58 C    1.109    73 C    1.094
    75   6 C    3.940 --    76 C    1.538    73 C    1.154   101 S    1.098
    76   6 C    3.952 --    75 C    1.538    77 C    1.231   142 H    0.955
    77   6 C    3.983 --    78 C    1.282   100 C    1.244    76 C    1.231
    78   6 C    3.954 --    88 C    1.365    77 C    1.282    79 C    1.071
    79   6 C    3.948 --    86 C    1.519    80 S    1.123    78 C    1.071
    80  16 S    2.600 --    81 C    1.154    79 C    1.123
    81   6 C    3.941 --    84 C    1.546    80 S    1.154    82 C    1.027
    82   6 C    3.988 --    81 C    1.027    83 C    0.995   143 H    0.965
                           144 H    0.965
    83   6 C    3.991 --    82 C    0.995   147 H    0.988   146 H    0.987
                           145 H    0.984
    84   6 C    3.903 --    81 C    1.546    86 C    1.216    85 Cl   0.972
    85  17 Cl   1.119 --    84 C    0.972
    86   6 C    3.899 --    79 C    1.519    84 C    1.216    87 Cl   0.979
    87  17 Cl   1.134 --    86 C    0.979
    88   6 C    3.955 --    78 C    1.365    89 C    1.257   104 S    1.112
    89   6 C    3.971 --    90 C    1.293    88 C    1.257   102 C    1.197
    90   6 C    3.971 --   100 C    1.367    89 C    1.293    91 C    1.065
    91   6 C    3.948 --    97 C    1.519    92 S    1.127    90 C    1.065
    92  16 S    2.604 --    93 C    1.157    91 C    1.127
    93   6 C    3.942 --    96 C    1.544    92 S    1.157    94 C    1.026
    94   6 C    3.988 --    93 C    1.026    95 C    0.994   149 H    0.970
                           148 H    0.962
    95   6 C    3.991 --    94 C    0.994   152 H    0.988   151 H    0.987
                           150 H    0.984
    96   6 C    3.904 --    93 C    1.544    97 C    1.218    99 Cl   0.973
    97   6 C    3.901 --    91 C    1.519    96 C    1.218    98 Cl   0.979
    98  17 Cl   1.133 --    97 C    0.979
    99  17 Cl   1.119 --    96 C    0.973
   100   6 C    3.949 --    90 C    1.367    77 C    1.244   101 S    1.112
   101  16 S    2.523 --   100 C    1.112    75 C    1.098
   102   6 C    3.980 --   103 C    1.677    89 C    1.197   153 H    0.958
   103   6 C    3.931 --   102 C    1.677   104 S    1.154   154 H    0.968
   104  16 S    2.551 --   103 C    1.154    88 C    1.112
   105   1 H    0.996 --     1 C    0.968
   106   1 H    0.997 --     6 C    0.966
   107   1 H    0.995 --     9 C    0.979
   108   1 H    0.997 --     9 C    0.976
   109   1 H    0.997 --     9 C    0.977
   110   1 H    0.997 --    10 C    0.965
   111   1 H    0.998 --    11 C    0.965
   112   1 H    0.997 --    17 C    0.959
   113   1 H    0.997 --    20 C    0.976
   114   1 H    0.997 --    20 C    0.976
   115   1 H    0.995 --    20 C    0.979
   116   1 H    0.996 --    21 C    0.967
   117   1 H    0.995 --    22 C    0.952
   118   1 H    0.995 --    28 C    0.950
   119   1 H    0.995 --    31 C    0.979
   120   1 H    0.997 --    31 C    0.976
   121   1 H    0.997 --    31 C    0.976
   122   1 H    0.997 --    32 C    0.964
   123   1 H    0.997 --    33 C    0.964
   124   1 H    0.997 --    39 C    0.958
   125   1 H    0.997 --    42 C    0.976
   126   1 H    0.995 --    42 C    0.979
   127   1 H    0.997 --    42 C    0.976
   128   1 H    0.996 --    43 C    0.966
   129   1 H    0.996 --    44 C    0.961
   130   1 H    0.997 --    46 C    0.956
   131   1 H    0.995 --    52 C    0.966
   132   1 H    0.995 --    52 C    0.964
   133   1 H    0.996 --    53 C    0.984
   134   1 H    0.998 --    53 C    0.988
   135   1 H    0.997 --    53 C    0.986
   136   1 H    0.995 --    64 C    0.967
   137   1 H    0.995 --    64 C    0.964
   138   1 H    0.997 --    65 C    0.987
   139   1 H    0.998 --    65 C    0.988
   140   1 H    0.996 --    65 C    0.984
   141   1 H    0.996 --    72 C    0.958
   142   1 H    0.996 --    76 C    0.955
   143   1 H    0.995 --    82 C    0.965
   144   1 H    0.995 --    82 C    0.965
   145   1 H    0.996 --    83 C    0.984
   146   1 H    0.998 --    83 C    0.987
   147   1 H    0.998 --    83 C    0.988
   148   1 H    0.995 --    94 C    0.962
   149   1 H    0.995 --    94 C    0.970
   150   1 H    0.996 --    95 C    0.984
   151   1 H    0.998 --    95 C    0.987
   152   1 H    0.998 --    95 C    0.988
   153   1 H    0.996 --   102 C    0.958
   154   1 H    0.995 --   103 C    0.968
 ---------------------------------------------------------------------------

Topologies differ in bond orders
Writing corrected topology to xtbtopo.mol

molecular dipole:
                 x           y           z       tot (Debye)
 q only:        0.752      -3.107       1.360
   full:        0.144      -2.008       1.811       6.883
molecular quadrupole (traceless):
                xx          xy          yy          xz          yz          zz
 q only:       33.137     -19.026    -106.138       5.590      41.885      73.001
  q+dip:       30.135       2.342     -78.966      22.952       4.522      48.831
   full:       27.168      -1.391     -72.112      21.600       2.977      44.944


           -------------------------------------------------
          | TOTAL ENERGY             -288.712145696262 Eh   |
          | GRADIENT NORM               0.013272303854 Eh/α |
          | HOMO-LUMO GAP               0.706803199632 eV   |
           -------------------------------------------------

------------------------------------------------------------------------
 * finished run on 2022/03/02 at 16:34:10.743     
------------------------------------------------------------------------
 total:
 * wall-time:     0 d,  0 h,  0 min,  1.074 sec
 *  cpu-time:     0 d,  0 h,  0 min,  6.876 sec
 * ratio c/w:     6.401 speedup
 SCF:
 * wall-time:     0 d,  0 h,  0 min,  0.650 sec
 *  cpu-time:     0 d,  0 h,  0 min,  5.190 sec
 * ratio c/w:     7.982 speedup

