      -----------------------------------------------------------      
     |                   =====================                   |     
     |                           x T B                           |     
     |                   =====================                   |     
     |                         S. Grimme                         |     
     |          Mulliken Center for Theoretical Chemistry        |     
     |                    University of Bonn                     |     
      -----------------------------------------------------------      

   * xtb version 6.4.1 (unknown) compiled by 'oda6@login1.crc.pitt.edu' on 2021-06-25

   xtb is free software: you can redistribute it and/or modify it under
   the terms of the GNU Lesser General Public License as published by
   the Free Software Foundation, either version 3 of the License, or
   (at your option) any later version.
   
   xtb is distributed in the hope that it will be useful,
   but WITHOUT ANY WARRANTY; without even the implied warranty of
   MERCHANTABILITY or FITNESS FOR A PARTICULAR PURPOSE.  See the
   GNU Lesser General Public License for more details.
   
   Cite this work as:
   * C. Bannwarth, E. Caldeweyher, S. Ehlert, A. Hansen, P. Pracht,
     J. Seibert, S. Spicher, S. Grimme, WIREs Comput. Mol. Sci., 2020, 11,
     e01493. DOI: 10.1002/wcms.1493
   
   for GFN2-xTB:
   * C. Bannwarth, S. Ehlert and S. Grimme., J. Chem. Theory Comput., 2019,
     15, 1652-1671. DOI: 10.1021/acs.jctc.8b01176
   for GFN1-xTB:
   * S. Grimme, C. Bannwarth, P. Shushkov, J. Chem. Theory Comput., 2017,
     13, 1989-2009. DOI: 10.1021/acs.jctc.7b00118
   for GFN0-xTB:
   * P. Pracht, E. Caldeweyher, S. Ehlert, S. Grimme, ChemRxiv, 2019, preprint.
     DOI: 10.26434/chemrxiv.8326202.v1
   for GFN-FF:
   * S. Spicher and S. Grimme, Angew. Chem. Int. Ed., 2020, 59, 15665-15673.
     DOI: 10.1002/anie.202004239
   
   for DFT-D4:
   * E. Caldeweyher, C. Bannwarth and S. Grimme, J. Chem. Phys., 2017,
     147, 034112. DOI: 10.1063/1.4993215
   * E. Caldeweyher, S. Ehlert, A. Hansen, H. Neugebauer, S. Spicher,
     C. Bannwarth and S. Grimme, J. Chem. Phys., 2019, 150, 154122.
     DOI: 10.1063/1.5090222
   * E. Caldeweyher, J.-M. Mewes, S. Ehlert and S. Grimme, Phys. Chem. Chem. Phys.
     2020, 22, 8499-8512. DOI: 10.1039/D0CP00502A
   
   for sTDA-xTB:
   * S. Grimme and C. Bannwarth, J. Chem. Phys., 2016, 145, 054103.
     DOI: 10.1063/1.4959605
   
   in the mass-spec context:
   * V. Asgeirsson, C. Bauer and S. Grimme, Chem. Sci., 2017, 8, 4879.
     DOI: 10.1039/c7sc00601b
   * J. Koopman and S. Grimme, ACS Omega 2019, 4, 12, 15120-15133.
     DOI: 10.1021/acsomega.9b02011
   
   for metadynamics refer to:
   * S. Grimme, J. Chem. Theory Comput., 2019, 155, 2847-2862
     DOI: 10.1021/acs.jctc.9b00143
   
   for SPH calculations refer to:
   * S. Spicher and S. Grimme, J. Chem. Theory Comput., 2021, 17, 1701-1714
     DOI: 10.1021/acs.jctc.0c01306
   
   with help from (in alphabetical order)
   P. Atkinson, C. Bannwarth, F. Bohle, G. Brandenburg, E. Caldeweyher
   M. Checinski, S. Dohm, S. Ehlert, S. Ehrlich, I. Gerasimov, J. Koopman
   C. Lavigne, S. Lehtola, F. März, M. Müller, F. Musil, H. Neugebauer
   J. Pisarek, C. Plett, P. Pracht, J. Seibert, P. Shushkov, S. Spicher
   M. Stahn, M. Steiner, T. Strunk, J. Stückrath, T. Rose, and J. Unsleber
   
 * started run on 2022/03/02 at 08:11:41.215     

           -------------------------------------------------
          |                Calculation Setup                |
           -------------------------------------------------

          program call               : /ihome/ghutchison/oda6/xtb/xtb-641/bin/xtb ../../GFN2_output/824_330_101111.mol --sp --alpb hexane
          hostname                   : smp-n90
          coordinate file            : ../../GFN2_output/824_330_101111.mol
          omp threads                :                     8
          number of atoms            :                    94
          number of electrons        :                   316
          charge                     :                     0
          spin                       :                   0.0
          first test random number   :      0.34374814444156

   ID    Z sym.   atoms
    1    6 C      1, 2, 6-12, 14-18, 20-24, 28-35, 39-46, 50-57, 61-66
    2    7 N      3, 5, 25, 27, 36, 38, 47, 49, 58, 60
    3   16 S      4, 13, 26, 37, 48, 59
    4    8 O      19
    5    1 H      67-94

           -------------------------------------------------
          |                 G F N 2 - x T B                 |
           -------------------------------------------------

        Reference                      10.1021/acs.jctc.8b01176
      * Hamiltonian:
        H0-scaling (s, p, d)           1.850000    2.230000    2.230000
        zeta-weighting                 0.500000
      * Dispersion:
        s8                             2.700000
        a1                             0.520000
        a2                             5.000000
        s9                             5.000000
      * Repulsion:
        kExp                           1.500000    1.000000
        rExp                           1.000000
      * Coulomb:
        alpha                          2.000000
        third order                    shell-resolved
        anisotropic                    true
        a3                             3.000000
        a5                             4.000000
        cn-shift                       1.200000
        cn-exp                         4.000000
        max-rad                        5.000000

      * Solvation model:               ALPB
        Solvent                        hexane
        Parameter file                 internal GFN2-xTB/ALPB
        Dielectric constant                1.8800E+00
        Reference state                gsolv [1 M gas/solution]
        Free energy shift                  4.8134E-03 Eh       3.0204E+00 kcal/mol
        Temperature                        2.9815E+02 K
        Density                            6.6000E-01 kg/L
        Solvent mass                       8.6180E+01 g/mol
        Interaction kernel             P16
        Born radius scaling (c1)           1.1040E+00
        Born radii integrator          GBOBC
        Born offset                        0.0000E+00 a0       0.0000E+00 AA
        H-bond correction              false
        Ion screening                  false
        Surface tension                    1.0000E-05 Eh       1.5569E+01 dyn/cm
        Grid points                               230 per atom

          ...................................................
          :                      SETUP                      :
          :.................................................:
          :  # basis functions                 328          :
          :  # atomic orbitals                 322          :
          :  # shells                          166          :
          :  # electrons                       316          :
          :  max. iterations                   250          :
          :  Hamiltonian                  GFN2-xTB          :
          :  restarted?                      false          :
          :  GBSA solvation                   true          :
          :  PC potential                    false          :
          :  electronic temp.          300.0000000     K    :
          :  accuracy                    1.0000000          :
          :  -> integral cutoff          0.2500000E+02      :
          :  -> integral neglect         0.1000000E-07      :
          :  -> SCF convergence          0.1000000E-05 Eh   :
          :  -> wf. convergence          0.1000000E-03 e    :
          :  Broyden damping             0.4000000          :
          ...................................................

 iter      E             dE          RMSdq      gap      omega  full diag
   1   -174.3563708 -0.174356E+03  0.440E+00    1.11       0.0  T
   2   -174.5424363 -0.186065E+00  0.270E+00    1.01       1.0  T
   3   -174.5379992  0.443701E-02  0.127E+00    0.99       1.0  T
   4   -174.5855851 -0.475859E-01  0.308E-01    0.91       1.0  T
   5   -174.5884811 -0.289596E-02  0.187E-01    0.96       1.0  T
   6   -174.5899869 -0.150579E-02  0.871E-02    0.94       1.0  T
   7   -174.5903080 -0.321164E-03  0.409E-02    0.95       1.0  T
   8   -174.5904006 -0.925439E-04  0.145E-02    0.95       1.0  T
   9   -174.5904045 -0.390125E-05  0.801E-03    0.95       1.3  T
  10   -174.5904070 -0.246377E-05  0.303E-03    0.95       3.4  T
  11   -174.5904072 -0.208606E-06  0.159E-03    0.95       6.5  T
  12   -174.5904072 -0.552818E-07  0.745E-04    0.95      13.8  T
  13   -174.5904072 -0.168667E-07  0.334E-04    0.95      30.9  T

   *** convergence criteria satisfied after 13 iterations ***

         #    Occupation            Energy/Eh            Energy/eV
      -------------------------------------------------------------
         1        2.0000           -0.7610302             -20.7087
       ...           ...                  ...                  ...
       152        2.0000           -0.3979641             -10.8292
       153        2.0000           -0.3926672             -10.6850
       154        2.0000           -0.3829703             -10.4212
       155        2.0000           -0.3822376             -10.4012
       156        2.0000           -0.3741403             -10.1809
       157        2.0000           -0.3647543              -9.9255
       158        2.0000           -0.3496515              -9.5145 (HOMO)
       159                         -0.3147148              -8.5638 (LUMO)
       160                         -0.3075303              -8.3683
       161                         -0.3060800              -8.3289
       162                         -0.3027989              -8.2396
       163                         -0.2977982              -8.1035
       ...                                ...                  ...
       322                          0.7514922              20.4491
      -------------------------------------------------------------
                  HL-Gap            0.0349368 Eh            0.9507 eV
             Fermi-level           -0.3321835 Eh           -9.0392 eV

 SCC (total)                   0 d,  0 h,  0 min,  0.205 sec
 SCC setup                      ...        0 min,  0.010 sec (  4.670%)
 Dispersion                     ...        0 min,  0.003 sec (  1.360%)
 classical contributions        ...        0 min,  0.000 sec (  0.139%)
 integral evaluation            ...        0 min,  0.011 sec (  5.416%)
 iterations                     ...        0 min,  0.152 sec ( 74.494%)
 molecular gradient             ...        0 min,  0.028 sec ( 13.534%)
 printout                       ...        0 min,  0.001 sec (  0.353%)

         :::::::::::::::::::::::::::::::::::::::::::::::::::::
         ::                     SUMMARY                     ::
         :::::::::::::::::::::::::::::::::::::::::::::::::::::
         :: total energy            -171.999055515717 Eh    ::
         :: total w/o Gsasa/hb      -171.939557252880 Eh    ::
         :: gradient norm              0.009751054922 Eh/a0 ::
         :: HOMO-LUMO gap              0.950677749430 eV    ::
         ::.................................................::
         :: SCC energy              -174.590407237953 Eh    ::
         :: -> isotropic ES            0.129983308228 Eh    ::
         :: -> anisotropic ES          0.008274231482 Eh    ::
         :: -> anisotropic XC          0.102983298826 Eh    ::
         :: -> dispersion             -0.166320719958 Eh    ::
         :: -> Gsolv                  -0.078393176847 Eh    ::
         ::    -> Gelec               -0.018894914010 Eh    ::
         ::    -> Gsasa               -0.064311618657 Eh    ::
         ::    -> Ghb                  0.000000000000 Eh    ::
         ::    -> Gshift               0.004813355820 Eh    ::
         :: repulsion energy           2.587943984162 Eh    ::
         :: add. restraining           0.000000000000 Eh    ::
         :: total charge              -0.000000000013 e     ::
         :::::::::::::::::::::::::::::::::::::::::::::::::::::

           -------------------------------------------------
          |                Property Printout                |
           -------------------------------------------------

    * Orbital Energies and Occupations

         #    Occupation            Energy/Eh            Energy/eV
      -------------------------------------------------------------
         1        2.0000           -0.7610302             -20.7087
       ...           ...                  ...                  ...
       146        2.0000           -0.4076667             -11.0932
       147        2.0000           -0.4063614             -11.0577
       148        2.0000           -0.4061913             -11.0530
       149        2.0000           -0.4050840             -11.0229
       150        2.0000           -0.4022309             -10.9453
       151        2.0000           -0.4011189             -10.9150
       152        2.0000           -0.3979641             -10.8292
       153        2.0000           -0.3926672             -10.6850
       154        2.0000           -0.3829703             -10.4212
       155        2.0000           -0.3822376             -10.4012
       156        2.0000           -0.3741403             -10.1809
       157        2.0000           -0.3647543              -9.9255
       158        2.0000           -0.3496515              -9.5145 (HOMO)
       159                         -0.3147148              -8.5638 (LUMO)
       160                         -0.3075303              -8.3683
       161                         -0.3060800              -8.3289
       162                         -0.3027989              -8.2396
       163                         -0.2977982              -8.1035
       164                         -0.2837744              -7.7219
       165                         -0.2594229              -7.0593
       166                         -0.2536825              -6.9031
       167                         -0.2425164              -6.5992
       168                         -0.2400186              -6.5312
       169                         -0.2246218              -6.1123
       ...                                ...                  ...
       322                          0.7514922              20.4491
      -------------------------------------------------------------
                  HL-Gap            0.0349368 Eh            0.9507 eV
             Fermi-level           -0.3321835 Eh           -9.0392 eV

     #   Z          covCN         q      C6AA      α(0)
     1   6 C        2.907    -0.047    29.155     8.854
     2   6 C        3.350     0.074    23.732     7.677
     3   7 N        1.852    -0.302    28.680     7.937
     4  16 S        2.682     0.372   126.816    18.954
     5   7 N        1.853    -0.299    28.606     7.927
     6   6 C        3.356     0.071    23.671     7.650
     7   6 C        2.958     0.007    27.857     8.657
     8   6 C        2.923    -0.037    28.913     8.818
     9   6 C        2.919    -0.029    28.725     8.789
    10   6 C        2.899    -0.039    28.974     8.826
    11   6 C        2.941    -0.038    28.943     8.823
    12   6 C        2.970     0.017    27.629     8.622
    13  16 S        2.381    -0.015   141.668    20.033
    14   6 C        2.977     0.015    27.661     8.627
    15   6 C        3.157    -0.007    27.878     8.633
    16   6 C        3.157    -0.002    27.756     8.614
    17   6 C        2.913    -0.065    29.608     8.923
    18   6 C        2.861     0.146    24.819     8.166
    19   8 O        1.706    -0.294    18.894     5.869
    20   6 C        3.642     0.038    20.276     6.474
    21   6 C        2.915    -0.061    29.509     8.908
    22   6 C        2.911    -0.031    28.765     8.795
    23   6 C        3.005    -0.006    28.150     8.703
    24   6 C        3.343     0.072    23.920     7.726
    25   7 N        1.853    -0.302    28.666     7.935
    26  16 S        2.673     0.370   126.880    18.958
    27   7 N        1.853    -0.294    28.471     7.908
    28   6 C        3.353     0.071    23.724     7.666
    29   6 C        2.962     0.003    27.952     8.672
    30   6 C        2.921    -0.039    28.967     8.826
    31   6 C        2.925    -0.041    29.017     8.834
    32   6 C        2.901    -0.036    28.894     8.814
    33   6 C        2.903    -0.035    28.879     8.811
    34   6 C        2.961     0.002    27.977     8.676
    35   6 C        3.343     0.070    23.960     7.733
    36   7 N        1.854    -0.299    28.592     7.925
    37  16 S        2.680     0.379   126.552    18.934
    38   7 N        1.852    -0.318    29.096     7.995
    39   6 C        3.345     0.083    23.669     7.680
    40   6 C        2.958     0.013    27.726     8.637
    41   6 C        2.927    -0.039    28.961     8.825
    42   6 C        2.926    -0.040    28.986     8.829
    43   6 C        2.898    -0.031    28.764     8.794
    44   6 C        2.900    -0.034    28.844     8.806
    45   6 C        2.956     0.005    27.909     8.665
    46   6 C        3.337     0.077    23.948     7.748
    47   7 N        1.855    -0.305    28.743     7.946
    48  16 S        2.665     0.370   126.880    18.958
    49   7 N        1.852    -0.307    28.795     7.953
    50   6 C        3.352     0.074    23.694     7.665
    51   6 C        2.963     0.014    27.691     8.631
    52   6 C        2.923    -0.036    28.891     8.815
    53   6 C        2.932    -0.039    28.960     8.826
    54   6 C        2.900    -0.028    28.701     8.784
    55   6 C        2.900    -0.029    28.717     8.787
    56   6 C        2.963     0.011    27.766     8.643
    57   6 C        3.353     0.073    23.703     7.664
    58   7 N        1.853    -0.308    28.825     7.957
    59  16 S        2.664     0.403   125.692    18.869
    60   7 N        1.866    -0.304    28.730     7.945
    61   6 C        3.336     0.065    24.190     7.788
    62   6 C        2.960    -0.003    28.098     8.694
    63   6 C        2.927    -0.039    28.970     8.827
    64   6 C        2.923    -0.037    28.921     8.819
    65   6 C        2.895    -0.033    28.831     8.804
    66   6 C        2.838    -0.091    30.284     9.018
    67   1 H        0.926     0.049     2.330     2.387
    68   1 H        0.926     0.045     2.387     2.416
    69   1 H        0.926     0.043     2.409     2.427
    70   1 H        0.925     0.058     2.220     2.330
    71   1 H        0.925     0.051     2.303     2.373
    72   1 H        0.926     0.047     2.354     2.399
    73   1 H        0.924     0.046     2.364     2.405
    74   1 H        0.925     0.068     2.108     2.271
    75   1 H        0.924     0.048     2.347     2.396
    76   1 H        0.926     0.047     2.357     2.401
    77   1 H        0.926     0.051     2.305     2.374
    78   1 H        0.926     0.050     2.319     2.381
    79   1 H        0.926     0.050     2.317     2.381
    80   1 H        0.926     0.076     2.021     2.223
    81   1 H        0.925     0.046     2.369     2.407
    82   1 H        0.926     0.047     2.360     2.402
    83   1 H        0.926     0.047     2.360     2.402
    84   1 H        0.925     0.050     2.315     2.379
    85   1 H        0.925     0.047     2.358     2.401
    86   1 H        0.926     0.053     2.287     2.365
    87   1 H        0.926     0.050     2.315     2.379
    88   1 H        0.925     0.053     2.279     2.361
    89   1 H        0.925     0.052     2.291     2.367
    90   1 H        0.926     0.051     2.312     2.378
    91   1 H        0.926     0.051     2.306     2.375
    92   1 H        0.925     0.046     2.371     2.408
    93   1 H        0.926     0.064     2.151     2.293
    94   1 H        0.926     0.050     2.319     2.381

 Mol. C6AA /au·bohr⁶  :     179995.680818
 Mol. C8AA /au·bohr⁸  :    5157393.540140
 Mol. α(0) /au        :        682.531094


Wiberg/Mayer (AO) data.
largest (>0.10) Wiberg bond orders for each atom

 ---------------------------------------------------------------------------
     #   Z sym  total        # sym  WBO       # sym  WBO       # sym  WBO
 ---------------------------------------------------------------------------
     1   6 C    3.947 --     9 C    1.542     2 C    1.254    67 H    0.967
                             7 C    0.101
     2   6 C    3.974 --     3 N    1.370     1 C    1.254     6 C    1.165
     3   7 N    3.061 --     4 S    1.431     2 C    1.370     5 N    0.165
     4  16 S    3.185 --     3 N    1.431     5 N    1.424
     5   7 N    3.072 --     4 S    1.424     6 C    1.392     3 N    0.165
     6   6 C    3.969 --     5 N    1.392     7 C    1.193     2 C    1.165
     7   6 C    3.987 --     8 C    1.457     6 C    1.193    10 C    1.128
                             1 C    0.101
     8   6 C    3.984 --     7 C    1.457     9 C    1.332    68 H    0.966
     9   6 C    3.991 --     1 C    1.542     8 C    1.332    69 H    0.969
    10   6 C    3.960 --    11 C    1.693     7 C    1.128    70 H    0.958
    11   6 C    3.949 --    10 C    1.693    12 C    1.176    71 H    0.956
    12   6 C    3.904 --    16 C    1.325    11 C    1.176    13 S    1.159
                            14 C    0.102
    13  16 S    2.648 --    14 C    1.170    12 C    1.159
    14   6 C    3.930 --    15 C    1.343    13 S    1.170    23 C    1.142
                            12 C    0.102
    15   6 C    3.969 --    14 C    1.343    22 C    1.253    16 C    1.181
    16   6 C    3.982 --    12 C    1.325    17 C    1.275    15 C    1.181
    17   6 C    3.975 --    18 C    1.467    16 C    1.275    72 H    0.962
                            22 C    0.111
    18   6 C    3.925 --    17 C    1.467    21 C    1.243    19 O    1.057
    19   8 O    2.212 --    18 C    1.057    20 C    0.977
    20   6 C    3.937 --    74 H    0.979    19 O    0.977    73 H    0.976
                            75 H    0.976
    21   6 C    3.974 --    22 C    1.579    18 C    1.243    76 H    0.964
    22   6 C    3.981 --    21 C    1.579    15 C    1.253    77 H    0.962
                            17 C    0.111
    23   6 C    3.963 --    31 C    1.416    24 C    1.189    14 C    1.142
    24   6 C    3.970 --    25 N    1.389    23 C    1.189    28 C    1.168
    25   7 N    3.067 --    26 S    1.419    24 C    1.389    27 N    0.161
    26  16 S    3.169 --    27 N    1.423    25 N    1.419
    27   7 N    3.068 --    26 S    1.423    28 C    1.394    25 N    0.161
    28   6 C    3.966 --    27 N    1.394    29 C    1.190    24 C    1.168
    29   6 C    3.939 --    30 C    1.417    28 C    1.190    32 C    1.152
    30   6 C    3.959 --    29 C    1.417    31 C    1.389    78 H    0.964
    31   6 C    3.968 --    23 C    1.416    30 C    1.389    79 H    0.963
    32   6 C    3.968 --    33 C    1.687    29 C    1.152    80 H    0.951
    33   6 C    3.955 --    32 C    1.687    34 C    1.158    81 H    0.958
    34   6 C    3.958 --    42 C    1.423    35 C    1.189    33 C    1.158
    35   6 C    3.965 --    36 N    1.388    34 C    1.189    39 C    1.171
    36   7 N    3.079 --    37 S    1.430    35 C    1.388    38 N    0.158
    37  16 S    3.250 --    38 N    1.433    36 N    1.430
    38   7 N    3.063 --    37 S    1.433    39 C    1.372    36 N    0.158
    39   6 C    3.970 --    38 N    1.372    40 C    1.198    35 C    1.171
    40   6 C    3.963 --    41 C    1.440    39 C    1.198    43 C    1.109
    41   6 C    3.973 --    40 C    1.440    42 C    1.376    82 H    0.967
    42   6 C    3.957 --    34 C    1.423    41 C    1.376    83 H    0.966
    43   6 C    3.942 --    44 C    1.739    40 C    1.109    84 H    0.956
    44   6 C    3.952 --    43 C    1.739    45 C    1.134    85 H    0.961
    45   6 C    3.985 --    53 C    1.443    46 C    1.194    44 C    1.134
    46   6 C    3.971 --    47 N    1.386    45 C    1.194    50 C    1.167
    47   7 N    3.082 --    48 S    1.422    46 C    1.386    49 N    0.163
    48  16 S    3.202 --    49 N    1.427    47 N    1.422
    49   7 N    3.065 --    48 S    1.427    50 C    1.381    47 N    0.163
    50   6 C    3.972 --    49 N    1.381    51 C    1.200    46 C    1.167
    51   6 C    3.943 --    52 C    1.466    50 C    1.200    54 C    1.079
    52   6 C    3.985 --    51 C    1.466    53 C    1.358    86 H    0.967
    53   6 C    3.971 --    45 C    1.443    52 C    1.358    87 H    0.966
    54   6 C    3.979 --    55 C    1.802    51 C    1.079    88 H    0.955
    55   6 C    3.978 --    54 C    1.802    56 C    1.085    89 H    0.957
    56   6 C    3.989 --    64 C    1.472    57 C    1.201    55 C    1.085
    57   6 C    3.972 --    58 N    1.372    56 C    1.201    61 C    1.177
    58   7 N    3.075 --    59 S    1.440    57 C    1.372    60 N    0.161
    59  16 S    3.213 --    58 N    1.440    60 N    1.423
    60   7 N    3.083 --    59 S    1.423    61 C    1.368    58 N    0.161
    61   6 C    3.973 --    60 N    1.368    62 C    1.201    57 C    1.177
    62   6 C    3.985 --    63 C    1.461    61 C    1.201    65 C    1.110
    63   6 C    3.990 --    62 C    1.461    64 C    1.350    90 H    0.966
    64   6 C    3.985 --    56 C    1.472    63 C    1.350    91 H    0.967
    65   6 C    3.990 --    66 C    1.873    62 C    1.110    92 H    0.962
    66   6 C    3.976 --    65 C    1.873    94 H    0.977    93 H    0.966
    67   1 H    0.997 --     1 C    0.967
    68   1 H    0.997 --     8 C    0.966
    69   1 H    0.997 --     9 C    0.969
    70   1 H    0.995 --    10 C    0.958
    71   1 H    0.993 --    11 C    0.956
    72   1 H    0.997 --    17 C    0.962
    73   1 H    0.997 --    20 C    0.976
    74   1 H    0.995 --    20 C    0.979
    75   1 H    0.996 --    20 C    0.976
    76   1 H    0.997 --    21 C    0.964
    77   1 H    0.997 --    22 C    0.962
    78   1 H    0.996 --    30 C    0.964
    79   1 H    0.996 --    31 C    0.963
    80   1 H    0.993 --    32 C    0.951
    81   1 H    0.997 --    33 C    0.958
    82   1 H    0.996 --    41 C    0.967
    83   1 H    0.996 --    42 C    0.966
    84   1 H    0.994 --    43 C    0.956
    85   1 H    0.996 --    44 C    0.961
    86   1 H    0.995 --    52 C    0.967
    87   1 H    0.996 --    53 C    0.966
    88   1 H    0.993 --    54 C    0.955
    89   1 H    0.994 --    55 C    0.957
    90   1 H    0.996 --    63 C    0.966
    91   1 H    0.996 --    64 C    0.967
    92   1 H    0.997 --    65 C    0.962
    93   1 H    0.996 --    66 C    0.966
    94   1 H    0.996 --    66 C    0.977
 ---------------------------------------------------------------------------

Topologies differ in bond orders
Writing corrected topology to xtbtopo.mol

molecular dipole:
                 x           y           z       tot (Debye)
 q only:       -1.028      -0.344       0.079
   full:       -1.293      -0.742       0.656       4.140
molecular quadrupole (traceless):
                xx          xy          yy          xz          yz          zz
 q only:      -11.384       2.377       6.718       0.535      14.356       4.666
  q+dip:      -21.046       5.750      10.954       1.398      19.043      10.092
   full:      -26.302       5.666      13.303       7.092      14.066      12.999


           -------------------------------------------------
          | TOTAL ENERGY             -171.999055515717 Eh   |
          | GRADIENT NORM               0.009751054922 Eh/α |
          | HOMO-LUMO GAP               0.950677749430 eV   |
           -------------------------------------------------

------------------------------------------------------------------------
 * finished run on 2022/03/02 at 08:11:41.636     
------------------------------------------------------------------------
 total:
 * wall-time:     0 d,  0 h,  0 min,  0.420 sec
 *  cpu-time:     0 d,  0 h,  0 min,  2.869 sec
 * ratio c/w:     6.822 speedup
 SCF:
 * wall-time:     0 d,  0 h,  0 min,  0.206 sec
 *  cpu-time:     0 d,  0 h,  0 min,  1.627 sec
 * ratio c/w:     7.885 speedup

