      -----------------------------------------------------------      
     |                   =====================                   |     
     |                           x T B                           |     
     |                   =====================                   |     
     |                         S. Grimme                         |     
     |          Mulliken Center for Theoretical Chemistry        |     
     |                    University of Bonn                     |     
      -----------------------------------------------------------      

   * xtb version 6.4.1 (unknown) compiled by 'oda6@login1.crc.pitt.edu' on 2021-06-25

   xtb is free software: you can redistribute it and/or modify it under
   the terms of the GNU Lesser General Public License as published by
   the Free Software Foundation, either version 3 of the License, or
   (at your option) any later version.
   
   xtb is distributed in the hope that it will be useful,
   but WITHOUT ANY WARRANTY; without even the implied warranty of
   MERCHANTABILITY or FITNESS FOR A PARTICULAR PURPOSE.  See the
   GNU Lesser General Public License for more details.
   
   Cite this work as:
   * C. Bannwarth, E. Caldeweyher, S. Ehlert, A. Hansen, P. Pracht,
     J. Seibert, S. Spicher, S. Grimme, WIREs Comput. Mol. Sci., 2020, 11,
     e01493. DOI: 10.1002/wcms.1493
   
   for GFN2-xTB:
   * C. Bannwarth, S. Ehlert and S. Grimme., J. Chem. Theory Comput., 2019,
     15, 1652-1671. DOI: 10.1021/acs.jctc.8b01176
   for GFN1-xTB:
   * S. Grimme, C. Bannwarth, P. Shushkov, J. Chem. Theory Comput., 2017,
     13, 1989-2009. DOI: 10.1021/acs.jctc.7b00118
   for GFN0-xTB:
   * P. Pracht, E. Caldeweyher, S. Ehlert, S. Grimme, ChemRxiv, 2019, preprint.
     DOI: 10.26434/chemrxiv.8326202.v1
   for GFN-FF:
   * S. Spicher and S. Grimme, Angew. Chem. Int. Ed., 2020, 59, 15665-15673.
     DOI: 10.1002/anie.202004239
   
   for DFT-D4:
   * E. Caldeweyher, C. Bannwarth and S. Grimme, J. Chem. Phys., 2017,
     147, 034112. DOI: 10.1063/1.4993215
   * E. Caldeweyher, S. Ehlert, A. Hansen, H. Neugebauer, S. Spicher,
     C. Bannwarth and S. Grimme, J. Chem. Phys., 2019, 150, 154122.
     DOI: 10.1063/1.5090222
   * E. Caldeweyher, J.-M. Mewes, S. Ehlert and S. Grimme, Phys. Chem. Chem. Phys.
     2020, 22, 8499-8512. DOI: 10.1039/D0CP00502A
   
   for sTDA-xTB:
   * S. Grimme and C. Bannwarth, J. Chem. Phys., 2016, 145, 054103.
     DOI: 10.1063/1.4959605
   
   in the mass-spec context:
   * V. Asgeirsson, C. Bauer and S. Grimme, Chem. Sci., 2017, 8, 4879.
     DOI: 10.1039/c7sc00601b
   * J. Koopman and S. Grimme, ACS Omega 2019, 4, 12, 15120-15133.
     DOI: 10.1021/acsomega.9b02011
   
   for metadynamics refer to:
   * S. Grimme, J. Chem. Theory Comput., 2019, 155, 2847-2862
     DOI: 10.1021/acs.jctc.9b00143
   
   for SPH calculations refer to:
   * S. Spicher and S. Grimme, J. Chem. Theory Comput., 2021, 17, 1701-1714
     DOI: 10.1021/acs.jctc.0c01306
   
   with help from (in alphabetical order)
   P. Atkinson, C. Bannwarth, F. Bohle, G. Brandenburg, E. Caldeweyher
   M. Checinski, S. Dohm, S. Ehlert, S. Ehrlich, I. Gerasimov, J. Koopman
   C. Lavigne, S. Lehtola, F. März, M. Müller, F. Musil, H. Neugebauer
   J. Pisarek, C. Plett, P. Pracht, J. Seibert, P. Shushkov, S. Spicher
   M. Stahn, M. Steiner, T. Strunk, J. Stückrath, T. Rose, and J. Unsleber
   
 * started run on 2022/02/28 at 21:59:32.605     

           -------------------------------------------------
          |                Calculation Setup                |
           -------------------------------------------------

          program call               : /ihome/ghutchison/oda6/xtb/xtb-641/bin/xtb ../../GFN2_output/905_6_011110.mol --sp --alpb hexane
          hostname                   : smp-n90
          coordinate file            : ../../GFN2_output/905_6_011110.mol
          omp threads                :                     8
          number of atoms            :                   100
          number of electrons        :                   330
          charge                     :                     0
          spin                       :                   0.0
          first test random number   :      0.19554089504340

   ID    Z sym.   atoms
    1    6 C      1, 3-5, 8, 10-12, 14-19, 21, 23-25, 27-32, 34, 36-38,
                  40-45, 47, 49-51, 53-58, 60, 62-64
    2   16 S      2, 7, 9, 20, 22, 33, 35, 46, 48, 59, 61, 66
    3    8 O      6, 65
    4    7 N      13, 26, 39, 52
    5    1 H      67-100

           -------------------------------------------------
          |                 G F N 2 - x T B                 |
           -------------------------------------------------

        Reference                      10.1021/acs.jctc.8b01176
      * Hamiltonian:
        H0-scaling (s, p, d)           1.850000    2.230000    2.230000
        zeta-weighting                 0.500000
      * Dispersion:
        s8                             2.700000
        a1                             0.520000
        a2                             5.000000
        s9                             5.000000
      * Repulsion:
        kExp                           1.500000    1.000000
        rExp                           1.000000
      * Coulomb:
        alpha                          2.000000
        third order                    shell-resolved
        anisotropic                    true
        a3                             3.000000
        a5                             4.000000
        cn-shift                       1.200000
        cn-exp                         4.000000
        max-rad                        5.000000

      * Solvation model:               ALPB
        Solvent                        hexane
        Parameter file                 internal GFN2-xTB/ALPB
        Dielectric constant                1.8800E+00
        Reference state                gsolv [1 M gas/solution]
        Free energy shift                  4.8134E-03 Eh       3.0204E+00 kcal/mol
        Temperature                        2.9815E+02 K
        Density                            6.6000E-01 kg/L
        Solvent mass                       8.6180E+01 g/mol
        Interaction kernel             P16
        Born radius scaling (c1)           1.1040E+00
        Born radii integrator          GBOBC
        Born offset                        0.0000E+00 a0       0.0000E+00 AA
        H-bond correction              false
        Ion screening                  false
        Surface tension                    1.0000E-05 Eh       1.5569E+01 dyn/cm
        Grid points                               230 per atom

          ...................................................
          :                      SETUP                      :
          :.................................................:
          :  # basis functions                 370          :
          :  # atomic orbitals                 358          :
          :  # shells                          178          :
          :  # electrons                       330          :
          :  max. iterations                   250          :
          :  Hamiltonian                  GFN2-xTB          :
          :  restarted?                      false          :
          :  GBSA solvation                   true          :
          :  PC potential                    false          :
          :  electronic temp.          300.0000000     K    :
          :  accuracy                    1.0000000          :
          :  -> integral cutoff          0.2500000E+02      :
          :  -> integral neglect         0.1000000E-07      :
          :  -> SCF convergence          0.1000000E-05 Eh   :
          :  -> wf. convergence          0.1000000E-03 e    :
          :  Broyden damping             0.4000000          :
          ...................................................

 iter      E             dE          RMSdq      gap      omega  full diag
   1   -181.3226211 -0.181323E+03  0.391E+00    1.43       0.0  T
   2   -181.4776290 -0.155008E+00  0.216E+00    1.29       1.0  T
   3   -181.4607583  0.168707E-01  0.105E+00    1.42       1.0  T
   4   -181.4982449 -0.374866E-01  0.414E-01    1.34       1.0  T
   5   -181.5061226 -0.787767E-02  0.152E-01    1.34       1.0  T
   6   -181.5062055 -0.829292E-04  0.696E-02    1.35       1.0  T
   7   -181.5063740 -0.168473E-03  0.299E-02    1.35       1.0  T
   8   -181.5063927 -0.186451E-04  0.163E-02    1.35       1.0  T
   9   -181.5063940 -0.135023E-05  0.758E-03    1.35       1.3  T
  10   -181.5063961 -0.204615E-05  0.251E-03    1.35       4.0  T
  11   -181.5063962 -0.135404E-06  0.128E-03    1.35       7.8  T
  12   -181.5063962 -0.164196E-07  0.474E-04    1.35      21.1  T
  13   -181.5063962 -0.518295E-08  0.236E-04    1.35      42.3  T

   *** convergence criteria satisfied after 13 iterations ***

         #    Occupation            Energy/Eh            Energy/eV
      -------------------------------------------------------------
         1        2.0000           -0.7399224             -20.1343
       ...           ...                  ...                  ...
       159        2.0000           -0.3708566             -10.0915
       160        2.0000           -0.3692193             -10.0470
       161        2.0000           -0.3675090             -10.0004
       162        2.0000           -0.3663116              -9.9678
       163        2.0000           -0.3631450              -9.8817
       164        2.0000           -0.3512983              -9.5593
       165        2.0000           -0.3402340              -9.2582 (HOMO)
       166                         -0.2907902              -7.9128 (LUMO)
       167                         -0.2825014              -7.6873
       168                         -0.2718847              -7.3984
       169                         -0.2605026              -7.0886
       170                         -0.2493944              -6.7864
       ...                                ...                  ...
       358                          0.7073278              19.2474
      -------------------------------------------------------------
                  HL-Gap            0.0494437 Eh            1.3454 eV
             Fermi-level           -0.3155121 Eh           -8.5855 eV

 SCC (total)                   0 d,  0 h,  0 min,  0.249 sec
 SCC setup                      ...        0 min,  0.002 sec (  0.865%)
 Dispersion                     ...        0 min,  0.003 sec (  1.028%)
 classical contributions        ...        0 min,  0.000 sec (  0.041%)
 integral evaluation            ...        0 min,  0.015 sec (  6.001%)
 iterations                     ...        0 min,  0.200 sec ( 80.427%)
 molecular gradient             ...        0 min,  0.028 sec ( 11.175%)
 printout                       ...        0 min,  0.001 sec (  0.425%)

         :::::::::::::::::::::::::::::::::::::::::::::::::::::
         ::                     SUMMARY                     ::
         :::::::::::::::::::::::::::::::::::::::::::::::::::::
         :: total energy            -179.109935220375 Eh    ::
         :: total w/o Gsasa/hb      -179.038476849553 Eh    ::
         :: gradient norm              0.008705419072 Eh/a0 ::
         :: HOMO-LUMO gap              1.345432220644 eV    ::
         ::.................................................::
         :: SCC energy              -181.506396208410 Eh    ::
         :: -> isotropic ES            0.066660550402 Eh    ::
         :: -> anisotropic ES          0.007291136847 Eh    ::
         :: -> anisotropic XC          0.056612153773 Eh    ::
         :: -> dispersion             -0.157470807324 Eh    ::
         :: -> Gsolv                  -0.083120262508 Eh    ::
         ::    -> Gelec               -0.011661891687 Eh    ::
         ::    -> Gsasa               -0.076271726641 Eh    ::
         ::    -> Ghb                  0.000000000000 Eh    ::
         ::    -> Gshift               0.004813355820 Eh    ::
         :: repulsion energy           2.399062453721 Eh    ::
         :: add. restraining           0.000000000000 Eh    ::
         :: total charge              -0.000000000000 e     ::
         :::::::::::::::::::::::::::::::::::::::::::::::::::::

           -------------------------------------------------
          |                Property Printout                |
           -------------------------------------------------

    * Orbital Energies and Occupations

         #    Occupation            Energy/Eh            Energy/eV
      -------------------------------------------------------------
         1        2.0000           -0.7399224             -20.1343
       ...           ...                  ...                  ...
       153        2.0000           -0.3994313             -10.8691
       154        2.0000           -0.3970562             -10.8044
       155        2.0000           -0.3914602             -10.6522
       156        2.0000           -0.3811206             -10.3708
       157        2.0000           -0.3793093             -10.3215
       158        2.0000           -0.3784359             -10.2978
       159        2.0000           -0.3708566             -10.0915
       160        2.0000           -0.3692193             -10.0470
       161        2.0000           -0.3675090             -10.0004
       162        2.0000           -0.3663116              -9.9678
       163        2.0000           -0.3631450              -9.8817
       164        2.0000           -0.3512983              -9.5593
       165        2.0000           -0.3402340              -9.2582 (HOMO)
       166                         -0.2907902              -7.9128 (LUMO)
       167                         -0.2825014              -7.6873
       168                         -0.2718847              -7.3984
       169                         -0.2605026              -7.0886
       170                         -0.2493944              -6.7864
       171                         -0.2358325              -6.4173
       172                         -0.2348400              -6.3903
       173                         -0.2229269              -6.0662
       174                         -0.2215350              -6.0283
       175                         -0.2194827              -5.9724
       176                         -0.2177386              -5.9250
       ...                                ...                  ...
       358                          0.7073278              19.2474
      -------------------------------------------------------------
                  HL-Gap            0.0494437 Eh            1.3454 eV
             Fermi-level           -0.3155121 Eh           -8.5855 eV

     #   Z          covCN         q      C6AA      α(0)
     1   6 C        2.935    -0.057    29.428     8.897
     2  16 S        2.363    -0.025   142.067    20.061
     3   6 C        3.032     0.007    27.830     8.653
     4   6 C        3.161    -0.004    27.791     8.617
     5   6 C        3.055     0.133    25.037     8.206
     6   8 O        1.659    -0.409    21.016     6.189
     7  16 S        1.946    -0.277   153.027    20.820
     8   6 C        3.035     0.019    27.561     8.611
     9  16 S        2.266    -0.069   143.924    20.192
    10   6 C        3.098    -0.004    28.002     8.672
    11   6 C        3.100    -0.006    28.033     8.676
    12   6 C        3.296     0.031    25.643     8.117
    13   7 N        2.798    -0.040    22.005     6.967
    14   6 C        3.738     0.004    20.595     6.476
    15   6 C        3.752    -0.113    22.723     6.798
    16   6 C        3.297     0.027    25.706     8.124
    17   6 C        3.035    -0.069    29.686     8.937
    18   6 C        3.036    -0.068    29.658     8.933
    19   6 C        3.037     0.023    27.466     8.596
    20  16 S        2.240    -0.082   144.462    20.229
    21   6 C        3.035     0.020    27.528     8.606
    22  16 S        2.242    -0.083   144.505    20.232
    23   6 C        3.101    -0.004    27.993     8.670
    24   6 C        3.100    -0.005    28.031     8.676
    25   6 C        3.291     0.029    25.755     8.144
    26   7 N        2.799    -0.042    22.042     6.973
    27   6 C        3.738     0.004    20.583     6.474
    28   6 C        3.752    -0.113    22.731     6.799
    29   6 C        3.291     0.029    25.763     8.147
    30   6 C        3.036    -0.066    29.618     8.927
    31   6 C        3.037    -0.072    29.745     8.946
    32   6 C        3.036     0.021    27.509     8.603
    33  16 S        2.295    -0.070   143.947    20.193
    34   6 C        3.037     0.020    27.533     8.607
    35  16 S        2.295    -0.070   143.984    20.196
    36   6 C        3.100    -0.005    28.020     8.675
    37   6 C        3.101    -0.005    28.011     8.673
    38   6 C        3.291     0.030    25.753     8.145
    39   7 N        2.799    -0.042    22.047     6.974
    40   6 C        3.738     0.005    20.583     6.474
    41   6 C        3.752    -0.113    22.731     6.799
    42   6 C        3.291     0.029    25.770     8.147
    43   6 C        3.037    -0.071    29.727     8.943
    44   6 C        3.036    -0.068    29.650     8.931
    45   6 C        3.034     0.021    27.499     8.601
    46  16 S        2.242    -0.084   144.571    20.237
    47   6 C        3.037     0.021    27.505     8.602
    48  16 S        2.240    -0.085   144.613    20.240
    49   6 C        3.100    -0.005    28.014     8.674
    50   6 C        3.099    -0.005    28.020     8.675
    51   6 C        3.299     0.029    25.636     8.110
    52   7 N        2.799    -0.039    21.998     6.966
    53   6 C        3.738     0.004    20.600     6.476
    54   6 C        3.752    -0.114    22.733     6.799
    55   6 C        3.294     0.030    25.692     8.128
    56   6 C        3.037    -0.067    29.636     8.929
    57   6 C        3.035    -0.068    29.666     8.934
    58   6 C        3.035     0.025    27.414     8.588
    59  16 S        2.269    -0.076   144.235    20.213
    60   6 C        3.018    -0.007    28.181     8.708
    61  16 S        2.359    -0.025   142.091    20.062
    62   6 C        2.954    -0.044    29.082     8.845
    63   6 C        3.159     0.011    27.450     8.566
    64   6 C        3.050     0.120    25.325     8.253
    65   8 O        1.659    -0.407    20.987     6.184
    66  16 S        1.949    -0.262   152.307    20.771
    67   1 H        0.927     0.068     2.103     2.268
    68   1 H        0.805     0.333     0.628     1.245
    69   1 H        0.923     0.185     1.176     1.696
    70   1 H        0.924     0.060     2.196     2.317
    71   1 H        0.924     0.061     2.187     2.313
    72   1 H        0.925     0.053     2.279     2.361
    73   1 H        0.925     0.050     2.314     2.379
    74   1 H        0.925     0.047     2.363     2.404
    75   1 H        0.926     0.054     2.273     2.358
    76   1 H        0.926     0.051     2.310     2.377
    77   1 H        0.924     0.058     2.221     2.331
    78   1 H        0.924     0.060     2.198     2.318
    79   1 H        0.925     0.052     2.295     2.369
    80   1 H        0.925     0.049     2.338     2.391
    81   1 H        0.925     0.050     2.320     2.382
    82   1 H        0.926     0.049     2.329     2.386
    83   1 H        0.926     0.041     2.429     2.437
    84   1 H        0.924     0.058     2.226     2.333
    85   1 H        0.924     0.060     2.196     2.318
    86   1 H        0.925     0.048     2.341     2.393
    87   1 H        0.925     0.052     2.298     2.370
    88   1 H        0.925     0.050     2.318     2.381
    89   1 H        0.926     0.041     2.431     2.438
    90   1 H        0.926     0.049     2.332     2.388
    91   1 H        0.924     0.061     2.189     2.314
    92   1 H        0.924     0.060     2.198     2.318
    93   1 H        0.925     0.052     2.293     2.368
    94   1 H        0.925     0.049     2.326     2.385
    95   1 H        0.925     0.050     2.326     2.385
    96   1 H        0.926     0.050     2.324     2.384
    97   1 H        0.926     0.063     2.167     2.302
    98   1 H        0.926     0.061     2.192     2.315
    99   1 H        0.805     0.334     0.628     1.244
   100   1 H        0.923     0.190     1.152     1.679

 Mol. C6AA /au·bohr⁶  :     219450.818124
 Mol. C8AA /au·bohr⁸  :    6967832.704233
 Mol. α(0) /au        :        756.931035


Wiberg/Mayer (AO) data.
largest (>0.10) Wiberg bond orders for each atom

 ---------------------------------------------------------------------------
     #   Z sym  total        # sym  WBO       # sym  WBO       # sym  WBO
 ---------------------------------------------------------------------------
     1   6 C    3.907 --     5 C    1.535     2 S    1.167    67 H    0.966
     2  16 S    2.597 --     1 C    1.167     3 C    1.126
     3   6 C    3.949 --     4 C    1.460     8 C    1.161     2 S    1.126
     4   6 C    3.922 --     3 C    1.460     5 C    1.208     7 S    1.020
     5   6 C    3.940 --     1 C    1.535     4 C    1.208     6 O    1.075
     6   8 O    2.107 --     5 C    1.075    68 H    0.862
     7  16 S    2.130 --     4 C    1.020    69 H    0.941
     8   6 C    3.913 --    17 C    1.490     3 C    1.161     9 S    1.093
     9  16 S    2.520 --    10 C    1.115     8 C    1.093
    10   6 C    3.926 --    11 C    1.303    16 C    1.280     9 S    1.115
    11   6 C    3.918 --    10 C    1.303    12 C    1.284    20 S    1.106
    12   6 C    3.939 --    11 C    1.284    18 C    1.275    13 N    1.162
    13   7 N    3.569 --    12 C    1.162    16 C    1.159    14 C    0.986
    14   6 C    3.967 --    15 C    1.005    13 N    0.986    70 H    0.970
                            71 H    0.969
    15   6 C    3.990 --    14 C    1.005    74 H    0.987    73 H    0.987
                            72 H    0.984
    16   6 C    3.936 --    10 C    1.280    17 C    1.275    13 N    1.159
    17   6 C    3.977 --     8 C    1.490    16 C    1.275    75 H    0.957
    18   6 C    3.955 --    19 C    1.488    12 C    1.275    76 H    0.957
    19   6 C    3.916 --    18 C    1.488    21 C    1.184    20 S    1.084
    20  16 S    2.491 --    11 C    1.106    19 C    1.084
    21   6 C    3.913 --    30 C    1.485    19 C    1.184    22 S    1.082
    22  16 S    2.493 --    23 C    1.108    21 C    1.082
    23   6 C    3.920 --    24 C    1.306    29 C    1.281    22 S    1.108
    24   6 C    3.920 --    23 C    1.306    25 C    1.278    33 S    1.111
    25   6 C    3.935 --    31 C    1.280    24 C    1.278    26 N    1.158
    26   7 N    3.565 --    25 C    1.158    29 C    1.158    27 C    0.987
    27   6 C    3.968 --    28 C    1.005    26 N    0.987    77 H    0.970
                            78 H    0.970
    28   6 C    3.990 --    27 C    1.005    80 H    0.987    81 H    0.987
                            79 H    0.984
    29   6 C    3.934 --    23 C    1.281    30 C    1.279    26 N    1.158
    30   6 C    3.957 --    21 C    1.485    29 C    1.279    82 H    0.958
    31   6 C    3.954 --    32 C    1.475    25 C    1.280    83 H    0.961
    32   6 C    3.914 --    31 C    1.475    34 C    1.182    33 S    1.098
    33  16 S    2.511 --    24 C    1.111    32 C    1.098
    34   6 C    3.914 --    43 C    1.474    32 C    1.182    35 S    1.097
    35  16 S    2.511 --    36 C    1.112    34 C    1.097
    36   6 C    3.920 --    37 C    1.305    42 C    1.277    35 S    1.112
    37   6 C    3.919 --    36 C    1.305    38 C    1.282    46 S    1.106
    38   6 C    3.934 --    37 C    1.282    44 C    1.277    39 N    1.158
    39   7 N    3.565 --    38 C    1.158    42 C    1.157    40 C    0.987
    40   6 C    3.968 --    41 C    1.005    39 N    0.987    84 H    0.970
                            85 H    0.970
    41   6 C    3.990 --    40 C    1.005    86 H    0.987    88 H    0.987
                            87 H    0.984
    42   6 C    3.935 --    43 C    1.282    36 C    1.277    39 N    1.157
    43   6 C    3.954 --    34 C    1.474    42 C    1.282    89 H    0.961
    44   6 C    3.956 --    45 C    1.486    38 C    1.277    90 H    0.958
    45   6 C    3.913 --    44 C    1.486    47 C    1.185    46 S    1.083
    46  16 S    2.490 --    37 C    1.106    45 C    1.083
    47   6 C    3.915 --    56 C    1.487    45 C    1.185    48 S    1.082
    48  16 S    2.489 --    49 C    1.106    47 C    1.082
    49   6 C    3.919 --    50 C    1.305    55 C    1.281    48 S    1.106
    50   6 C    3.925 --    49 C    1.305    51 C    1.281    59 S    1.108
    51   6 C    3.935 --    50 C    1.281    57 C    1.274    52 N    1.160
    52   7 N    3.569 --    55 C    1.161    51 C    1.160    53 C    0.986
    53   6 C    3.967 --    54 C    1.005    52 N    0.986    91 H    0.970
                            92 H    0.970
    54   6 C    3.990 --    53 C    1.005    95 H    0.987    94 H    0.987
                            93 H    0.984
    55   6 C    3.937 --    49 C    1.281    56 C    1.277    52 N    1.161
    56   6 C    3.956 --    47 C    1.487    55 C    1.277    96 H    0.957
    57   6 C    3.978 --    58 C    1.491    51 C    1.274    97 H    0.956
    58   6 C    3.912 --    57 C    1.491    60 C    1.168    59 S    1.095
    59  16 S    2.507 --    50 C    1.108    58 C    1.095
    60   6 C    3.941 --    64 C    1.431    58 C    1.168    61 S    1.117
    61  16 S    2.593 --    62 C    1.176    60 C    1.117
    62   6 C    3.912 --    63 C    1.548    61 S    1.176    98 H    0.967
    63   6 C    3.949 --    62 C    1.548    64 C    1.216    66 S    1.025
    64   6 C    3.914 --    60 C    1.431    63 C    1.216    65 O    1.067
    65   8 O    2.106 --    64 C    1.067    99 H    0.865
    66  16 S    2.144 --    63 C    1.025   100 H    0.948
    67   1 H    0.995 --     1 C    0.966
    68   1 H    0.889 --     6 O    0.862
    69   1 H    0.965 --     7 S    0.941
    70   1 H    0.995 --    14 C    0.970
    71   1 H    0.995 --    14 C    0.969
    72   1 H    0.996 --    15 C    0.984
    73   1 H    0.997 --    15 C    0.987
    74   1 H    0.998 --    15 C    0.987
    75   1 H    0.996 --    17 C    0.957
    76   1 H    0.997 --    18 C    0.957
    77   1 H    0.996 --    27 C    0.970
    78   1 H    0.995 --    27 C    0.970
    79   1 H    0.996 --    28 C    0.984
    80   1 H    0.998 --    28 C    0.987
    81   1 H    0.997 --    28 C    0.987
    82   1 H    0.997 --    30 C    0.958
    83   1 H    0.998 --    31 C    0.961
    84   1 H    0.996 --    40 C    0.970
    85   1 H    0.995 --    40 C    0.970
    86   1 H    0.998 --    41 C    0.987
    87   1 H    0.996 --    41 C    0.984
    88   1 H    0.997 --    41 C    0.987
    89   1 H    0.998 --    43 C    0.961
    90   1 H    0.997 --    44 C    0.958
    91   1 H    0.995 --    53 C    0.970
    92   1 H    0.995 --    53 C    0.970
    93   1 H    0.996 --    54 C    0.984
    94   1 H    0.998 --    54 C    0.987
    95   1 H    0.998 --    54 C    0.987
    96   1 H    0.997 --    56 C    0.957
    97   1 H    0.995 --    57 C    0.956
    98   1 H    0.996 --    62 C    0.967
    99   1 H    0.888 --    65 O    0.865
   100   1 H    0.964 --    66 S    0.948
 ---------------------------------------------------------------------------

Topologies differ in bond orders
Writing corrected topology to xtbtopo.mol

molecular dipole:
                 x           y           z       tot (Debye)
 q only:       -1.163      -1.310      -0.438
   full:       -1.599      -1.460      -0.490       5.642
molecular quadrupole (traceless):
                xx          xy          yy          xz          yz          zz
 q only:      -15.538     -36.100     -17.753     -30.480      14.729      33.291
  q+dip:       -7.341     -25.646     -18.727     -27.991      16.514      26.068
   full:       -7.206     -28.753     -18.308     -26.414      14.836      25.513


           -------------------------------------------------
          | TOTAL ENERGY             -179.109935220375 Eh   |
          | GRADIENT NORM               0.008705419072 Eh/α |
          | HOMO-LUMO GAP               1.345432220644 eV   |
           -------------------------------------------------

------------------------------------------------------------------------
 * finished run on 2022/02/28 at 21:59:33.053     
------------------------------------------------------------------------
 total:
 * wall-time:     0 d,  0 h,  0 min,  0.448 sec
 *  cpu-time:     0 d,  0 h,  0 min,  3.246 sec
 * ratio c/w:     7.243 speedup
 SCF:
 * wall-time:     0 d,  0 h,  0 min,  0.251 sec
 *  cpu-time:     0 d,  0 h,  0 min,  1.993 sec
 * ratio c/w:     7.951 speedup

