      -----------------------------------------------------------      
     |                   =====================                   |     
     |                           x T B                           |     
     |                   =====================                   |     
     |                         S. Grimme                         |     
     |          Mulliken Center for Theoretical Chemistry        |     
     |                    University of Bonn                     |     
      -----------------------------------------------------------      

   * xtb version 6.4.1 (unknown) compiled by 'oda6@login1.crc.pitt.edu' on 2021-06-25

   xtb is free software: you can redistribute it and/or modify it under
   the terms of the GNU Lesser General Public License as published by
   the Free Software Foundation, either version 3 of the License, or
   (at your option) any later version.
   
   xtb is distributed in the hope that it will be useful,
   but WITHOUT ANY WARRANTY; without even the implied warranty of
   MERCHANTABILITY or FITNESS FOR A PARTICULAR PURPOSE.  See the
   GNU Lesser General Public License for more details.
   
   Cite this work as:
   * C. Bannwarth, E. Caldeweyher, S. Ehlert, A. Hansen, P. Pracht,
     J. Seibert, S. Spicher, S. Grimme, WIREs Comput. Mol. Sci., 2020, 11,
     e01493. DOI: 10.1002/wcms.1493
   
   for GFN2-xTB:
   * C. Bannwarth, S. Ehlert and S. Grimme., J. Chem. Theory Comput., 2019,
     15, 1652-1671. DOI: 10.1021/acs.jctc.8b01176
   for GFN1-xTB:
   * S. Grimme, C. Bannwarth, P. Shushkov, J. Chem. Theory Comput., 2017,
     13, 1989-2009. DOI: 10.1021/acs.jctc.7b00118
   for GFN0-xTB:
   * P. Pracht, E. Caldeweyher, S. Ehlert, S. Grimme, ChemRxiv, 2019, preprint.
     DOI: 10.26434/chemrxiv.8326202.v1
   for GFN-FF:
   * S. Spicher and S. Grimme, Angew. Chem. Int. Ed., 2020, 59, 15665-15673.
     DOI: 10.1002/anie.202004239
   
   for DFT-D4:
   * E. Caldeweyher, C. Bannwarth and S. Grimme, J. Chem. Phys., 2017,
     147, 034112. DOI: 10.1063/1.4993215
   * E. Caldeweyher, S. Ehlert, A. Hansen, H. Neugebauer, S. Spicher,
     C. Bannwarth and S. Grimme, J. Chem. Phys., 2019, 150, 154122.
     DOI: 10.1063/1.5090222
   * E. Caldeweyher, J.-M. Mewes, S. Ehlert and S. Grimme, Phys. Chem. Chem. Phys.
     2020, 22, 8499-8512. DOI: 10.1039/D0CP00502A
   
   for sTDA-xTB:
   * S. Grimme and C. Bannwarth, J. Chem. Phys., 2016, 145, 054103.
     DOI: 10.1063/1.4959605
   
   in the mass-spec context:
   * V. Asgeirsson, C. Bauer and S. Grimme, Chem. Sci., 2017, 8, 4879.
     DOI: 10.1039/c7sc00601b
   * J. Koopman and S. Grimme, ACS Omega 2019, 4, 12, 15120-15133.
     DOI: 10.1021/acsomega.9b02011
   
   for metadynamics refer to:
   * S. Grimme, J. Chem. Theory Comput., 2019, 155, 2847-2862
     DOI: 10.1021/acs.jctc.9b00143
   
   for SPH calculations refer to:
   * S. Spicher and S. Grimme, J. Chem. Theory Comput., 2021, 17, 1701-1714
     DOI: 10.1021/acs.jctc.0c01306
   
   with help from (in alphabetical order)
   P. Atkinson, C. Bannwarth, F. Bohle, G. Brandenburg, E. Caldeweyher
   M. Checinski, S. Dohm, S. Ehlert, S. Ehrlich, I. Gerasimov, J. Koopman
   C. Lavigne, S. Lehtola, F. März, M. Müller, F. Musil, H. Neugebauer
   J. Pisarek, C. Plett, P. Pracht, J. Seibert, P. Shushkov, S. Spicher
   M. Stahn, M. Steiner, T. Strunk, J. Stückrath, T. Rose, and J. Unsleber
   
 * started run on 2022/03/04 at 02:50:22.915     

           -------------------------------------------------
          |                Calculation Setup                |
           -------------------------------------------------

          program call               : /ihome/ghutchison/oda6/xtb/xtb-641/bin/xtb ../../GFN2_output/920_99_110011.mol --sp --alpb hexane
          hostname                   : smp-n90
          coordinate file            : ../../GFN2_output/920_99_110011.mol
          omp threads                :                     8
          number of atoms            :                   242
          number of electrons        :                   762
          charge                     :                     0
          spin                       :                   0.0
          first test random number   :      0.96063031938559

   ID    Z sym.   atoms
    1    6 C      1-8, 10-12, 14-21, 23-26, 28, 30, 31, 33-40, 42-44, 46-53,
                  55-58, 60, 62, 63, 65, 67-73, 75-77, 79-85, 87-96, 98-100,
                  102-109, 111-114, 116, 118, 119, 121-128, 130-132, 134-141,
                  143-146, 148, 150, 151
    2   16 S      9, 22, 29, 32, 41, 54, 61, 64, 66, 78, 97, 110, 117, 120,
                  129, 142, 149, 152
    3    9 F      13, 27, 45, 59, 101, 115, 133, 147
    4    8 O      74, 86
    5    1 H      153-242

           -------------------------------------------------
          |                 G F N 2 - x T B                 |
           -------------------------------------------------

        Reference                      10.1021/acs.jctc.8b01176
      * Hamiltonian:
        H0-scaling (s, p, d)           1.850000    2.230000    2.230000
        zeta-weighting                 0.500000
      * Dispersion:
        s8                             2.700000
        a1                             0.520000
        a2                             5.000000
        s9                             5.000000
      * Repulsion:
        kExp                           1.500000    1.000000
        rExp                           1.000000
      * Coulomb:
        alpha                          2.000000
        third order                    shell-resolved
        anisotropic                    true
        a3                             3.000000
        a5                             4.000000
        cn-shift                       1.200000
        cn-exp                         4.000000
        max-rad                        5.000000

      * Solvation model:               ALPB
        Solvent                        hexane
        Parameter file                 internal GFN2-xTB/ALPB
        Dielectric constant                1.8800E+00
        Reference state                gsolv [1 M gas/solution]
        Free energy shift                  4.8134E-03 Eh       3.0204E+00 kcal/mol
        Temperature                        2.9815E+02 K
        Density                            6.6000E-01 kg/L
        Solvent mass                       8.6180E+01 g/mol
        Interaction kernel             P16
        Born radius scaling (c1)           1.1040E+00
        Born radii integrator          GBOBC
        Born offset                        0.0000E+00 a0       0.0000E+00 AA
        H-bond correction              false
        Ion screening                  false
        Surface tension                    1.0000E-05 Eh       1.5569E+01 dyn/cm
        Grid points                               230 per atom

          ...................................................
          :                      SETUP                      :
          :.................................................:
          :  # basis functions                 806          :
          :  # atomic orbitals                 788          :
          :  # shells                          412          :
          :  # electrons                       762          :
          :  max. iterations                   250          :
          :  Hamiltonian                  GFN2-xTB          :
          :  restarted?                      false          :
          :  GBSA solvation                   true          :
          :  PC potential                    false          :
          :  electronic temp.          300.0000000     K    :
          :  accuracy                    1.0000000          :
          :  -> integral cutoff          0.2500000E+02      :
          :  -> integral neglect         0.1000000E-07      :
          :  -> SCF convergence          0.1000000E-05 Eh   :
          :  -> wf. convergence          0.1000000E-03 e    :
          :  Broyden damping             0.4000000          :
          ...................................................

 iter      E             dE          RMSdq      gap      omega  full diag
   1   -421.8445255 -0.421845E+03  0.441E+00    0.97       0.0  T
   2   -422.1261500 -0.281625E+00  0.244E+00    0.99       1.0  T
   3   -422.0687166  0.574334E-01  0.925E-01    1.03       1.0  T
   4   -422.1623028 -0.935861E-01  0.396E-01    0.99       1.0  T
   5   -422.1706036 -0.830084E-02  0.181E-01    1.01       1.0  T
   6   -422.1723995 -0.179586E-02  0.100E-01    1.00       1.0  T
   7   -422.1739624 -0.156296E-02  0.408E-02    1.00       1.0  T
   8   -422.1741635 -0.201072E-03  0.201E-02    1.00       1.0  T
   9   -422.1741758 -0.123039E-04  0.104E-02    1.00       1.0  T
  10   -422.1741812 -0.540428E-05  0.386E-03    1.00       1.7  T
  11   -422.1741822 -0.965270E-06  0.228E-03    1.00       2.8  T
  12   -422.1741826 -0.441550E-06  0.123E-03    1.00       5.2  T
  13   -422.1741827 -0.122957E-06  0.479E-04    1.00      13.4  T
  14   -422.1741827 -0.149726E-07  0.191E-04    1.00      33.7  T

   *** convergence criteria satisfied after 14 iterations ***

         #    Occupation            Energy/Eh            Energy/eV
      -------------------------------------------------------------
         1        2.0000           -0.8397174             -22.8499
       ...           ...                  ...                  ...
       375        2.0000           -0.3691295             -10.0445
       376        2.0000           -0.3683228             -10.0226
       377        2.0000           -0.3678196             -10.0089
       378        2.0000           -0.3640436              -9.9061
       379        2.0000           -0.3625495              -9.8655
       380        2.0000           -0.3613834              -9.8337
       381        2.0000           -0.3495691              -9.5123 (HOMO)
       382                         -0.3128239              -8.5124 (LUMO)
       383                         -0.2986691              -8.1272
       384                         -0.2930304              -7.9738
       385                         -0.2812442              -7.6530
       386                         -0.2767545              -7.5309
       ...                                ...                  ...
       788                          0.7258975              19.7527
      -------------------------------------------------------------
                  HL-Gap            0.0367451 Eh            0.9999 eV
             Fermi-level           -0.3311965 Eh           -9.0123 eV

 SCC (total)                   0 d,  0 h,  0 min,  1.076 sec
 SCC setup                      ...        0 min,  0.010 sec (  0.974%)
 Dispersion                     ...        0 min,  0.013 sec (  1.249%)
 classical contributions        ...        0 min,  0.000 sec (  0.043%)
 integral evaluation            ...        0 min,  0.054 sec (  5.034%)
 iterations                     ...        0 min,  0.808 sec ( 75.101%)
 molecular gradient             ...        0 min,  0.182 sec ( 16.923%)
 printout                       ...        0 min,  0.007 sec (  0.668%)

         :::::::::::::::::::::::::::::::::::::::::::::::::::::
         ::                     SUMMARY                     ::
         :::::::::::::::::::::::::::::::::::::::::::::::::::::
         :: total energy            -416.207904556859 Eh    ::
         :: total w/o Gsasa/hb      -416.060472100465 Eh    ::
         :: gradient norm              0.019822560700 Eh/a0 ::
         :: HOMO-LUMO gap              0.999885912863 eV    ::
         ::.................................................::
         :: SCC energy              -422.174182745367 Eh    ::
         :: -> isotropic ES            0.169456296203 Eh    ::
         :: -> anisotropic ES          0.016234720593 Eh    ::
         :: -> anisotropic XC          0.143914559572 Eh    ::
         :: -> dispersion             -0.387997898255 Eh    ::
         :: -> Gsolv                  -0.173836150174 Eh    ::
         ::    -> Gelec               -0.026403693781 Eh    ::
         ::    -> Gsasa               -0.152245812213 Eh    ::
         ::    -> Ghb                  0.000000000000 Eh    ::
         ::    -> Gshift               0.004813355820 Eh    ::
         :: repulsion energy           5.967363121237 Eh    ::
         :: add. restraining           0.000000000000 Eh    ::
         :: total charge              -0.000000000000 e     ::
         :::::::::::::::::::::::::::::::::::::::::::::::::::::

           -------------------------------------------------
          |                Property Printout                |
           -------------------------------------------------

    * Orbital Energies and Occupations

         #    Occupation            Energy/Eh            Energy/eV
      -------------------------------------------------------------
         1        2.0000           -0.8397174             -22.8499
       ...           ...                  ...                  ...
       369        2.0000           -0.3785779             -10.3016
       370        2.0000           -0.3770616             -10.2604
       371        2.0000           -0.3755197             -10.2184
       372        2.0000           -0.3742651             -10.1843
       373        2.0000           -0.3730022             -10.1499
       374        2.0000           -0.3698095             -10.0630
       375        2.0000           -0.3691295             -10.0445
       376        2.0000           -0.3683228             -10.0226
       377        2.0000           -0.3678196             -10.0089
       378        2.0000           -0.3640436              -9.9061
       379        2.0000           -0.3625495              -9.8655
       380        2.0000           -0.3613834              -9.8337
       381        2.0000           -0.3495691              -9.5123 (HOMO)
       382                         -0.3128239              -8.5124 (LUMO)
       383                         -0.2986691              -8.1272
       384                         -0.2930304              -7.9738
       385                         -0.2812442              -7.6530
       386                         -0.2767545              -7.5309
       387                         -0.2714257              -7.3859
       388                         -0.2667620              -7.2590
       389                         -0.2648440              -7.2068
       390                         -0.2603200              -7.0837
       391                         -0.2530282              -6.8852
       392                         -0.2522370              -6.8637
       ...                                ...                  ...
       788                          0.7258975              19.7527
      -------------------------------------------------------------
                  HL-Gap            0.0367451 Eh            0.9999 eV
             Fermi-level           -0.3311965 Eh           -9.0123 eV

     #   Z          covCN         q      C6AA      α(0)
     1   6 C        2.934    -0.009    28.248     8.716
     2   6 C        3.071    -0.051    29.183     8.858
     3   6 C        3.146    -0.005    27.875     8.638
     4   6 C        2.993    -0.005    28.138     8.701
     5   6 C        2.978     0.015    27.681     8.630
     6   6 C        2.922    -0.037    28.930     8.820
     7   6 C        2.983    -0.039    28.958     8.827
     8   6 C        2.959     0.036    27.200     8.554
     9  16 S        2.049    -0.181   148.730    20.526
    10   6 C        3.793     0.001    20.573     6.459
    11   6 C        3.778    -0.100    22.433     6.748
    12   6 C        2.802     0.162    24.489     8.107
    13   9 F        0.787    -0.244    11.696     4.040
    14   6 C        2.925    -0.052    29.302     8.877
    15   6 C        3.006     0.026    27.401     8.587
    16   6 C        3.135    -0.003    27.886     8.644
    17   6 C        2.992    -0.004    28.106     8.696
    18   6 C        2.978     0.013    27.728     8.638
    19   6 C        2.922    -0.037    28.913     8.818
    20   6 C        2.995    -0.040    28.971     8.829
    21   6 C        2.959     0.035    27.216     8.557
    22  16 S        2.053    -0.170   148.265    20.494
    23   6 C        3.793     0.004    20.527     6.452
    24   6 C        3.775    -0.106    22.544     6.765
    25   6 C        2.799     0.160    24.525     8.113
    26   6 C        2.925    -0.052    29.283     8.874
    27   9 F        0.787    -0.244    11.698     4.040
    28   6 C        3.007     0.024    27.464     8.597
    29  16 S        2.250    -0.059   143.515    20.163
    30   6 C        3.063    -0.055    29.291     8.875
    31   6 C        3.016     0.031    27.292     8.569
    32  16 S        2.273    -0.083   144.496    20.232
    33   6 C        3.020     0.029    27.324     8.574
    34   6 C        3.065    -0.054    29.265     8.871
    35   6 C        3.136    -0.004    27.896     8.645
    36   6 C        2.995    -0.004    28.119     8.699
    37   6 C        2.979     0.012    27.751     8.641
    38   6 C        2.923    -0.040    29.000     8.831
    39   6 C        2.945    -0.044    29.082     8.845
    40   6 C        2.961     0.036    27.203     8.555
    41  16 S        2.050    -0.158   147.744    20.458
    42   6 C        3.793    -0.002    20.629     6.468
    43   6 C        3.777    -0.105    22.527     6.762
    44   6 C        2.840     0.164    24.456     8.104
    45   9 F        0.787    -0.236    11.611     4.025
    46   6 C        2.923    -0.051    29.260     8.871
    47   6 C        3.007     0.027    27.381     8.584
    48   6 C        3.136    -0.003    27.868     8.641
    49   6 C        2.991    -0.007    28.182     8.708
    50   6 C        2.978     0.011    27.754     8.642
    51   6 C        2.924    -0.041    29.022     8.835
    52   6 C        2.943    -0.046    29.146     8.854
    53   6 C        2.960     0.034    27.243     8.561
    54  16 S        2.053    -0.152   147.458    20.438
    55   6 C        3.793    -0.004    20.659     6.473
    56   6 C        3.778    -0.106    22.558     6.767
    57   6 C        2.844     0.163    24.475     8.108
    58   6 C        2.922    -0.052    29.288     8.875
    59   9 F        0.788    -0.237    11.622     4.027
    60   6 C        3.004     0.026    27.402     8.587
    61  16 S        2.270    -0.080   144.399    20.225
    62   6 C        3.062    -0.061    29.462     8.901
    63   6 C        3.040     0.033    27.218     8.557
    64  16 S        2.374    -0.083   144.519    20.233
    65   6 C        3.018     0.011    27.751     8.641
    66  16 S        2.581    -0.015   141.681    20.034
    67   6 C        3.041     0.009    27.779     8.645
    68   6 C        3.148    -0.005    27.887     8.639
    69   6 C        3.151    -0.010    27.981     8.652
    70   6 C        2.915    -0.049    29.226     8.865
    71   6 C        2.963     0.004    27.927     8.668
    72   6 C        3.759    -0.110    22.661     6.787
    73   6 C        2.868     0.138    24.996     8.195
    74   8 O        1.705    -0.281    18.670     5.834
    75   6 C        3.645     0.035    20.322     6.479
    76   6 C        2.908    -0.084    30.100     8.996
    77   6 C        3.035     0.015    27.637     8.623
    78  16 S        2.579    -0.018   141.786    20.041
    79   6 C        3.023     0.004    27.904     8.665
    80   6 C        3.151    -0.005    27.872     8.635
    81   6 C        3.150    -0.012    28.025     8.659
    82   6 C        2.914    -0.050    29.236     8.866
    83   6 C        2.963     0.001    27.992     8.678
    84   6 C        3.759    -0.111    22.666     6.787
    85   6 C        2.867     0.139    24.970     8.191
    86   8 O        1.705    -0.280    18.643     5.830
    87   6 C        3.645     0.036    20.310     6.477
    88   6 C        2.907    -0.082    30.054     8.989
    89   6 C        3.042     0.034    27.206     8.555
    90   6 C        3.061    -0.064    29.523     8.910
    91   6 C        3.134    -0.003    27.874     8.642
    92   6 C        2.991    -0.007    28.178     8.708
    93   6 C        2.978     0.015    27.673     8.629
    94   6 C        2.922    -0.039    28.964     8.826
    95   6 C        2.978    -0.039    28.968     8.829
    96   6 C        2.960     0.035    27.210     8.556
    97  16 S        2.046    -0.188   149.040    20.547
    98   6 C        3.793     0.002    20.559     6.457
    99   6 C        3.779    -0.100    22.429     6.747
   100   6 C        2.804     0.164    24.459     8.102
   101   9 F        0.787    -0.240    11.660     4.033
   102   6 C        2.924    -0.052    29.299     8.877
   103   6 C        3.006     0.025    27.432     8.592
   104   6 C        3.138    -0.005    27.904     8.645
   105   6 C        2.995    -0.007    28.179     8.708
   106   6 C        2.978     0.019    27.588     8.616
   107   6 C        2.922    -0.036    28.898     8.816
   108   6 C        2.966    -0.036    28.898     8.818
   109   6 C        2.960     0.033    27.257     8.563
   110  16 S        2.040    -0.200   149.549    20.582
   111   6 C        3.793     0.002    20.559     6.457
   112   6 C        3.780    -0.101    22.441     6.749
   113   6 C        2.808     0.162    24.483     8.107
   114   6 C        2.924    -0.053    29.316     8.879
   115   9 F        0.787    -0.244    11.698     4.040
   116   6 C        3.005     0.027    27.375     8.583
   117  16 S        2.365    -0.082   144.489    20.231
   118   6 C        3.074    -0.059    29.384     8.888
   119   6 C        3.008     0.030    27.311     8.573
   120  16 S        2.265    -0.069   143.916    20.191
   121   6 C        3.006     0.029    27.337     8.577
   122   6 C        3.072    -0.058    29.353     8.883
   123   6 C        3.136    -0.004    27.901     8.646
   124   6 C        2.991    -0.004    28.104     8.696
   125   6 C        2.977     0.009    27.804     8.649
   126   6 C        2.925    -0.041    29.022     8.835
   127   6 C        2.943    -0.047    29.157     8.856
   128   6 C        2.960     0.035    27.215     8.557
   129  16 S        2.051    -0.146   147.215    20.421
   130   6 C        3.793    -0.004    20.662     6.473
   131   6 C        3.775    -0.106    22.559     6.767
   132   6 C        2.846     0.163    24.486     8.110
   133   9 F        0.788    -0.237    11.622     4.027
   134   6 C        2.922    -0.051    29.279     8.873
   135   6 C        3.006     0.024    27.462     8.596
   136   6 C        3.145    -0.004    27.874     8.638
   137   6 C        2.990    -0.005    28.130     8.700
   138   6 C        2.978     0.014    27.697     8.633
   139   6 C        2.922    -0.038    28.939     8.822
   140   6 C        2.982    -0.040    28.978     8.830
   141   6 C        2.960     0.033    27.257     8.563
   142  16 S        2.066    -0.175   148.451    20.507
   143   6 C        3.792     0.004    20.520     6.451
   144   6 C        3.796    -0.106    22.535     6.760
   145   6 C        2.803     0.160    24.523     8.113
   146   6 C        2.924    -0.051    29.272     8.873
   147   9 F        0.787    -0.245    11.714     4.043
   148   6 C        3.007     0.025    27.431     8.591
   149  16 S        2.264    -0.073   144.087    20.203
   150   6 C        3.071    -0.051    29.177     8.857
   151   6 C        2.934    -0.009    28.252     8.717
   152  16 S        2.249    -0.057   143.398    20.155
   153   1 H        0.926     0.055     2.252     2.347
   154   1 H        0.926     0.049     2.331     2.388
   155   1 H        0.926     0.057     2.240     2.340
   156   1 H        0.926     0.063     2.158     2.297
   157   1 H        0.925     0.063     2.159     2.298
   158   1 H        0.925     0.058     2.226     2.333
   159   1 H        0.925     0.049     2.338     2.391
   160   1 H        0.925     0.042     2.422     2.434
   161   1 H        0.925     0.049     2.329     2.387
   162   1 H        0.926     0.067     2.116     2.275
   163   1 H        0.926     0.056     2.248     2.345
   164   1 H        0.926     0.063     2.162     2.299
   165   1 H        0.925     0.060     2.201     2.320
   166   1 H        0.925     0.055     2.257     2.349
   167   1 H        0.925     0.047     2.356     2.400
   168   1 H        0.925     0.058     2.228     2.334
   169   1 H        0.925     0.048     2.344     2.394
   170   1 H        0.926     0.067     2.115     2.274
   171   1 H        0.926     0.055     2.263     2.352
   172   1 H        0.926     0.056     2.251     2.346
   173   1 H        0.926     0.053     2.284     2.363
   174   1 H        0.926     0.059     2.216     2.328
   175   1 H        0.925     0.061     2.186     2.312
   176   1 H        0.925     0.053     2.284     2.363
   177   1 H        0.925     0.052     2.294     2.368
   178   1 H        0.925     0.055     2.257     2.349
   179   1 H        0.925     0.044     2.391     2.418
   180   1 H        0.926     0.067     2.115     2.274
   181   1 H        0.926     0.052     2.289     2.366
   182   1 H        0.926     0.056     2.248     2.344
   183   1 H        0.925     0.062     2.181     2.310
   184   1 H        0.925     0.053     2.279     2.361
   185   1 H        0.925     0.053     2.281     2.362
   186   1 H        0.925     0.049     2.334     2.389
   187   1 H        0.925     0.048     2.340     2.392
   188   1 H        0.926     0.068     2.102     2.267
   189   1 H        0.926     0.051     2.313     2.378
   190   1 H        0.926     0.046     2.370     2.407
   191   1 H        0.925     0.062     2.181     2.309
   192   1 H        0.925     0.047     2.361     2.403
   193   1 H        0.925     0.061     2.192     2.315
   194   1 H        0.924     0.046     2.370     2.407
   195   1 H        0.925     0.069     2.098     2.265
   196   1 H        0.924     0.048     2.347     2.396
   197   1 H        0.926     0.051     2.307     2.375
   198   1 H        0.926     0.050     2.323     2.384
   199   1 H        0.925     0.061     2.187     2.313
   200   1 H        0.925     0.046     2.369     2.407
   201   1 H        0.925     0.060     2.201     2.320
   202   1 H        0.924     0.046     2.372     2.408
   203   1 H        0.924     0.047     2.363     2.404
   204   1 H        0.925     0.070     2.086     2.259
   205   1 H        0.926     0.042     2.419     2.432
   206   1 H        0.926     0.047     2.359     2.402
   207   1 H        0.926     0.056     2.245     2.343
   208   1 H        0.926     0.063     2.164     2.300
   209   1 H        0.925     0.063     2.165     2.301
   210   1 H        0.925     0.057     2.237     2.339
   211   1 H        0.925     0.049     2.335     2.389
   212   1 H        0.925     0.042     2.420     2.433
   213   1 H        0.925     0.049     2.330     2.387
   214   1 H        0.926     0.068     2.111     2.272
   215   1 H        0.926     0.062     2.178     2.308
   216   1 H        0.926     0.069     2.102     2.267
   217   1 H        0.925     0.059     2.216     2.328
   218   1 H        0.925     0.055     2.255     2.348
   219   1 H        0.925     0.048     2.340     2.392
   220   1 H        0.925     0.040     2.446     2.446
   221   1 H        0.925     0.053     2.288     2.366
   222   1 H        0.926     0.067     2.119     2.277
   223   1 H        0.926     0.048     2.348     2.396
   224   1 H        0.926     0.051     2.310     2.377
   225   1 H        0.926     0.049     2.327     2.385
   226   1 H        0.926     0.059     2.207     2.323
   227   1 H        0.925     0.058     2.223     2.332
   228   1 H        0.925     0.064     2.147     2.292
   229   1 H        0.925     0.047     2.352     2.398
   230   1 H        0.925     0.049     2.334     2.389
   231   1 H        0.925     0.053     2.281     2.362
   232   1 H        0.926     0.069     2.100     2.266
   233   1 H        0.926     0.057     2.238     2.340
   234   1 H        0.926     0.063     2.161     2.299
   235   1 H        0.925     0.058     2.217     2.328
   236   1 H        0.925     0.053     2.285     2.364
   237   1 H        0.925     0.051     2.307     2.375
   238   1 H        0.925     0.050     2.316     2.380
   239   1 H        0.925     0.051     2.303     2.373
   240   1 H        0.926     0.069     2.101     2.267
   241   1 H        0.926     0.050     2.321     2.382
   242   1 H        0.926     0.056     2.249     2.345

 Mol. C6AA /au·bohr⁶  :    1057606.559027
 Mol. C8AA /au·bohr⁸  :   31193370.226171
 Mol. α(0) /au        :       1654.084095


Wiberg/Mayer (AO) data.
largest (>0.10) Wiberg bond orders for each atom

 ---------------------------------------------------------------------------
     #   Z sym  total        # sym  WBO       # sym  WBO       # sym  WBO
 ---------------------------------------------------------------------------
     1   6 C    3.932 --     2 C    1.682    29 S    1.150   153 H    0.968
     2   6 C    3.981 --     1 C    1.682     3 C    1.193   154 H    0.960
                            29 S    0.100
     3   6 C    3.970 --     4 C    1.299    28 C    1.261     2 C    1.193
     4   6 C    3.980 --    15 C    1.384     3 C    1.299     5 C    1.041
     5   6 C    3.985 --    14 C    1.385     6 C    1.373     4 C    1.041
     6   6 C    3.987 --     7 C    1.468     5 C    1.373   155 H    0.966
     7   6 C    3.987 --     6 C    1.468     8 C    1.373   156 H    0.966
                            14 C    0.101
     8   6 C    3.964 --     7 C    1.373    12 C    1.352     9 S    1.049
     9  16 S    2.227 --     8 C    1.049    10 C    0.973
    10   6 C    3.968 --    11 C    1.028     9 S    0.973   157 H    0.972
                           158 H    0.968
    11   6 C    3.993 --    10 C    1.028   161 H    0.986   160 H    0.985
                           159 H    0.978
    12   6 C    3.875 --    14 C    1.412     8 C    1.352    13 F    0.941
    13   9 F    1.071 --    12 C    0.941
    14   6 C    3.983 --    12 C    1.412     5 C    1.385   162 H    0.961
                             7 C    0.101
    15   6 C    3.945 --     4 C    1.384    16 C    1.249    32 S    1.095
    16   6 C    3.981 --    17 C    1.293    15 C    1.249    30 C    1.219
    17   6 C    3.962 --    28 C    1.378    16 C    1.293    18 C    1.044
    18   6 C    3.986 --    26 C    1.388    19 C    1.365    17 C    1.044
    19   6 C    3.986 --    20 C    1.476    18 C    1.365   163 H    0.966
    20   6 C    3.986 --    19 C    1.476    21 C    1.363   164 H    0.965
                            26 C    0.101
    21   6 C    3.962 --    20 C    1.363    25 C    1.351    22 S    1.062
    22  16 S    2.252 --    21 C    1.062    23 C    0.971
    23   6 C    3.968 --    24 C    1.028   165 H    0.973   166 H    0.971
                            22 S    0.971
    24   6 C    3.992 --    23 C    1.028   169 H    0.986   168 H    0.984
                           167 H    0.978
    25   6 C    3.875 --    26 C    1.409    21 C    1.351    27 F    0.940
    26   6 C    3.981 --    25 C    1.409    18 C    1.388   170 H    0.961
                            20 C    0.101
    27   9 F    1.070 --    25 C    0.940
    28   6 C    3.951 --    17 C    1.378     3 C    1.261    29 S    1.100
    29  16 S    2.533 --     1 C    1.150    28 C    1.100     2 C    0.100
    30   6 C    3.953 --    31 C    1.556    16 C    1.219   171 H    0.955
    31   6 C    3.939 --    30 C    1.556    33 C    1.156    32 S    1.078
    32  16 S    2.487 --    15 C    1.095    31 C    1.078
    33   6 C    3.930 --    34 C    1.547    31 C    1.156    61 S    1.080
    34   6 C    3.955 --    33 C    1.547    35 C    1.229   172 H    0.954
    35   6 C    3.964 --    36 C    1.281    60 C    1.247    34 C    1.229
    36   6 C    3.960 --    47 C    1.390    35 C    1.281    37 C    1.046
    37   6 C    3.986 --    38 C    1.380    46 C    1.370    36 C    1.046
    38   6 C    3.986 --    39 C    1.453    37 C    1.380   173 H    0.965
    39   6 C    3.987 --    38 C    1.453    40 C    1.381   174 H    0.961
    40   6 C    3.962 --    39 C    1.381    44 C    1.332    41 S    1.061
    41  16 S    2.265 --    40 C    1.061    42 C    0.979
    42   6 C    3.971 --    43 C    1.026    41 S    0.979   176 H    0.970
                           175 H    0.968
    43   6 C    3.992 --    42 C    1.026   177 H    0.984   179 H    0.983
                           178 H    0.975
    44   6 C    3.876 --    46 C    1.427    40 C    1.332    45 F    0.949
    45   9 F    1.084 --    44 C    0.949
    46   6 C    3.981 --    44 C    1.427    37 C    1.370   180 H    0.961
    47   6 C    3.937 --    36 C    1.390    48 C    1.242    64 S    1.094
    48   6 C    3.969 --    49 C    1.277    47 C    1.242    62 C    1.235
    49   6 C    3.952 --    60 C    1.385    48 C    1.277    50 C    1.050
    50   6 C    3.986 --    51 C    1.378    58 C    1.369    49 C    1.050
    51   6 C    3.985 --    52 C    1.454    50 C    1.378   181 H    0.966
    52   6 C    3.987 --    51 C    1.454    53 C    1.380   182 H    0.961
    53   6 C    3.961 --    52 C    1.380    57 C    1.329    54 S    1.064
    54  16 S    2.273 --    53 C    1.064    55 C    0.981
    55   6 C    3.973 --    56 C    1.026    54 S    0.981   184 H    0.969
                           183 H    0.969
    56   6 C    3.992 --    55 C    1.026   185 H    0.986   187 H    0.984
                           186 H    0.978
    57   6 C    3.875 --    58 C    1.429    53 C    1.329    59 F    0.947
    58   6 C    3.980 --    57 C    1.429    50 C    1.369   188 H    0.960
    59   9 F    1.083 --    57 C    0.947
    60   6 C    3.943 --    49 C    1.385    35 C    1.247    61 S    1.095
    61  16 S    2.487 --    60 C    1.095    33 C    1.080
    62   6 C    3.940 --    63 C    1.511    48 C    1.235   189 H    0.954
    63   6 C    3.934 --    62 C    1.511    65 C    1.192    64 S    1.079
    64  16 S    2.487 --    47 C    1.094    63 C    1.079
    65   6 C    3.895 --    69 C    1.322    63 C    1.192    66 S    1.148
    66  16 S    2.635 --    65 C    1.148    67 C    1.143
    67   6 C    3.915 --    68 C    1.309    77 C    1.213    66 S    1.143
    68   6 C    3.972 --    67 C    1.309    76 C    1.258    69 C    1.193
    69   6 C    3.972 --    65 C    1.322    70 C    1.246    68 C    1.193
    70   6 C    3.979 --    71 C    1.568    69 C    1.246   190 H    0.960
    71   6 C    3.974 --    70 C    1.568    73 C    1.190    72 C    1.032
    72   6 C    3.992 --    71 C    1.032   192 H    0.985   193 H    0.968
                           191 H    0.966
    73   6 C    3.913 --    76 C    1.496    71 C    1.190    74 O    1.063
    74   8 O    2.219 --    73 C    1.063    75 C    0.979
    75   6 C    3.939 --    74 O    0.979   195 H    0.979   194 H    0.976
                           196 H    0.975
    76   6 C    3.974 --    73 C    1.496    68 C    1.258   197 H    0.955
    77   6 C    3.920 --    81 C    1.318    67 C    1.213    78 S    1.148
    78  16 S    2.637 --    77 C    1.148    79 C    1.142
    79   6 C    3.892 --    80 C    1.329    89 C    1.179    78 S    1.142
    80   6 C    3.974 --    79 C    1.329    88 C    1.253    81 C    1.190
    81   6 C    3.970 --    77 C    1.318    82 C    1.247    80 C    1.190
    82   6 C    3.982 --    83 C    1.565    81 C    1.247   198 H    0.960
    83   6 C    3.964 --    82 C    1.565    85 C    1.189    84 C    1.031
    84   6 C    3.993 --    83 C    1.031   200 H    0.985   199 H    0.968
                           201 H    0.966
    85   6 C    3.920 --    88 C    1.498    83 C    1.189    86 O    1.066
    86   8 O    2.223 --    85 C    1.066    87 C    0.979
    87   6 C    3.939 --    86 O    0.979   204 H    0.979   202 H    0.976
                           203 H    0.975
    88   6 C    3.970 --    85 C    1.498    80 C    1.253   205 H    0.959
    89   6 C    3.932 --    90 C    1.526    79 C    1.179   117 S    1.075
    90   6 C    3.941 --    89 C    1.526    91 C    1.230   206 H    0.955
    91   6 C    3.971 --    92 C    1.286   116 C    1.238    90 C    1.230
    92   6 C    3.955 --   103 C    1.382    91 C    1.286    93 C    1.044
    93   6 C    3.985 --   102 C    1.384    94 C    1.372    92 C    1.044
    94   6 C    3.985 --    95 C    1.466    93 C    1.372   207 H    0.966
    95   6 C    3.987 --    94 C    1.466    96 C    1.378   208 H    0.966
                           102 C    0.100
    96   6 C    3.963 --    95 C    1.378   100 C    1.351    97 S    1.044
    97  16 S    2.211 --    96 C    1.044    98 C    0.970
    98   6 C    3.967 --    99 C    1.028   209 H    0.973    97 S    0.970
                           210 H    0.969
    99   6 C    3.994 --    98 C    1.028   211 H    0.986   212 H    0.985
                           213 H    0.978
   100   6 C    3.876 --   102 C    1.412    96 C    1.351   101 F    0.944
   101   9 F    1.076 --   100 C    0.944
   102   6 C    3.981 --   100 C    1.412    93 C    1.384   214 H    0.962
                            95 C    0.100
   103   6 C    3.945 --    92 C    1.382   104 C    1.250   120 S    1.097
   104   6 C    3.967 --   105 C    1.276   103 C    1.250   118 C    1.230
   105   6 C    3.962 --   116 C    1.394   104 C    1.276   106 C    1.045
   106   6 C    3.983 --   107 C    1.381   114 C    1.378   105 C    1.045
   107   6 C    3.983 --   108 C    1.457   106 C    1.381   215 H    0.963
   108   6 C    3.986 --   107 C    1.457   109 C    1.390   216 H    0.964
                           114 C    0.101
   109   6 C    3.963 --   108 C    1.390   113 C    1.355   110 S    1.025
   110  16 S    2.172 --   109 C    1.025   111 C    0.967
   111   6 C    3.967 --   112 C    1.028   217 H    0.973   218 H    0.970
                           110 S    0.967
   112   6 C    3.993 --   111 C    1.028   220 H    0.985   221 H    0.984
                           219 H    0.977
   113   6 C    3.875 --   114 C    1.417   109 C    1.355   115 F    0.940
   114   6 C    3.984 --   113 C    1.417   106 C    1.378   222 H    0.962
                           108 C    0.101
   115   9 F    1.072 --   113 C    0.940
   116   6 C    3.941 --   105 C    1.394    91 C    1.238   117 S    1.099
   117  16 S    2.487 --   116 C    1.099    89 C    1.075
   118   6 C    3.958 --   119 C    1.546   104 C    1.230   223 H    0.957
   119   6 C    3.932 --   118 C    1.546   121 C    1.141   120 S    1.095
   120  16 S    2.495 --   103 C    1.097   119 C    1.095
   121   6 C    3.938 --   122 C    1.553   119 C    1.141   149 S    1.091
   122   6 C    3.957 --   121 C    1.553   123 C    1.222   224 H    0.956
   123   6 C    3.981 --   124 C    1.288   148 C    1.251   122 C    1.222
   124   6 C    3.964 --   135 C    1.378   123 C    1.288   125 C    1.050
   125   6 C    3.986 --   126 C    1.377   134 C    1.368   124 C    1.050
   126   6 C    3.986 --   127 C    1.454   125 C    1.377   225 H    0.966
   127   6 C    3.986 --   126 C    1.454   128 C    1.377   226 H    0.960
   128   6 C    3.961 --   127 C    1.377   132 C    1.326   129 S    1.073
   129  16 S    2.289 --   128 C    1.073   130 C    0.980
   130   6 C    3.970 --   131 C    1.026   129 S    0.980   227 H    0.970
                           228 H    0.967
   131   6 C    3.992 --   130 C    1.026   230 H    0.987   229 H    0.983
                           231 H    0.976
   132   6 C    3.875 --   134 C    1.432   128 C    1.326   133 F    0.947
   133   9 F    1.083 --   132 C    0.947
   134   6 C    3.981 --   132 C    1.432   125 C    1.368   232 H    0.961
   135   6 C    3.951 --   124 C    1.378   136 C    1.260   152 S    1.101
   136   6 C    3.971 --   137 C    1.299   135 C    1.260   150 C    1.193
   137   6 C    3.979 --   148 C    1.380   136 C    1.299   138 C    1.045
   138   6 C    3.986 --   146 C    1.385   139 C    1.368   137 C    1.045
   139   6 C    3.987 --   140 C    1.472   138 C    1.368   233 H    0.966
   140   6 C    3.986 --   139 C    1.472   141 C    1.369   234 H    0.966
                           146 C    0.100
   141   6 C    3.962 --   140 C    1.369   145 C    1.349   142 S    1.058
   142  16 S    2.231 --   141 C    1.058   143 C    0.968
   143   6 C    3.969 --   144 C    1.026   235 H    0.976   236 H    0.976
                           142 S    0.968
   144   6 C    3.992 --   143 C    1.026   239 H    0.986   237 H    0.986
                           238 H    0.978
   145   6 C    3.874 --   146 C    1.411   141 C    1.349   147 F    0.940
   146   6 C    3.982 --   145 C    1.411   138 C    1.385   240 H    0.961
                           140 C    0.100
   147   9 F    1.069 --   145 C    0.940
   148   6 C    3.945 --   137 C    1.380   123 C    1.251   149 S    1.096
   149  16 S    2.497 --   148 C    1.096   121 C    1.091
   150   6 C    3.981 --   151 C    1.682   136 C    1.193   241 H    0.959
   151   6 C    3.932 --   150 C    1.682   152 S    1.150   242 H    0.968
   152  16 S    2.533 --   151 C    1.150   135 C    1.101
   153   1 H    0.996 --     1 C    0.968
   154   1 H    0.997 --     2 C    0.960
   155   1 H    0.996 --     6 C    0.966
   156   1 H    0.995 --     7 C    0.966
   157   1 H    0.996 --    10 C    0.972
   158   1 H    0.996 --    10 C    0.968
   159   1 H    0.997 --    11 C    0.978
   160   1 H    0.998 --    11 C    0.985
   161   1 H    0.998 --    11 C    0.986
   162   1 H    0.995 --    14 C    0.961
   163   1 H    0.996 --    19 C    0.966
   164   1 H    0.995 --    20 C    0.965
   165   1 H    0.996 --    23 C    0.973
   166   1 H    0.996 --    23 C    0.971
   167   1 H    0.997 --    24 C    0.978
   168   1 H    0.997 --    24 C    0.984
   169   1 H    0.998 --    24 C    0.986
   170   1 H    0.995 --    26 C    0.961
   171   1 H    0.996 --    30 C    0.955
   172   1 H    0.996 --    34 C    0.954
   173   1 H    0.997 --    38 C    0.965
   174   1 H    0.996 --    39 C    0.961
   175   1 H    0.996 --    42 C    0.968
   176   1 H    0.997 --    42 C    0.970
   177   1 H    0.997 --    43 C    0.984
   178   1 H    0.997 --    43 C    0.975
   179   1 H    0.998 --    43 C    0.983
   180   1 H    0.995 --    46 C    0.961
   181   1 H    0.997 --    51 C    0.966
   182   1 H    0.996 --    52 C    0.961
   183   1 H    0.996 --    55 C    0.969
   184   1 H    0.997 --    55 C    0.969
   185   1 H    0.997 --    56 C    0.986
   186   1 H    0.997 --    56 C    0.978
   187   1 H    0.998 --    56 C    0.984
   188   1 H    0.995 --    58 C    0.960
   189   1 H    0.997 --    62 C    0.954
   190   1 H    0.997 --    70 C    0.960
   191   1 H    0.992 --    72 C    0.966
   192   1 H    0.997 --    72 C    0.985
   193   1 H    0.993 --    72 C    0.968
   194   1 H    0.997 --    75 C    0.976
   195   1 H    0.995 --    75 C    0.979
   196   1 H    0.997 --    75 C    0.975
   197   1 H    0.996 --    76 C    0.955
   198   1 H    0.996 --    82 C    0.960
   199   1 H    0.992 --    84 C    0.968
   200   1 H    0.997 --    84 C    0.985
   201   1 H    0.992 --    84 C    0.966
   202   1 H    0.997 --    87 C    0.976
   203   1 H    0.997 --    87 C    0.975
   204   1 H    0.995 --    87 C    0.979
   205   1 H    0.997 --    88 C    0.959
   206   1 H    0.997 --    90 C    0.955
   207   1 H    0.997 --    94 C    0.966
   208   1 H    0.995 --    95 C    0.966
   209   1 H    0.996 --    98 C    0.973
   210   1 H    0.996 --    98 C    0.969
   211   1 H    0.998 --    99 C    0.986
   212   1 H    0.998 --    99 C    0.985
   213   1 H    0.997 --    99 C    0.978
   214   1 H    0.995 --   102 C    0.962
   215   1 H    0.996 --   107 C    0.963
   216   1 H    0.995 --   108 C    0.964
   217   1 H    0.996 --   111 C    0.973
   218   1 H    0.996 --   111 C    0.970
   219   1 H    0.997 --   112 C    0.977
   220   1 H    0.998 --   112 C    0.985
   221   1 H    0.997 --   112 C    0.984
   222   1 H    0.995 --   114 C    0.962
   223   1 H    0.997 --   118 C    0.957
   224   1 H    0.997 --   122 C    0.956
   225   1 H    0.997 --   126 C    0.966
   226   1 H    0.996 --   127 C    0.960
   227   1 H    0.996 --   130 C    0.970
   228   1 H    0.996 --   130 C    0.967
   229   1 H    0.998 --   131 C    0.983
   230   1 H    0.998 --   131 C    0.987
   231   1 H    0.997 --   131 C    0.976
   232   1 H    0.995 --   134 C    0.961
   233   1 H    0.996 --   139 C    0.966
   234   1 H    0.995 --   140 C    0.966
   235   1 H    0.996 --   143 C    0.976
   236   1 H    0.997 --   143 C    0.976
   237   1 H    0.997 --   144 C    0.986
   238   1 H    0.997 --   144 C    0.978
   239   1 H    0.997 --   144 C    0.986
   240   1 H    0.995 --   146 C    0.961
   241   1 H    0.997 --   150 C    0.959
   242   1 H    0.996 --   151 C    0.968
 ---------------------------------------------------------------------------

Topologies differ in bond orders
Writing corrected topology to xtbtopo.mol

molecular dipole:
                 x           y           z       tot (Debye)
 q only:        2.571       2.803      -0.762
   full:        2.011       2.619      -1.629       9.360
molecular quadrupole (traceless):
                xx          xy          yy          xz          yz          zz
 q only:      -95.062     -55.127      69.658       4.177     -59.872      25.404
  q+dip:      -90.629     -61.346      68.612      19.703     -68.485      22.018
   full:      -91.749     -67.672      70.957      21.055     -61.725      20.792


           -------------------------------------------------
          | TOTAL ENERGY             -416.207904556859 Eh   |
          | GRADIENT NORM               0.019822560700 Eh/α |
          | HOMO-LUMO GAP               0.999885912863 eV   |
           -------------------------------------------------

------------------------------------------------------------------------
 * finished run on 2022/03/04 at 02:50:24.140     
------------------------------------------------------------------------
 total:
 * wall-time:     0 d,  0 h,  0 min,  1.225 sec
 *  cpu-time:     0 d,  0 h,  0 min,  9.657 sec
 * ratio c/w:     7.886 speedup
 SCF:
 * wall-time:     0 d,  0 h,  0 min,  1.080 sec
 *  cpu-time:     0 d,  0 h,  0 min,  8.621 sec
 * ratio c/w:     7.984 speedup

