      -----------------------------------------------------------      
     |                   =====================                   |     
     |                           x T B                           |     
     |                   =====================                   |     
     |                         S. Grimme                         |     
     |          Mulliken Center for Theoretical Chemistry        |     
     |                    University of Bonn                     |     
      -----------------------------------------------------------      

   * xtb version 6.4.1 (unknown) compiled by 'oda6@login1.crc.pitt.edu' on 2021-06-25

   xtb is free software: you can redistribute it and/or modify it under
   the terms of the GNU Lesser General Public License as published by
   the Free Software Foundation, either version 3 of the License, or
   (at your option) any later version.
   
   xtb is distributed in the hope that it will be useful,
   but WITHOUT ANY WARRANTY; without even the implied warranty of
   MERCHANTABILITY or FITNESS FOR A PARTICULAR PURPOSE.  See the
   GNU Lesser General Public License for more details.
   
   Cite this work as:
   * C. Bannwarth, E. Caldeweyher, S. Ehlert, A. Hansen, P. Pracht,
     J. Seibert, S. Spicher, S. Grimme, WIREs Comput. Mol. Sci., 2020, 11,
     e01493. DOI: 10.1002/wcms.1493
   
   for GFN2-xTB:
   * C. Bannwarth, S. Ehlert and S. Grimme., J. Chem. Theory Comput., 2019,
     15, 1652-1671. DOI: 10.1021/acs.jctc.8b01176
   for GFN1-xTB:
   * S. Grimme, C. Bannwarth, P. Shushkov, J. Chem. Theory Comput., 2017,
     13, 1989-2009. DOI: 10.1021/acs.jctc.7b00118
   for GFN0-xTB:
   * P. Pracht, E. Caldeweyher, S. Ehlert, S. Grimme, ChemRxiv, 2019, preprint.
     DOI: 10.26434/chemrxiv.8326202.v1
   for GFN-FF:
   * S. Spicher and S. Grimme, Angew. Chem. Int. Ed., 2020, 59, 15665-15673.
     DOI: 10.1002/anie.202004239
   
   for DFT-D4:
   * E. Caldeweyher, C. Bannwarth and S. Grimme, J. Chem. Phys., 2017,
     147, 034112. DOI: 10.1063/1.4993215
   * E. Caldeweyher, S. Ehlert, A. Hansen, H. Neugebauer, S. Spicher,
     C. Bannwarth and S. Grimme, J. Chem. Phys., 2019, 150, 154122.
     DOI: 10.1063/1.5090222
   * E. Caldeweyher, J.-M. Mewes, S. Ehlert and S. Grimme, Phys. Chem. Chem. Phys.
     2020, 22, 8499-8512. DOI: 10.1039/D0CP00502A
   
   for sTDA-xTB:
   * S. Grimme and C. Bannwarth, J. Chem. Phys., 2016, 145, 054103.
     DOI: 10.1063/1.4959605
   
   in the mass-spec context:
   * V. Asgeirsson, C. Bauer and S. Grimme, Chem. Sci., 2017, 8, 4879.
     DOI: 10.1039/c7sc00601b
   * J. Koopman and S. Grimme, ACS Omega 2019, 4, 12, 15120-15133.
     DOI: 10.1021/acsomega.9b02011
   
   for metadynamics refer to:
   * S. Grimme, J. Chem. Theory Comput., 2019, 155, 2847-2862
     DOI: 10.1021/acs.jctc.9b00143
   
   for SPH calculations refer to:
   * S. Spicher and S. Grimme, J. Chem. Theory Comput., 2021, 17, 1701-1714
     DOI: 10.1021/acs.jctc.0c01306
   
   with help from (in alphabetical order)
   P. Atkinson, C. Bannwarth, F. Bohle, G. Brandenburg, E. Caldeweyher
   M. Checinski, S. Dohm, S. Ehlert, S. Ehrlich, I. Gerasimov, J. Koopman
   C. Lavigne, S. Lehtola, F. März, M. Müller, F. Musil, H. Neugebauer
   J. Pisarek, C. Plett, P. Pracht, J. Seibert, P. Shushkov, S. Spicher
   M. Stahn, M. Steiner, T. Strunk, J. Stückrath, T. Rose, and J. Unsleber
   
 * started run on 2022/02/28 at 21:59:52.353     

           -------------------------------------------------
          |                Calculation Setup                |
           -------------------------------------------------

          program call               : /ihome/ghutchison/oda6/xtb/xtb-641/bin/xtb ../../GFN2_output/959_827_010001.mol --sp --alpb hexane
          hostname                   : smp-n90
          coordinate file            : ../../GFN2_output/959_827_010001.mol
          omp threads                :                     8
          number of atoms            :                   172
          number of electrons        :                   502
          charge                     :                     0
          spin                       :                   0.0
          first test random number   :      0.92228671321383

   ID    Z sym.   atoms
    1    6 C      1, 3-5, 7, 9-12, 15-17, 19-25, 27-34, 36-38, 40, 42-45,
                  48-50, 52-54, 56, 58-61, 64-66, 68-70, 72, 74-77, 80-82,
                  84-90, 92-98
    2   16 S      2, 18, 26, 35, 51, 67, 83, 91
    3    7 N      6, 13, 14, 39, 46, 47, 55, 62, 63, 71, 78, 79
    4    8 O      8, 41, 57, 73
    5    1 H      99-172

           -------------------------------------------------
          |                 G F N 2 - x T B                 |
           -------------------------------------------------

        Reference                      10.1021/acs.jctc.8b01176
      * Hamiltonian:
        H0-scaling (s, p, d)           1.850000    2.230000    2.230000
        zeta-weighting                 0.500000
      * Dispersion:
        s8                             2.700000
        a1                             0.520000
        a2                             5.000000
        s9                             5.000000
      * Repulsion:
        kExp                           1.500000    1.000000
        rExp                           1.000000
      * Coulomb:
        alpha                          2.000000
        third order                    shell-resolved
        anisotropic                    true
        a3                             3.000000
        a5                             4.000000
        cn-shift                       1.200000
        cn-exp                         4.000000
        max-rad                        5.000000

      * Solvation model:               ALPB
        Solvent                        hexane
        Parameter file                 internal GFN2-xTB/ALPB
        Dielectric constant                1.8800E+00
        Reference state                gsolv [1 M gas/solution]
        Free energy shift                  4.8134E-03 Eh       3.0204E+00 kcal/mol
        Temperature                        2.9815E+02 K
        Density                            6.6000E-01 kg/L
        Solvent mass                       8.6180E+01 g/mol
        Interaction kernel             P16
        Born radius scaling (c1)           1.1040E+00
        Born radii integrator          GBOBC
        Born offset                        0.0000E+00 a0       0.0000E+00 AA
        H-bond correction              false
        Ion screening                  false
        Surface tension                    1.0000E-05 Eh       1.5569E+01 dyn/cm
        Grid points                               230 per atom

          ...................................................
          :                      SETUP                      :
          :.................................................:
          :  # basis functions                 514          :
          :  # atomic orbitals                 506          :
          :  # shells                          278          :
          :  # electrons                       502          :
          :  max. iterations                   250          :
          :  Hamiltonian                  GFN2-xTB          :
          :  restarted?                      false          :
          :  GBSA solvation                   true          :
          :  PC potential                    false          :
          :  electronic temp.          300.0000000     K    :
          :  accuracy                    1.0000000          :
          :  -> integral cutoff          0.2500000E+02      :
          :  -> integral neglect         0.1000000E-07      :
          :  -> SCF convergence          0.1000000E-05 Eh   :
          :  -> wf. convergence          0.1000000E-03 e    :
          :  Broyden damping             0.4000000          :
          ...................................................

 iter      E             dE          RMSdq      gap      omega  full diag
   1   -277.2210800 -0.277221E+03  0.402E+00    1.04       0.0  T
   2   -277.4280348 -0.206955E+00  0.233E+00    1.01       1.0  T
   3   -277.3777227  0.503121E-01  0.107E+00    0.98       1.0  T
   4   -277.4637507 -0.860280E-01  0.380E-01    0.99       1.0  T
   5   -277.4721641 -0.841348E-02  0.185E-01    0.97       1.0  T
   6   -277.4749236 -0.275950E-02  0.885E-02    0.97       1.0  T
   7   -277.4755662 -0.642513E-03  0.477E-02    0.97       1.0  T
   8   -277.4758080 -0.241816E-03  0.214E-02    0.97       1.0  T
   9   -277.4758429 -0.349520E-04  0.933E-03    0.97       1.0  T
  10   -277.4758466 -0.371821E-05  0.517E-03    0.97       1.5  T
  11   -277.4758481 -0.140836E-05  0.249E-03    0.97       3.1  T
  12   -277.4758485 -0.400247E-06  0.122E-03    0.97       6.2  T
  13   -277.4758485 -0.682870E-07  0.652E-04    0.97      11.7  T
  14   -277.4758485 -0.142343E-07  0.333E-04    0.97      22.9  T

   *** convergence criteria satisfied after 14 iterations ***

         #    Occupation            Energy/Eh            Energy/eV
      -------------------------------------------------------------
         1        2.0000           -0.7398073             -20.1312
       ...           ...                  ...                  ...
       245        2.0000           -0.3649530              -9.9309
       246        2.0000           -0.3626944              -9.8694
       247        2.0000           -0.3618277              -9.8458
       248        2.0000           -0.3594394              -9.7808
       249        2.0000           -0.3579822              -9.7412
       250        2.0000           -0.3535697              -9.6211
       251        2.0000           -0.3468688              -9.4388 (HOMO)
       252                         -0.3111519              -8.4669 (LUMO)
       253                         -0.3049171              -8.2972
       254                         -0.3001764              -8.1682
       255                         -0.2912434              -7.9251
       256                         -0.2651586              -7.2153
       ...                                ...                  ...
       506                          0.7200765              19.5943
      -------------------------------------------------------------
                  HL-Gap            0.0357169 Eh            0.9719 eV
             Fermi-level           -0.3290106 Eh           -8.9528 eV

 SCC (total)                   0 d,  0 h,  0 min,  0.573 sec
 SCC setup                      ...        0 min,  0.006 sec (  1.027%)
 Dispersion                     ...        0 min,  0.008 sec (  1.356%)
 classical contributions        ...        0 min,  0.000 sec (  0.057%)
 integral evaluation            ...        0 min,  0.028 sec (  4.863%)
 iterations                     ...        0 min,  0.429 sec ( 74.894%)
 molecular gradient             ...        0 min,  0.100 sec ( 17.386%)
 printout                       ...        0 min,  0.002 sec (  0.400%)

         :::::::::::::::::::::::::::::::::::::::::::::::::::::
         ::                     SUMMARY                     ::
         :::::::::::::::::::::::::::::::::::::::::::::::::::::
         :: total energy            -273.544945061818 Eh    ::
         :: total w/o Gsasa/hb      -273.466130905280 Eh    ::
         :: gradient norm              0.011154470350 Eh/a0 ::
         :: HOMO-LUMO gap              0.971905620857 eV    ::
         ::.................................................::
         :: SCC energy              -277.475848537565 Eh    ::
         :: -> isotropic ES            0.206031912210 Eh    ::
         :: -> anisotropic ES         -0.000497832810 Eh    ::
         :: -> anisotropic XC          0.157540471365 Eh    ::
         :: -> dispersion             -0.293634243384 Eh    ::
         :: -> Gsolv                  -0.101671161452 Eh    ::
         ::    -> Gelec               -0.022857004915 Eh    ::
         ::    -> Gsasa               -0.083627512358 Eh    ::
         ::    -> Ghb                  0.000000000000 Eh    ::
         ::    -> Gshift               0.004813355820 Eh    ::
         :: repulsion energy           3.909574572600 Eh    ::
         :: add. restraining           0.000000000000 Eh    ::
         :: total charge              -0.000000000008 e     ::
         :::::::::::::::::::::::::::::::::::::::::::::::::::::

           -------------------------------------------------
          |                Property Printout                |
           -------------------------------------------------

    * Orbital Energies and Occupations

         #    Occupation            Energy/Eh            Energy/eV
      -------------------------------------------------------------
         1        2.0000           -0.7398073             -20.1312
       ...           ...                  ...                  ...
       239        2.0000           -0.3776167             -10.2755
       240        2.0000           -0.3757196             -10.2239
       241        2.0000           -0.3742697             -10.1844
       242        2.0000           -0.3722932             -10.1306
       243        2.0000           -0.3710742             -10.0974
       244        2.0000           -0.3686747             -10.0321
       245        2.0000           -0.3649530              -9.9309
       246        2.0000           -0.3626944              -9.8694
       247        2.0000           -0.3618277              -9.8458
       248        2.0000           -0.3594394              -9.7808
       249        2.0000           -0.3579822              -9.7412
       250        2.0000           -0.3535697              -9.6211
       251        2.0000           -0.3468688              -9.4388 (HOMO)
       252                         -0.3111519              -8.4669 (LUMO)
       253                         -0.3049171              -8.2972
       254                         -0.3001764              -8.1682
       255                         -0.2912434              -7.9251
       256                         -0.2651586              -7.2153
       257                         -0.2642268              -7.1900
       258                         -0.2588818              -7.0445
       259                         -0.2520810              -6.8595
       260                         -0.2438062              -6.6343
       261                         -0.2408582              -6.5541
       262                         -0.2365217              -6.4361
       ...                                ...                  ...
       506                          0.7200765              19.5943
      -------------------------------------------------------------
                  HL-Gap            0.0357169 Eh            0.9719 eV
             Fermi-level           -0.3290106 Eh           -8.9528 eV

     #   Z          covCN         q      C6AA      α(0)
     1   6 C        2.929    -0.052    29.283     8.874
     2  16 S        2.326     0.004   140.891    19.978
     3   6 C        2.973     0.009    27.825     8.652
     4   6 C        3.188     0.050    26.425     8.386
     5   6 C        3.157     0.061    26.334     8.390
     6   7 N        1.832    -0.318    29.097     7.993
     7   6 C        2.860     0.233    23.131     7.883
     8   8 O        1.705    -0.271    18.500     5.807
     9   6 C        3.697     0.061    19.713     6.351
    10   6 C        3.750    -0.116    22.790     6.808
    11   6 C        2.957     0.066    26.511     8.445
    12   6 C        3.739     0.012    20.450     6.452
    13   7 N        2.629    -0.347    28.941     7.990
    14   7 N        1.840    -0.268    27.807     7.815
    15   6 C        2.920    -0.044    29.084     8.844
    16   6 C        2.938    -0.039    28.981     8.829
    17   6 C        2.991     0.021    27.525     8.606
    18  16 S        2.331    -0.041   142.749    20.109
    19   6 C        2.933    -0.021    28.534     8.760
    20   6 C        3.110    -0.048    29.046     8.830
    21   6 C        3.148     0.000    27.754     8.618
    22   6 C        2.902    -0.044    29.100     8.845
    23   6 C        2.950     0.015    27.676     8.629
    24   6 C        3.832    -0.063    21.682     6.625
    25   6 C        2.989     0.020    27.558     8.611
    26  16 S        2.357    -0.072   144.058    20.201
    27   6 C        2.985     0.018    27.610     8.619
    28   6 C        3.821    -0.053    21.509     6.600
    29   6 C        3.753    -0.112    22.700     6.794
    30   6 C        3.120    -0.063    29.388     8.879
    31   6 C        3.118    -0.063    29.379     8.878
    32   6 C        2.904    -0.035    28.862     8.809
    33   6 C        2.928    -0.038    28.934     8.821
    34   6 C        2.977     0.006    27.875     8.660
    35  16 S        2.450    -0.027   142.173    20.068
    36   6 C        2.972     0.009    27.803     8.649
    37   6 C        3.167     0.052    26.480     8.408
    38   6 C        3.168     0.060    26.311     8.381
    39   7 N        1.833    -0.305    28.747     7.945
    40   6 C        2.867     0.225    23.277     7.908
    41   8 O        1.705    -0.280    18.649     5.830
    42   6 C        3.702     0.078    19.425     6.302
    43   6 C        3.750    -0.116    22.789     6.808
    44   6 C        2.952     0.068    26.480     8.440
    45   6 C        3.738     0.013    20.437     6.451
    46   7 N        2.629    -0.347    28.935     7.989
    47   7 N        1.839    -0.261    27.636     7.791
    48   6 C        2.921    -0.032    28.787     8.799
    49   6 C        2.918    -0.034    28.858     8.809
    50   6 C        2.996     0.005    27.905     8.665
    51  16 S        2.402     0.001   141.029    19.987
    52   6 C        2.972     0.013    27.729     8.638
    53   6 C        3.166     0.051    26.511     8.414
    54   6 C        3.154     0.062    26.337     8.392
    55   7 N        1.834    -0.310    28.874     7.963
    56   6 C        2.865     0.227    23.242     7.902
    57   8 O        1.705    -0.280    18.655     5.832
    58   6 C        3.702     0.078    19.422     6.301
    59   6 C        3.750    -0.117    22.796     6.809
    60   6 C        2.955     0.065    26.550     8.451
    61   6 C        3.739     0.014    20.412     6.447
    62   7 N        2.629    -0.352    29.064     8.007
    63   7 N        1.841    -0.253    27.441     7.763
    64   6 C        2.928    -0.039    28.958     8.825
    65   6 C        2.930    -0.034    28.847     8.808
    66   6 C        2.982     0.004    27.928     8.669
    67  16 S        2.369     0.002   140.972    19.983
    68   6 C        2.970     0.008    27.838     8.655
    69   6 C        3.166     0.054    26.449     8.404
    70   6 C        3.164     0.062    26.272     8.377
    71   7 N        1.834    -0.310    28.876     7.963
    72   6 C        2.869     0.228    23.225     7.900
    73   8 O        1.705    -0.283    18.691     5.837
    74   6 C        3.700     0.079    19.411     6.301
    75   6 C        3.750    -0.117    22.795     6.809
    76   6 C        2.956     0.080    26.220     8.399
    77   6 C        3.738     0.019    20.329     6.434
    78   7 N        2.630    -0.345    28.894     7.983
    79   7 N        1.839    -0.260    27.611     7.787
    80   6 C        2.917    -0.039    28.980     8.828
    81   6 C        2.944    -0.036    28.889     8.815
    82   6 C        2.983     0.019    27.583     8.615
    83  16 S        2.341    -0.027   142.182    20.069
    84   6 C        2.928    -0.020    28.511     8.757
    85   6 C        3.120    -0.052    29.118     8.838
    86   6 C        3.139    -0.002    27.841     8.635
    87   6 C        2.911    -0.044    29.091     8.844
    88   6 C        2.947     0.011    27.777     8.644
    89   6 C        3.833    -0.062    21.661     6.622
    90   6 C        2.986     0.027    27.383     8.584
    91  16 S        2.362    -0.088   144.743    20.249
    92   6 C        2.988     0.017    27.617     8.620
    93   6 C        3.825    -0.050    21.457     6.592
    94   6 C        3.754    -0.095    22.369     6.744
    95   6 C        3.117    -0.061    29.352     8.874
    96   6 C        3.119    -0.063    29.391     8.879
    97   6 C        2.895    -0.032    28.795     8.798
    98   6 C        2.838    -0.090    30.253     9.014
    99   1 H        0.927     0.054     2.265     2.354
   100   1 H        0.924     0.091     1.869     2.138
   101   1 H        0.924     0.061     2.189     2.314
   102   1 H        0.925     0.047     2.364     2.404
   103   1 H        0.925     0.054     2.269     2.356
   104   1 H        0.925     0.056     2.243     2.342
   105   1 H        0.924     0.065     2.144     2.290
   106   1 H        0.924     0.064     2.155     2.295
   107   1 H        0.860     0.154     1.372     1.835
   108   1 H        0.860     0.154     1.377     1.838
   109   1 H        0.926     0.069     2.094     2.263
   110   1 H        0.925     0.051     2.303     2.373
   111   1 H        0.926     0.052     2.293     2.368
   112   1 H        0.926     0.044     2.401     2.423
   113   1 H        0.925     0.049     2.328     2.386
   114   1 H        0.924     0.060     2.197     2.318
   115   1 H        0.924     0.053     2.279     2.361
   116   1 H        0.924     0.039     2.457     2.451
   117   1 H        0.924     0.041     2.431     2.438
   118   1 H        0.925     0.064     2.156     2.296
   119   1 H        0.925     0.039     2.457     2.451
   120   1 H        0.925     0.037     2.490     2.468
   121   1 H        0.926     0.032     2.563     2.503
   122   1 H        0.926     0.034     2.531     2.488
   123   1 H        0.925     0.048     2.344     2.394
   124   1 H        0.926     0.061     2.183     2.311
   125   1 H        0.924     0.059     2.214     2.327
   126   1 H        0.924     0.062     2.181     2.309
   127   1 H        0.925     0.053     2.286     2.364
   128   1 H        0.925     0.059     2.211     2.325
   129   1 H        0.925     0.053     2.285     2.364
   130   1 H        0.924     0.063     2.161     2.299
   131   1 H        0.924     0.064     2.154     2.295
   132   1 H        0.860     0.155     1.365     1.830
   133   1 H        0.860     0.155     1.366     1.831
   134   1 H        0.925     0.070     2.087     2.259
   135   1 H        0.926     0.060     2.204     2.321
   136   1 H        0.924     0.062     2.177     2.307
   137   1 H        0.924     0.057     2.231     2.336
   138   1 H        0.925     0.052     2.295     2.369
   139   1 H        0.925     0.058     2.219     2.330
   140   1 H        0.925     0.055     2.258     2.350
   141   1 H        0.924     0.059     2.210     2.325
   142   1 H        0.924     0.065     2.142     2.289
   143   1 H        0.860     0.150     1.401     1.854
   144   1 H        0.860     0.167     1.289     1.779
   145   1 H        0.925     0.074     2.043     2.235
   146   1 H        0.926     0.064     2.149     2.292
   147   1 H        0.924     0.061     2.187     2.313
   148   1 H        0.924     0.058     2.220     2.330
   149   1 H        0.925     0.051     2.303     2.373
   150   1 H        0.925     0.060     2.198     2.318
   151   1 H        0.925     0.056     2.243     2.342
   152   1 H        0.923     0.038     2.472     2.459
   153   1 H        0.924     0.071     2.069     2.250
   154   1 H        0.860     0.160     1.333     1.809
   155   1 H        0.860     0.153     1.381     1.841
   156   1 H        0.925     0.060     2.195     2.317
   157   1 H        0.925     0.052     2.289     2.366
   158   1 H        0.926     0.051     2.307     2.375
   159   1 H        0.926     0.055     2.257     2.349
   160   1 H        0.925     0.051     2.305     2.374
   161   1 H        0.924     0.058     2.219     2.329
   162   1 H        0.924     0.054     2.273     2.358
   163   1 H        0.924     0.045     2.383     2.414
   164   1 H        0.924     0.037     2.485     2.465
   165   1 H        0.925     0.032     2.557     2.501
   166   1 H        0.925     0.037     2.491     2.468
   167   1 H        0.925     0.041     2.434     2.440
   168   1 H        0.926     0.034     2.525     2.485
   169   1 H        0.926     0.034     2.536     2.490
   170   1 H        0.925     0.042     2.416     2.431
   171   1 H        0.926     0.042     2.416     2.431
   172   1 H        0.926     0.036     2.498     2.471

 Mol. C6AA /au·bohr⁶  :     438231.624433
 Mol. C8AA /au·bohr⁸  :   11893867.441785
 Mol. α(0) /au        :       1050.248189


Wiberg/Mayer (AO) data.
largest (>0.10) Wiberg bond orders for each atom

 ---------------------------------------------------------------------------
     #   Z sym  total        # sym  WBO       # sym  WBO       # sym  WBO
 ---------------------------------------------------------------------------
     1   6 C    3.903 --     5 C    1.464     2 S    1.206    99 H    0.967
                             3 C    0.107
     2  16 S    2.642 --     1 C    1.206     3 C    1.155
     3   6 C    3.943 --     4 C    1.340    15 C    1.212     2 S    1.155
                             1 C    0.107
     4   6 C    3.955 --     3 C    1.340    14 N    1.233     5 C    1.152
     5   6 C    3.977 --     1 C    1.464     6 N    1.197     4 C    1.152
     6   7 N    3.027 --     7 C    1.509     5 C    1.197     8 O    0.114
     7   6 C    3.937 --     6 N    1.509     8 O    1.139    11 C    1.102
     8   8 O    2.283 --     7 C    1.139     9 C    0.927     6 N    0.114
     9   6 C    3.909 --    10 C    1.012   101 H    0.972   100 H    0.948
                             8 O    0.927
    10   6 C    3.992 --     9 C    1.012   102 H    0.987   103 H    0.983
                           104 H    0.983
    11   6 C    3.942 --    14 N    1.588     7 C    1.102    12 C    1.001
    12   6 C    3.985 --    13 N    1.037    11 C    1.001   106 H    0.946
                           105 H    0.946
    13   7 N    3.006 --    12 C    1.037   108 H    0.960   107 H    0.956
    14   7 N    3.057 --    11 C    1.588     4 C    1.233
    15   6 C    3.985 --    16 C    1.644     3 C    1.212   109 H    0.940
    16   6 C    3.965 --    15 C    1.644    17 C    1.185   110 H    0.960
    17   6 C    3.941 --    21 C    1.439    16 C    1.185    18 S    1.120
    18  16 S    2.593 --    19 C    1.196    17 C    1.120
    19   6 C    3.919 --    20 C    1.600    18 S    1.196   111 H    0.968
    20   6 C    3.981 --    19 C    1.600    21 C    1.261   112 H    0.964
    21   6 C    3.941 --    17 C    1.439    20 C    1.261    22 C    1.041
    22   6 C    3.921 --    23 C    1.731    21 C    1.041   113 H    0.948
    23   6 C    3.981 --    22 C    1.731    32 C    1.138    24 C    0.981
    24   6 C    3.991 --    25 C    1.013    23 C    0.981   115 H    0.962
                           114 H    0.955
    25   6 C    3.945 --    31 C    1.606    26 S    1.146    24 C    1.013
                            27 C    0.111
    26  16 S    2.577 --    27 C    1.146    25 C    1.146
    27   6 C    3.945 --    30 C    1.609    26 S    1.146    28 C    1.025
                            25 C    0.111
    28   6 C    3.996 --    27 C    1.025    29 C    0.997   116 H    0.970
                           117 H    0.969
    29   6 C    3.992 --    28 C    0.997   120 H    0.988   119 H    0.986
                           118 H    0.979
    30   6 C    3.985 --    27 C    1.609    31 C    1.262   121 H    0.965
    31   6 C    3.984 --    25 C    1.606    30 C    1.262   122 H    0.964
    32   6 C    3.945 --    33 C    1.673    23 C    1.138   123 H    0.954
    33   6 C    3.985 --    32 C    1.673    34 C    1.204   124 H    0.947
    34   6 C    3.947 --    38 C    1.330    33 C    1.204    35 S    1.150
    35  16 S    2.693 --    36 C    1.156    34 C    1.150
    36   6 C    3.922 --    37 C    1.334    48 C    1.186    35 S    1.156
    37   6 C    3.976 --    36 C    1.334    47 N    1.233    38 C    1.172
    38   6 C    3.962 --    34 C    1.330    39 N    1.233    37 C    1.172
    39   7 N    3.038 --    40 C    1.498    38 C    1.233    41 O    0.104
    40   6 C    3.917 --    39 N    1.498    44 C    1.121    41 O    1.115
    41   8 O    2.260 --    40 C    1.115    42 C    0.937    39 N    0.104
    42   6 C    3.922 --    43 C    1.011   126 H    0.972   125 H    0.964
                            41 O    0.937
    43   6 C    3.990 --    42 C    1.011   127 H    0.986   128 H    0.983
                           129 H    0.983
    44   6 C    3.955 --    47 N    1.584    40 C    1.121    45 C    0.999
    45   6 C    3.986 --    46 N    1.039    44 C    0.999   131 H    0.949
                           130 H    0.948
    46   7 N    3.007 --    45 C    1.039   133 H    0.961   132 H    0.961
    47   7 N    3.052 --    44 C    1.584    37 C    1.233
    48   6 C    3.980 --    49 C    1.738    36 C    1.186   134 H    0.953
    49   6 C    3.930 --    48 C    1.738    50 C    1.058   135 H    0.950
    50   6 C    3.886 --    54 C    1.402    51 S    1.141    49 C    1.058
    51  16 S    2.616 --    50 C    1.141    52 C    1.139
    52   6 C    3.940 --    53 C    1.317    64 C    1.249    51 S    1.139
    53   6 C    3.950 --    52 C    1.317    63 N    1.250    54 C    1.152
    54   6 C    3.971 --    50 C    1.402    55 N    1.206    53 C    1.152
    55   7 N    3.027 --    56 C    1.512    54 C    1.206    57 O    0.106
    56   6 C    3.932 --    55 N    1.512    60 C    1.117    57 O    1.114
    57   8 O    2.263 --    56 C    1.114    58 C    0.938    55 N    0.106
    58   6 C    3.924 --    59 C    1.012   136 H    0.972   137 H    0.968
                            57 O    0.938
    59   6 C    3.990 --    58 C    1.012   138 H    0.986   139 H    0.983
                           140 H    0.983
    60   6 C    3.935 --    63 N    1.573    56 C    1.117    61 C    1.001
    61   6 C    3.986 --    62 N    1.036    60 C    1.001   141 H    0.951
                           142 H    0.945
    62   7 N    3.008 --    61 C    1.036   143 H    0.961   144 H    0.947
    63   7 N    3.062 --    60 C    1.573    53 C    1.250
    64   6 C    3.945 --    65 C    1.582    52 C    1.249   145 H    0.942
    65   6 C    3.961 --    64 C    1.582    66 C    1.241   146 H    0.952
    66   6 C    3.936 --    70 C    1.310    65 C    1.241    67 S    1.132
    67  16 S    2.667 --    68 C    1.157    66 C    1.132
    68   6 C    3.905 --    69 C    1.305    80 C    1.218    67 S    1.157
    69   6 C    3.967 --    68 C    1.305    79 N    1.246    70 C    1.180
    70   6 C    3.946 --    66 C    1.310    71 N    1.240    69 C    1.180
    71   7 N    3.031 --    72 C    1.487    70 C    1.240
    72   6 C    3.916 --    71 N    1.487    76 C    1.131    73 O    1.112
    73   8 O    2.253 --    72 C    1.112    74 C    0.936
    74   6 C    3.921 --    75 C    1.011   147 H    0.971   148 H    0.966
                            73 O    0.936
    75   6 C    3.989 --    74 C    1.011   149 H    0.986   151 H    0.983
                           150 H    0.981
    76   6 C    3.954 --    79 N    1.566    72 C    1.131    77 C    1.015
    77   6 C    3.986 --    78 N    1.029    76 C    1.015   152 H    0.946
                           153 H    0.941
    78   7 N    3.024 --    77 C    1.029   155 H    0.964   154 H    0.956
    79   7 N    3.056 --    76 C    1.566    69 C    1.246
    80   6 C    3.986 --    81 C    1.661    68 C    1.218   156 H    0.953
    81   6 C    3.922 --    80 C    1.661    82 C    1.128   157 H    0.954
    82   6 C    3.942 --    86 C    1.456    81 C    1.128    83 S    1.124
    83  16 S    2.596 --    84 C    1.185    82 C    1.124
    84   6 C    3.936 --    85 C    1.639    83 S    1.185   158 H    0.967
    85   6 C    3.977 --    84 C    1.639    86 C    1.224   159 H    0.960
    86   6 C    3.976 --    82 C    1.456    85 C    1.224    87 C    1.095
    87   6 C    3.987 --    88 C    1.716    86 C    1.095   160 H    0.952
                            98 C    0.112
    88   6 C    3.977 --    87 C    1.716    97 C    1.111    89 C    0.995
    89   6 C    3.994 --    90 C    1.011    88 C    0.995   161 H    0.958
                           162 H    0.953
    90   6 C    3.942 --    96 C    1.599    91 S    1.150    89 C    1.011
                            92 C    0.111
    91  16 S    2.590 --    92 C    1.151    90 C    1.150
    92   6 C    3.945 --    95 C    1.606    91 S    1.151    93 C    1.023
                            90 C    0.111
    93   6 C    3.997 --    92 C    1.023    94 C    1.000   164 H    0.973
                           163 H    0.966
    94   6 C    3.996 --    93 C    1.000   167 H    0.988   165 H    0.987
                           166 H    0.985
    95   6 C    3.984 --    92 C    1.606    96 C    1.264   168 H    0.964
    96   6 C    3.983 --    90 C    1.599    95 C    1.264   169 H    0.965
    97   6 C    3.991 --    98 C    1.882    88 C    1.111   170 H    0.954
    98   6 C    3.976 --    97 C    1.882   172 H    0.979   171 H    0.972
                            87 C    0.112
    99   1 H    0.997 --     1 C    0.967
   100   1 H    0.991 --     9 C    0.948
   101   1 H    0.996 --     9 C    0.972
   102   1 H    0.998 --    10 C    0.987
   103   1 H    0.997 --    10 C    0.983
   104   1 H    0.997 --    10 C    0.983
   105   1 H    0.990 --    12 C    0.946
   106   1 H    0.990 --    12 C    0.946
   107   1 H    0.976 --    13 N    0.956
   108   1 H    0.976 --    13 N    0.960
   109   1 H    0.995 --    15 C    0.940
   110   1 H    0.997 --    16 C    0.960
   111   1 H    0.996 --    19 C    0.968
   112   1 H    0.998 --    20 C    0.964
   113   1 H    0.996 --    22 C    0.948
   114   1 H    0.995 --    24 C    0.955
   115   1 H    0.996 --    24 C    0.962
   116   1 H    0.998 --    28 C    0.970
   117   1 H    0.998 --    28 C    0.969
   118   1 H    0.996 --    29 C    0.979
   119   1 H    0.998 --    29 C    0.986
   120   1 H    0.999 --    29 C    0.988
   121   1 H    0.999 --    30 C    0.965
   122   1 H    0.999 --    31 C    0.964
   123   1 H    0.997 --    32 C    0.954
   124   1 H    0.995 --    33 C    0.947
   125   1 H    0.996 --    42 C    0.964
   126   1 H    0.996 --    42 C    0.972
   127   1 H    0.997 --    43 C    0.986
   128   1 H    0.997 --    43 C    0.983
   129   1 H    0.997 --    43 C    0.983
   130   1 H    0.991 --    45 C    0.948
   131   1 H    0.991 --    45 C    0.949
   132   1 H    0.976 --    46 N    0.961
   133   1 H    0.976 --    46 N    0.961
   134   1 H    0.993 --    48 C    0.953
   135   1 H    0.991 --    49 C    0.950
   136   1 H    0.996 --    58 C    0.972
   137   1 H    0.996 --    58 C    0.968
   138   1 H    0.997 --    59 C    0.986
   139   1 H    0.997 --    59 C    0.983
   140   1 H    0.996 --    59 C    0.983
   141   1 H    0.991 --    61 C    0.951
   142   1 H    0.990 --    61 C    0.945
   143   1 H    0.977 --    62 N    0.961
   144   1 H    0.972 --    62 N    0.947
   145   1 H    0.994 --    64 C    0.942
   146   1 H    0.995 --    65 C    0.952
   147   1 H    0.996 --    74 C    0.971
   148   1 H    0.996 --    74 C    0.966
   149   1 H    0.997 --    75 C    0.986
   150   1 H    0.996 --    75 C    0.981
   151   1 H    0.996 --    75 C    0.983
   152   1 H    0.994 --    77 C    0.946
   153   1 H    0.989 --    77 C    0.941
   154   1 H    0.974 --    78 N    0.956
   155   1 H    0.976 --    78 N    0.964
   156   1 H    0.995 --    80 C    0.953
   157   1 H    0.996 --    81 C    0.954
   158   1 H    0.996 --    84 C    0.967
   159   1 H    0.996 --    85 C    0.960
   160   1 H    0.996 --    87 C    0.952
   161   1 H    0.994 --    89 C    0.958
   162   1 H    0.997 --    89 C    0.953
   163   1 H    0.997 --    93 C    0.966
   164   1 H    0.998 --    93 C    0.973
   165   1 H    0.999 --    94 C    0.987
   166   1 H    0.998 --    94 C    0.985
   167   1 H    0.998 --    94 C    0.988
   168   1 H    0.998 --    95 C    0.964
   169   1 H    0.999 --    96 C    0.965
   170   1 H    0.997 --    97 C    0.954
   171   1 H    0.998 --    98 C    0.972
   172   1 H    0.998 --    98 C    0.979
 ---------------------------------------------------------------------------

Topologies differ in bond orders
Writing corrected topology to xtbtopo.mol

molecular dipole:
                 x           y           z       tot (Debye)
 q only:       -0.427       0.081      -0.080
   full:       -0.208       0.211      -0.778       2.115
molecular quadrupole (traceless):
                xx          xy          yy          xz          yz          zz
 q only:       -3.312      14.587       1.090      -9.542     -14.192       2.222
  q+dip:      -17.801      34.211     -13.306     -16.518     -21.953      31.107
   full:      -17.262      37.987     -14.989     -13.594     -21.415      32.252


           -------------------------------------------------
          | TOTAL ENERGY             -273.544945061818 Eh   |
          | GRADIENT NORM               0.011154470350 Eh/α |
          | HOMO-LUMO GAP               0.971905620857 eV   |
           -------------------------------------------------

------------------------------------------------------------------------
 * finished run on 2022/02/28 at 21:59:53.266     
------------------------------------------------------------------------
 total:
 * wall-time:     0 d,  0 h,  0 min,  0.913 sec
 *  cpu-time:     0 d,  0 h,  0 min,  6.257 sec
 * ratio c/w:     6.851 speedup
 SCF:
 * wall-time:     0 d,  0 h,  0 min,  0.576 sec
 *  cpu-time:     0 d,  0 h,  0 min,  4.596 sec
 * ratio c/w:     7.977 speedup

