
                                 *****************
                                 * O   R   C   A *
                                 *****************

           --- An Ab Initio, DFT and Semiempirical electronic structure package ---

                  #######################################################
                  #                        -***-                        #
                  #          Department of theory and spectroscopy      #
                  #               Directorship: Frank Neese             #
                  #        Max Planck Institute fuer Kohlenforschung    #
                  #                Kaiser Wilhelm Platz 1               #
                  #                 D-45470 Muelheim/Ruhr               #
                  #                      Germany                        #
                  #                                                     #
                  #                  All rights reserved                #
                  #                        -***-                        #
                  #######################################################


                         Program Version 4.2.0 -  RELEASE  -


 With contributions from (in alphabetic order):
   Daniel Aravena         : Magnetic Suceptibility
   Michael Atanasov       : Ab Initio Ligand Field Theory (pilot matlab implementation)
   Alexander A. Auer      : GIAO ZORA, VPT2
   Ute Becker             : Parallelization
   Giovanni Bistoni       : ED, misc. LED, open-shell LED, HFLED
   Martin Brehm           : Molecular dynamics
   Dmytro Bykov           : SCF Hessian
   Vijay G. Chilkuri      : MRCI spin determinant printing, contributions to CSF-ICE
   Dipayan Datta          : RHF DLPNO-CCSD density
   Achintya Kumar Dutta   : EOM-CC, STEOM-CC
   Dmitry Ganyushin       : Spin-Orbit,Spin-Spin,Magnetic field MRCI
   Miquel Garcia          : C-PCM Hessian, Gaussian charge scheme
   Yang Guo               : DLPNO-NEVPT2, CIM, IAO-localization
   Andreas Hansen         : Spin unrestricted coupled pair/coupled cluster methods
   Benjamin Helmich-Paris : CASSCF linear response (MC-RPA)
   Lee Huntington         : MR-EOM, pCC
   Robert Izsak           : Overlap fitted RIJCOSX, COSX-SCS-MP3, EOM
   Christian Kollmar      : KDIIS, OOCD, Brueckner-CCSD(T), CCSD density
   Simone Kossmann        : Meta GGA functionals, TD-DFT gradient, OOMP2, MP2 Hessian
   Martin Krupicka        : AUTO-CI
   Lucas Lang             : DCDCAS
   Dagmar Lenk            : GEPOL surface, SMD
   Dimitrios Liakos       : Extrapolation schemes; Compound Job, initial MDCI parallelization
   Dimitrios Manganas     : Further ROCIS development; embedding schemes
   Dimitrios Pantazis     : SARC Basis sets
   Taras Petrenko         : DFT Hessian,TD-DFT gradient, ASA, ECA, R-Raman, ABS, FL, XAS/XES, NRVS
   Peter Pinski           : DLPNO-MP2, DLPNO-MP2 Gradient
   Christoph Reimann      : Effective Core Potentials
   Marius Retegan         : Local ZFS, SOC
   Christoph Riplinger    : Optimizer, TS searches, QM/MM, DLPNO-CCSD(T), (RO)-DLPNO pert. Triples
   Tobias Risthaus        : Range-separated hybrids, TD-DFT gradient, RPA, STAB
   Michael Roemelt        : Original ROCIS implementation
   Masaaki Saitow         : Open-shell DLPNO-CCSD energy and density
   Barbara Sandhoefer     : DKH picture change effects
   Avijit Sen             : IP-ROCIS
   Kantharuban Sivalingam : CASSCF convergence, NEVPT2, FIC-MRCI
   Bernardo de Souza      : ESD, SOC TD-DFT
   Georgi Stoychev        : AutoAux, RI-MP2 NMR
   Willem Van den Heuvel  : Paramagnetic NMR
   Boris Wezisla          : Elementary symmetry handling
   Frank Wennmohs         : Technical directorship


 We gratefully acknowledge several colleagues who have allowed us to
 interface, adapt or use parts of their codes:
   Stefan Grimme, W. Hujo, H. Kruse,             : VdW corrections, initial TS optimization,
                  C. Bannwarth                     DFT functionals, gCP, sTDA/sTD-DF
   Ed Valeev, F. Pavosevic, A. Kumar             : LibInt (2-el integral package), F12 methods
   Garnet Chan, S. Sharma, J. Yang, R. Olivares  : DMRG
   Ulf Ekstrom                                   : XCFun DFT Library
   Mihaly Kallay                                 : mrcc  (arbitrary order and MRCC methods)
   Andreas Klamt, Michael Diedenhofen            : otool_cosmo (COSMO solvation model)
   Jiri Pittner, Ondrej Demel                    : Mk-CCSD
   Frank Weinhold                                : gennbo (NPA and NBO analysis)
   Christopher J. Cramer and Donald G. Truhlar   : smd solvation model
   Lars Goerigk                                  : TD-DFT with DH, B97 family of functionals
   V. Asgeirsson, H. Jonsson                     : NEB implementation
   FAccTs GmbH                                   : IRC, NEB, NEB-TS, Multilevel, MM, QM/MM, CI optimization
   S Lehtola, MJT Oliveira, MAL Marques          : LibXC Library


 Your calculation uses the libint2 library for the computation of 2-el integrals
 For citations please refer to: http://libint.valeyev.net

 Your ORCA version has been built with support for libXC version: 4.2.3
 For citations please refer to: https://tddft.org/programs/libxc/

 This ORCA versions uses:
   CBLAS   interface :  Fast vector & matrix operations
   LAPACKE interface :  Fast linear algebra routines
   SCALAPACK package :  Parallel linear algebra routines


XCFun DFT library Copyright 2009-2010 Ulf Ekstrom and contributors.
See http://admol.org/xcfun for more information. This is free soft-
ware; see the source code for copying conditions. There is ABSOLUTELY
NO WARRANTY; not even for MERCHANTABILITY or FITNESS FOR A PARTICULAR
PURPOSE. For details see the documentation. Scientific users of this 
library should cite U. Ekstrom, L. Visscher, R. Bast, A. J. Thorvald-
sen and K. Ruud; J.Chem.Theor.Comp. 2010, DOI: 10.1021/ct100117s
XCFun Version 0.99 
----- Orbital basis set information -----
Your calculation utilizes the basis: def2-SVP
   F. Weigend and R. Ahlrichs, Phys. Chem. Chem. Phys. 7, 3297 (2005).

----- AuxJ basis set information -----
Your calculation utilizes the auxiliary basis: def2/J
   F. Weigend, Phys. Chem. Chem. Phys. 8, 1057 (2006).

================================================================================
                                        WARNINGS
                       Please study these warnings very carefully!
================================================================================

INFO   : Checking CIS options ...

WARNING: CIS/ROCIS methods need fully converged wavefunctions
  ===> : Setting SCFConvForced true
         You can overwrite this default with %scf ConvForced false 


INFO   : the flag for use of LIBINT has been found!

================================================================================
                                       INPUT FILE
================================================================================
NAME = xtbopt.inp
|  1> # ORCA input file
|  2> # SCF done       -456.400672003672          0.000419854244
|  3> ! CAM-B3LYP def2-SVP def2/J RIJCOSX Grid4 TightSCF
|  4> %maxcore 5000
|  5> %tddft
|  6>     Mode sTDDFT
|  7>     Ethresh 5.0
|  8>     maxcore 5000
|  9> end
| 10> 
| 11> %pal
| 12>   nprocs 6
| 13>   end
| 14> * xyz 0 1
| 15>    C       -0.46395        10.89238         5.37298
| 16>    C       -1.56702        10.98983         4.50731
| 17>    C       -1.44705        10.59545         3.15506
| 18>    C       -0.27035        10.09511         2.60046
| 19>    C        0.84107        10.01629         3.46386
| 20>    C        0.72046        10.42664         4.81501
| 21>    C       -2.87727        11.46850         4.80476
| 22>    C       -3.71147        11.40802         3.74809
| 23>    S       -2.96716        10.78301         2.31770
| 24>    C        2.15371         9.57090         3.17068
| 25>    C        3.00040         9.60994         4.23943
| 26>    S        2.21768        10.22243         5.68122
| 27>    C       -0.57000        11.23506         6.77843
| 28>    C       -0.21503         9.68323         1.21302
| 29>    C       -1.55669        10.89512         7.65938
| 30>    C       -1.32998        11.37917         8.96377
| 31>    C       -0.18076        12.09778         9.08186
| 32>    S        0.66027        12.17924         7.56875
| 33>    C       -0.82694        10.27207         0.14004
| 34>    C       -0.59557         9.60089        -1.07511
| 35>    C        0.17669         8.48787        -0.94032
| 36>    S        0.65062         8.25754         0.70802
| 37>    C        0.40324        12.72791        10.29897
| 38>    C        1.60604        11.93106        10.80880
| 39>    C        0.68203         7.57567        -2.00443
| 40>    C        2.05269         8.03971        -2.50479
| 41>    C        4.36610         9.21242         4.27592
| 42>    C        5.24494         9.36149         5.32277
| 43>    C        6.50503         8.84590         5.02859
| 44>    C        6.63025         8.27300         3.76357
| 45>    S        5.10307         8.41781         2.92135
| 46>    C        7.78764         7.64677         3.22760
| 47>    S        9.26462         7.66646         4.16469
| 48>    C       10.12541         6.74944         2.97114
| 49>    C        9.30671         6.40424         1.91842
| 50>    C        7.99105         6.94495         2.03625
| 51>    C        9.69947         5.43749         0.88378
| 52>    C        8.72801         5.32116        -0.20317
| 53>    C        7.44466         5.95414        -0.14658
| 54>    C        7.00657         6.76817         0.98375
| 55>    C        8.92240         4.60419        -1.35509
| 56>    S        7.53826         4.71863        -2.39045
| 57>    C        6.68431         5.71655        -1.26624
| 58>    C       11.51746         6.48881         3.16217
| 59>    C       12.55708         6.59681         2.26358
| 60>    C       13.81567         6.30424         2.80718
| 61>    S       12.12666         6.05261         4.73224
| 62>    O       10.71640         4.76883         0.95976
| 63>    O        5.88993         7.28075         1.01396
| 64>    C       10.13377         3.87139        -1.80579
| 65>    C       11.08208         4.81210        -2.55581
| 66>    C        5.29577         6.15197        -1.56654
| 67>    C        4.27907         5.25412        -0.85521
| 68>    C       16.33346         4.64391         8.22189
| 69>    C       16.04507         5.00557         6.89102
| 70>    C       17.07916         5.03885         5.92423
| 71>    C       18.40671         4.73494         6.20831
| 72>    C       18.70224         4.41617         7.54943
| 73>    C       17.66501         4.37563         8.51487
| 74>    C       14.79054         5.35898         6.33675
| 75>    C       14.83619         5.61791         4.99842
| 76>    S       16.45547         5.45829         4.35026
| 77>    C       19.96106         4.10809         8.11897
| 78>    C       19.90229         3.79538         9.44620
| 79>    S       18.27010         3.89305        10.07530
| 80>    C       15.28406         4.54763         9.21652
| 81>    C       19.40215         4.70423         5.15674
| 82>    C       14.04262         3.99077         9.08925
| 83>    C       13.27044         4.07740        10.26461
| 84>    C       13.90941         4.70848        11.28710
| 85>    S       15.50429         5.19639        10.81722
| 86>    C       19.52178         5.54137         4.08221
| 87>    C       20.55106         5.16956         3.19625
| 88>    C       21.21036         4.04032         3.57413
| 89>    S       20.58163         3.42469         5.06526
| 90>    C       13.42446         4.96147        12.67271
| 91>    C       14.13402         4.05548        13.68096
| 92>    C       22.36379         3.37144         2.90960
| 93>    C       23.68124         3.74687         3.59128
| 94>    C       13.75955         5.98261         4.14053
| 95>    C       20.97696         3.40822        10.29513
| 96>    C       20.87778         2.91239        11.57427
| 97>    C       22.12109         2.59201        12.11386
| 98>    C       23.21165         2.85978        11.28692
| 99>    S       22.62932         3.53783         9.78268
|100>    C       24.57777         2.59213        11.57591
|101>    S       24.94912         1.61006        12.96762
|102>    C       26.67027         1.69332        12.70403
|103>    C       26.93695         2.48683        11.58668
|104>    C       25.75759         2.97526        10.94072
|105>    C       28.26837         2.81582        11.11426
|106>    C       28.32422         3.73562         9.98529
|107>    C       27.14548         4.22539         9.34316
|108>    C       25.81037         3.79646         9.74420
|109>    C       29.48190         4.21885         9.42589
|110>    S       29.12333         5.31185         8.13398
|111>    C       27.41626         5.10210         8.32225
|112>    C       27.52629         1.02030        13.61684
|113>    C       27.13870         0.21802        14.69105
|114>    C       28.18334        -0.30007        15.45446
|115>    S       29.27336         1.10218        13.57830
|116>    O       29.29547         2.38201        11.63353
|117>    O       24.81398         4.10196         9.09248
|118>    C       30.89362         3.95139         9.80629
|119>    C       31.30913         4.78591        11.02112
|120>    C       26.47348         5.79989         7.41132
|121>    C       26.09044         4.89609         6.23634
|122>    C       34.35150         0.23675        15.69063
|123>    C       33.00173        -0.13793        15.84267
|124>    C       32.62633        -1.06213        16.84822
|125>    C       33.53600        -1.66516        17.71104
|126>    C       34.89336        -1.33115        17.52376
|127>    C       35.26385        -0.39175        16.52825
|128>    C       31.88914         0.31104        15.09451
|129>    C       30.69622        -0.19317        15.52536
|130>    S       30.89614        -1.28794        16.87884
|131>    C       36.02052        -1.81944        18.22762
|132>    C       37.20070        -1.25814        17.83370
|133>    S       36.98038        -0.09855        16.53886
|134>    C       34.73960         1.24774        14.72812
|135>    C       33.08465        -2.55452        18.76135
|136>    C       34.11764         2.43381        14.45469
|137>    C       34.76932         3.18750        13.45895
|138>    C       35.88013         2.58003        12.95979
|139>    S       36.15496         1.05382        13.73352
|140>    C       32.08056        -3.48102        18.70517
|141>    C       31.84502        -4.12471        19.93496
|142>    C       32.64943        -3.68396        20.94059
|143>    S       33.74490        -2.46979        20.37166
|144>    C       36.82992         3.08069        11.92694
|145>    C       38.17108         3.47080        12.55117
|146>    C       32.71082        -4.15332        22.35309
|147>    C       33.86643        -5.13634        22.55195
|148>    C       29.41273         0.10246        14.98939
|149>    C       38.50088        -1.50335        18.35702
|150>    C       39.65372        -0.82298        18.04014
|151>    C       40.75436        -1.28671        18.75617
|152>    C       40.49240        -2.35009        19.61891
|153>    S       38.79711        -2.76799        19.50714
|154>    C       41.41872        -2.97319        20.49952
|155>    S       42.97410        -2.22166        20.72867
|156>    C       43.50567        -3.42045        21.87625
|157>    C       42.52179        -4.39499        22.02839
|158>    C       41.34270        -4.13826        21.25908
|159>    C       42.66235        -5.58478        22.85241
|160>    C       41.60108        -6.57433        22.69675
|161>    C       40.42506        -6.31452        21.92697
|162>    C       40.19921        -5.03354        21.26691
|163>    C       41.60136        -7.82195        23.27002
|164>    S       40.17550        -8.69728        22.82917
|165>    C       39.55635        -7.37662        21.89866
|166>    C       44.80083        -3.27086        22.45330
|167>    C       45.73697        -2.28852        22.14845
|168>    C       46.92808        -2.36087        22.88642
|169>    C       46.90605        -3.39405        23.76936
|170>    S       45.45677        -4.30064        23.70707
|171>    O       43.60931        -5.77077        23.61133
|172>    O       39.11545        -4.74923        20.76233
|173>    C       42.64247        -8.46849        24.11046
|174>    C       43.77404        -9.02686        23.24245
|175>    C       38.23035        -7.48522        21.23862
|176>    C       37.13266        -6.91343        22.13983
|177>   Cl        7.76475         8.93029         6.19089
|178>   Cl       12.35820         7.12789         0.65283
|179>   Cl       22.22626         1.93439        13.69611
|180>   Cl       25.51339        -0.14846        15.10350
|181>   Cl       42.29453        -0.56327        18.52814
|182>   Cl       45.53350        -1.05626        20.97116
|183>    H       -3.15996        11.85443         5.76677
|184>    H       -4.74075        11.70573         3.70100
|185>    H        2.48268         9.23737         2.20382
|186>    H       -2.39748        10.28012         7.39131
|187>    H       -1.99965        11.19870         9.78629
|188>    H       -1.39426        11.18225         0.21035
|189>    H       -0.99306         9.93142        -2.01846
|190>    H       -0.36388        12.77503        11.07482
|191>    H        0.72186        13.74747        10.06862
|192>    H        1.30803        10.91561        11.05993
|193>    H        2.02254        12.40179        11.69582
|194>    H        2.37707        11.88468        10.04313
|195>    H       -0.02718         7.56582        -2.83508
|196>    H        0.76426         6.56052        -1.60999
|197>    H        1.97905         9.03730        -2.93153
|198>    H        2.42746         7.36145        -3.26746
|199>    H        2.76234         8.06909        -1.68133
|200>    H        4.99748         9.82684         6.25980
|201>    H       14.72950         6.33293         2.24230
|202>    H        9.84134         3.04926        -2.46215
|203>    H       10.64743         3.47066        -0.93089
|204>    H       10.58425         5.25234        -3.41775
|205>    H       11.95472         4.26273        -2.89827
|206>    H       11.41312         5.61073        -1.89683
|207>    H        5.12922         6.11629        -2.64490
|208>    H        5.16371         7.17653        -1.21360
|209>    H        4.42486         4.21313        -1.13606
|210>    H        3.27036         5.55220        -1.12527
|211>    H        4.39076         5.35194         0.22100
|212>    H       13.88390         5.43975         6.90868
|213>    H       20.89016         4.11522         7.57908
|214>    H       13.70835         3.49518         8.19521
|215>    H       12.27147         3.68646        10.34545
|216>    H       18.91469         6.41802         3.94677
|217>    H       20.78758         5.71777         2.30146
|218>    H       12.34796         4.78119        12.70728
|219>    H       13.60610         6.00524        12.94086
|220>    H       13.95590         3.00984        13.44034
|221>    H       13.76763         4.24932        14.68592
|222>    H       15.20616         4.23698        13.65886
|223>    H       22.39249         3.67512         1.86091
|224>    H       22.23450         2.28759         2.95076
|225>    H       23.84035         4.82125         3.53285
|226>    H       24.51532         3.24446         3.10813
|227>    H       23.65856         3.45603         4.63882
|228>    H       19.94951         2.76935        12.09745
|229>    H       28.03563        -0.93337        16.31061
|230>    H       31.54547         4.18276         8.96151
|231>    H       30.99545         2.89493        10.06217
|232>    H       31.17419         5.84729        10.82334
|233>    H       32.35487         4.60035        11.25039
|234>    H       30.71138         4.50486        11.88371
|235>    H       26.93687         6.71488         7.03696
|236>    H       25.56702         6.05249         7.96458
|237>    H       26.97575         4.58360         5.68669
|238>    H       25.42904         5.43103         5.56147
|239>    H       25.57195         4.01599         6.60633
|240>    H       31.95762         0.97485        14.25215
|241>    H       35.97807        -2.56441        19.00094
|242>    H       33.24446         2.77620        14.98051
|243>    H       34.42305         4.15049        13.12667
|244>    H       31.54914        -3.72048        17.80209
|245>    H       31.09607        -4.88486        20.07062
|246>    H       36.38680         3.94742        11.43172
|247>    H       36.99812         2.30537        11.17525
|248>    H       38.02957         4.25419        13.29229
|249>    H       38.85291         3.83355        11.78608
|250>    H       38.62104         2.61014        13.04058
|251>    H       31.76614        -4.64001        22.60524
|252>    H       32.84702        -3.29924        23.02020
|253>    H       33.73699        -6.00171        21.90585
|254>    H       33.90391        -5.47479        23.58423
|255>    H       34.81216        -4.65901        22.30679
|256>    H       39.70372        -0.01437        17.33335
|257>    H       47.74001        -1.66980        22.75368
|258>    H       47.68100        -3.67891        24.45306
|259>    H       42.19117        -9.27638        24.68968
|260>    H       43.05915        -7.72400        24.79119
|261>    H       43.38560        -9.73724        22.51543
|262>    H       44.50451        -9.53089        23.86900
|263>    H       44.27108        -8.21655        22.71604
|264>    H       38.01697        -8.53284        21.01703
|265>    H       38.24853        -6.91421        20.30847
|266>    H       37.11412        -7.42903        23.09761
|267>    H       36.16527        -7.02907        21.66037
|268>    H       37.31316        -5.85551        22.30862
|269> *
|270> 
|271>                          ****END OF INPUT****
================================================================================

                       ****************************
                       * Single Point Calculation *
                       ****************************

---------------------------------
CARTESIAN COORDINATES (ANGSTROEM)
---------------------------------
  C     -0.463950   10.892380    5.372980
  C     -1.567020   10.989830    4.507310
  C     -1.447050   10.595450    3.155060
  C     -0.270350   10.095110    2.600460
  C      0.841070   10.016290    3.463860
  C      0.720460   10.426640    4.815010
  C     -2.877270   11.468500    4.804760
  C     -3.711470   11.408020    3.748090
  S     -2.967160   10.783010    2.317700
  C      2.153710    9.570900    3.170680
  C      3.000400    9.609940    4.239430
  S      2.217680   10.222430    5.681220
  C     -0.570000   11.235060    6.778430
  C     -0.215030    9.683230    1.213020
  C     -1.556690   10.895120    7.659380
  C     -1.329980   11.379170    8.963770
  C     -0.180760   12.097780    9.081860
  S      0.660270   12.179240    7.568750
  C     -0.826940   10.272070    0.140040
  C     -0.595570    9.600890   -1.075110
  C      0.176690    8.487870   -0.940320
  S      0.650620    8.257540    0.708020
  C      0.403240   12.727910   10.298970
  C      1.606040   11.931060   10.808800
  C      0.682030    7.575670   -2.004430
  C      2.052690    8.039710   -2.504790
  C      4.366100    9.212420    4.275920
  C      5.244940    9.361490    5.322770
  C      6.505030    8.845900    5.028590
  C      6.630250    8.273000    3.763570
  S      5.103070    8.417810    2.921350
  C      7.787640    7.646770    3.227600
  S      9.264620    7.666460    4.164690
  C     10.125410    6.749440    2.971140
  C      9.306710    6.404240    1.918420
  C      7.991050    6.944950    2.036250
  C      9.699470    5.437490    0.883780
  C      8.728010    5.321160   -0.203170
  C      7.444660    5.954140   -0.146580
  C      7.006570    6.768170    0.983750
  C      8.922400    4.604190   -1.355090
  S      7.538260    4.718630   -2.390450
  C      6.684310    5.716550   -1.266240
  C     11.517460    6.488810    3.162170
  C     12.557080    6.596810    2.263580
  C     13.815670    6.304240    2.807180
  S     12.126660    6.052610    4.732240
  O     10.716400    4.768830    0.959760
  O      5.889930    7.280750    1.013960
  C     10.133770    3.871390   -1.805790
  C     11.082080    4.812100   -2.555810
  C      5.295770    6.151970   -1.566540
  C      4.279070    5.254120   -0.855210
  C     16.333460    4.643910    8.221890
  C     16.045070    5.005570    6.891020
  C     17.079160    5.038850    5.924230
  C     18.406710    4.734940    6.208310
  C     18.702240    4.416170    7.549430
  C     17.665010    4.375630    8.514870
  C     14.790540    5.358980    6.336750
  C     14.836190    5.617910    4.998420
  S     16.455470    5.458290    4.350260
  C     19.961060    4.108090    8.118970
  C     19.902290    3.795380    9.446200
  S     18.270100    3.893050   10.075300
  C     15.284060    4.547630    9.216520
  C     19.402150    4.704230    5.156740
  C     14.042620    3.990770    9.089250
  C     13.270440    4.077400   10.264610
  C     13.909410    4.708480   11.287100
  S     15.504290    5.196390   10.817220
  C     19.521780    5.541370    4.082210
  C     20.551060    5.169560    3.196250
  C     21.210360    4.040320    3.574130
  S     20.581630    3.424690    5.065260
  C     13.424460    4.961470   12.672710
  C     14.134020    4.055480   13.680960
  C     22.363790    3.371440    2.909600
  C     23.681240    3.746870    3.591280
  C     13.759550    5.982610    4.140530
  C     20.976960    3.408220   10.295130
  C     20.877780    2.912390   11.574270
  C     22.121090    2.592010   12.113860
  C     23.211650    2.859780   11.286920
  S     22.629320    3.537830    9.782680
  C     24.577770    2.592130   11.575910
  S     24.949120    1.610060   12.967620
  C     26.670270    1.693320   12.704030
  C     26.936950    2.486830   11.586680
  C     25.757590    2.975260   10.940720
  C     28.268370    2.815820   11.114260
  C     28.324220    3.735620    9.985290
  C     27.145480    4.225390    9.343160
  C     25.810370    3.796460    9.744200
  C     29.481900    4.218850    9.425890
  S     29.123330    5.311850    8.133980
  C     27.416260    5.102100    8.322250
  C     27.526290    1.020300   13.616840
  C     27.138700    0.218020   14.691050
  C     28.183340   -0.300070   15.454460
  S     29.273360    1.102180   13.578300
  O     29.295470    2.382010   11.633530
  O     24.813980    4.101960    9.092480
  C     30.893620    3.951390    9.806290
  C     31.309130    4.785910   11.021120
  C     26.473480    5.799890    7.411320
  C     26.090440    4.896090    6.236340
  C     34.351500    0.236750   15.690630
  C     33.001730   -0.137930   15.842670
  C     32.626330   -1.062130   16.848220
  C     33.536000   -1.665160   17.711040
  C     34.893360   -1.331150   17.523760
  C     35.263850   -0.391750   16.528250
  C     31.889140    0.311040   15.094510
  C     30.696220   -0.193170   15.525360
  S     30.896140   -1.287940   16.878840
  C     36.020520   -1.819440   18.227620
  C     37.200700   -1.258140   17.833700
  S     36.980380   -0.098550   16.538860
  C     34.739600    1.247740   14.728120
  C     33.084650   -2.554520   18.761350
  C     34.117640    2.433810   14.454690
  C     34.769320    3.187500   13.458950
  C     35.880130    2.580030   12.959790
  S     36.154960    1.053820   13.733520
  C     32.080560   -3.481020   18.705170
  C     31.845020   -4.124710   19.934960
  C     32.649430   -3.683960   20.940590
  S     33.744900   -2.469790   20.371660
  C     36.829920    3.080690   11.926940
  C     38.171080    3.470800   12.551170
  C     32.710820   -4.153320   22.353090
  C     33.866430   -5.136340   22.551950
  C     29.412730    0.102460   14.989390
  C     38.500880   -1.503350   18.357020
  C     39.653720   -0.822980   18.040140
  C     40.754360   -1.286710   18.756170
  C     40.492400   -2.350090   19.618910
  S     38.797110   -2.767990   19.507140
  C     41.418720   -2.973190   20.499520
  S     42.974100   -2.221660   20.728670
  C     43.505670   -3.420450   21.876250
  C     42.521790   -4.394990   22.028390
  C     41.342700   -4.138260   21.259080
  C     42.662350   -5.584780   22.852410
  C     41.601080   -6.574330   22.696750
  C     40.425060   -6.314520   21.926970
  C     40.199210   -5.033540   21.266910
  C     41.601360   -7.821950   23.270020
  S     40.175500   -8.697280   22.829170
  C     39.556350   -7.376620   21.898660
  C     44.800830   -3.270860   22.453300
  C     45.736970   -2.288520   22.148450
  C     46.928080   -2.360870   22.886420
  C     46.906050   -3.394050   23.769360
  S     45.456770   -4.300640   23.707070
  O     43.609310   -5.770770   23.611330
  O     39.115450   -4.749230   20.762330
  C     42.642470   -8.468490   24.110460
  C     43.774040   -9.026860   23.242450
  C     38.230350   -7.485220   21.238620
  C     37.132660   -6.913430   22.139830
  Cl     7.764750    8.930290    6.190890
  Cl    12.358200    7.127890    0.652830
  Cl    22.226260    1.934390   13.696110
  Cl    25.513390   -0.148460   15.103500
  Cl    42.294530   -0.563270   18.528140
  Cl    45.533500   -1.056260   20.971160
  H     -3.159960   11.854430    5.766770
  H     -4.740750   11.705730    3.701000
  H      2.482680    9.237370    2.203820
  H     -2.397480   10.280120    7.391310
  H     -1.999650   11.198700    9.786290
  H     -1.394260   11.182250    0.210350
  H     -0.993060    9.931420   -2.018460
  H     -0.363880   12.775030   11.074820
  H      0.721860   13.747470   10.068620
  H      1.308030   10.915610   11.059930
  H      2.022540   12.401790   11.695820
  H      2.377070   11.884680   10.043130
  H     -0.027180    7.565820   -2.835080
  H      0.764260    6.560520   -1.609990
  H      1.979050    9.037300   -2.931530
  H      2.427460    7.361450   -3.267460
  H      2.762340    8.069090   -1.681330
  H      4.997480    9.826840    6.259800
  H     14.729500    6.332930    2.242300
  H      9.841340    3.049260   -2.462150
  H     10.647430    3.470660   -0.930890
  H     10.584250    5.252340   -3.417750
  H     11.954720    4.262730   -2.898270
  H     11.413120    5.610730   -1.896830
  H      5.129220    6.116290   -2.644900
  H      5.163710    7.176530   -1.213600
  H      4.424860    4.213130   -1.136060
  H      3.270360    5.552200   -1.125270
  H      4.390760    5.351940    0.221000
  H     13.883900    5.439750    6.908680
  H     20.890160    4.115220    7.579080
  H     13.708350    3.495180    8.195210
  H     12.271470    3.686460   10.345450
  H     18.914690    6.418020    3.946770
  H     20.787580    5.717770    2.301460
  H     12.347960    4.781190   12.707280
  H     13.606100    6.005240   12.940860
  H     13.955900    3.009840   13.440340
  H     13.767630    4.249320   14.685920
  H     15.206160    4.236980   13.658860
  H     22.392490    3.675120    1.860910
  H     22.234500    2.287590    2.950760
  H     23.840350    4.821250    3.532850
  H     24.515320    3.244460    3.108130
  H     23.658560    3.456030    4.638820
  H     19.949510    2.769350   12.097450
  H     28.035630   -0.933370   16.310610
  H     31.545470    4.182760    8.961510
  H     30.995450    2.894930   10.062170
  H     31.174190    5.847290   10.823340
  H     32.354870    4.600350   11.250390
  H     30.711380    4.504860   11.883710
  H     26.936870    6.714880    7.036960
  H     25.567020    6.052490    7.964580
  H     26.975750    4.583600    5.686690
  H     25.429040    5.431030    5.561470
  H     25.571950    4.015990    6.606330
  H     31.957620    0.974850   14.252150
  H     35.978070   -2.564410   19.000940
  H     33.244460    2.776200   14.980510
  H     34.423050    4.150490   13.126670
  H     31.549140   -3.720480   17.802090
  H     31.096070   -4.884860   20.070620
  H     36.386800    3.947420   11.431720
  H     36.998120    2.305370   11.175250
  H     38.029570    4.254190   13.292290
  H     38.852910    3.833550   11.786080
  H     38.621040    2.610140   13.040580
  H     31.766140   -4.640010   22.605240
  H     32.847020   -3.299240   23.020200
  H     33.736990   -6.001710   21.905850
  H     33.903910   -5.474790   23.584230
  H     34.812160   -4.659010   22.306790
  H     39.703720   -0.014370   17.333350
  H     47.740010   -1.669800   22.753680
  H     47.681000   -3.678910   24.453060
  H     42.191170   -9.276380   24.689680
  H     43.059150   -7.724000   24.791190
  H     43.385600   -9.737240   22.515430
  H     44.504510   -9.530890   23.869000
  H     44.271080   -8.216550   22.716040
  H     38.016970   -8.532840   21.017030
  H     38.248530   -6.914210   20.308470
  H     37.114120   -7.429030   23.097610
  H     36.165270   -7.029070   21.660370
  H     37.313160   -5.855510   22.308620

----------------------------
CARTESIAN COORDINATES (A.U.)
----------------------------
  NO LB      ZA    FRAG     MASS         X           Y           Z
   0 C     6.0000    0    12.011   -0.876738   20.583615   10.153461
   1 C     6.0000    0    12.011   -2.961239   20.767769    8.517582
   2 C     6.0000    0    12.011   -2.734528   20.022499    5.962199
   3 C     6.0000    0    12.011   -0.510887   19.076993    4.914157
   4 C     6.0000    0    12.011    1.589392   18.928045    6.545747
   5 C     6.0000    0    12.011    1.361472   19.703494    9.099050
   6 C     6.0000    0    12.011   -5.437252   21.672324    9.079681
   7 C     6.0000    0    12.011   -7.013662   21.558034    7.082864
   8 S    16.0000    0    32.060   -5.607120   20.376936    4.379818
   9 C     6.0000    0    12.011    4.069922   18.086380    5.991717
  10 C     6.0000    0    12.011    5.669934   18.160155    8.011362
  11 S    16.0000    0    32.060    4.190808   19.317593   10.735950
  12 C     6.0000    0    12.011   -1.077144   21.231186   12.809376
  13 C     6.0000    0    12.011   -0.406348   18.298653    2.292276
  14 C     6.0000    0    12.011   -2.941718   20.588793   14.474131
  15 C     6.0000    0    12.011   -2.513298   21.503515   16.939070
  16 C     6.0000    0    12.011   -0.341587   22.861491   17.162228
  17 S    16.0000    0    32.060    1.247729   23.015428   14.302865
  18 C     6.0000    0    12.011   -1.562690   19.411399    0.264637
  19 C     6.0000    0    12.011   -1.125464   18.143053   -2.031663
  20 C     6.0000    0    12.011    0.333896   16.039750   -1.776947
  21 S    16.0000    0    32.060    1.229494   15.604489    1.337964
  22 C     6.0000    0    12.011    0.762013   24.052264   19.462233
  23 C     6.0000    0    12.011    3.034976   22.546436   20.425672
  24 C     6.0000    0    12.011    1.288850   14.315942   -3.787824
  25 C     6.0000    0    12.011    3.879022   15.192850   -4.733367
  26 C     6.0000    0    12.011    8.250733   17.408951    8.080318
  27 C     6.0000    0    12.011    9.911500   17.690652   10.058578
  28 C     6.0000    0    12.011   12.292725   16.716328    9.502658
  29 C     6.0000    0    12.011   12.529357   15.633704    7.112117
  30 S    16.0000    0    32.060    9.643405   15.907356    5.520551
  31 C     6.0000    0    12.011   14.716507   14.450301    6.099280
  32 S    16.0000    0    32.060   17.507595   14.487510    7.870124
  33 C     6.0000    0    12.011   19.134252   12.754593    5.614641
  34 C     6.0000    0    12.011   17.587133   12.102260    3.625288
  35 C     6.0000    0    12.011   15.100896   13.124054    3.847955
  36 C     6.0000    0    12.011   18.329342   10.275367    1.670102
  37 C     6.0000    0    12.011   16.493549   10.055535   -0.383936
  38 C     6.0000    0    12.011   14.068369   11.251694   -0.276996
  39 C     6.0000    0    12.011   13.240498   12.789988    1.859018
  40 C     6.0000    0    12.011   16.860892    8.700658   -2.560749
  41 S    16.0000    0    32.060   14.245247    8.916918   -4.517296
  42 C     6.0000    0    12.011   12.631515   10.802714   -2.392847
  43 C     6.0000    0    12.011   21.764845   12.262074    5.975635
  44 C     6.0000    0    12.011   23.729442   12.466164    4.277546
  45 C     6.0000    0    12.011   26.107833   11.913287    5.304801
  46 S    16.0000    0    32.060   22.916066   11.437775    8.942638
  47 O     8.0000    0    15.999   20.251061    9.011783    1.813684
  48 O     8.0000    0    15.999   11.130355   13.758624    1.916107
  49 C     6.0000    0    12.011   19.150050    7.315867   -3.412449
  50 C     6.0000    0    12.011   20.942096    9.093551   -4.829781
  51 C     6.0000    0    12.011   10.007555   11.625538   -2.960332
  52 C     6.0000    0    12.011    8.086270    9.928848   -1.616113
  53 C     6.0000    0    12.011   30.865766    8.775718   15.537120
  54 C     6.0000    0    12.011   30.320788    9.459156   13.022141
  55 C     6.0000    0    12.011   32.274935    9.522047   11.195172
  56 C     6.0000    0    12.011   34.783641    8.947740   11.732006
  57 C     6.0000    0    12.011   35.342112    8.345352   14.266355
  58 C     6.0000    0    12.011   33.382031    8.268742   16.090772
  59 C     6.0000    0    12.011   27.950070   10.127005   11.974722
  60 C     6.0000    0    12.011   28.036336   10.616311    9.445645
  61 S    16.0000    0    32.060   31.096332   10.314673    8.220800
  62 C     6.0000    0    12.011   37.720937    7.763165   15.342630
  63 C     6.0000    0    12.011   37.609878    7.172229   17.850731
  64 S    16.0000    0    32.060   34.525485    7.356798   19.039558
  65 C     6.0000    0    12.011   28.882688    8.593775   17.416699
  66 C     6.0000    0    12.011   36.664750    8.889706    9.744826
  67 C     6.0000    0    12.011   26.536706    7.541462   17.176193
  68 C     6.0000    0    12.011   25.077497    7.705169   19.397302
  69 C     6.0000    0    12.011   26.284976    8.897738   21.329528
  70 S    16.0000    0    32.060   29.298862    9.819754   20.441583
  71 C     6.0000    0    12.011   36.890818   10.471672    7.714259
  72 C     6.0000    0    12.011   38.835875    9.769053    6.040037
  73 C     6.0000    0    12.011   40.081772    7.635098    6.754127
  74 S    16.0000    0    32.060   38.893644    6.471726    9.571954
  75 C     6.0000    0    12.011   25.368553    9.375820   23.947951
  76 C     6.0000    0    12.011   26.709427    7.663747   25.853268
  77 C     6.0000    0    12.011   42.261438    6.371098    5.498347
  78 C     6.0000    0    12.011   44.751058    7.080558    6.786536
  79 C     6.0000    0    12.011   26.001781   11.305494    7.824468
  80 C     6.0000    0    12.011   39.640710    6.440602   19.454976
  81 C     6.0000    0    12.011   39.453286    5.503619   21.872201
  82 C     6.0000    0    12.011   41.802802    4.898189   22.891878
  83 C     6.0000    0    12.011   43.863662    5.404201   21.329188
  84 S    16.0000    0    32.060   42.763217    6.685530   18.486586
  85 C     6.0000    0    12.011   46.445254    4.898416   21.875300
  86 S    16.0000    0    32.060   47.147004    3.042572   24.505250
  87 C     6.0000    0    12.011   50.399506    3.199911   24.007137
  88 C     6.0000    0    12.011   50.903458    4.699428   21.895652
  89 C     6.0000    0    12.011   48.674791    5.622427   20.674965
  90 C     6.0000    0    12.011   53.419478    5.321129   21.002908
  91 C     6.0000    0    12.011   53.525019    7.059299   18.869463
  92 C     6.0000    0    12.011   51.297523    7.984830   17.656014
  93 C     6.0000    0    12.011   48.774531    7.174270   18.413869
  94 C     6.0000    0    12.011   55.712717    7.972471   17.812351
  95 S    16.0000    0    32.060   55.035118   10.037942   15.370995
  96 C     6.0000    0    12.011   51.809223    9.641572   15.726773
  97 C     6.0000    0    12.011   52.017150    1.928088   25.732098
  98 C     6.0000    0    12.011   51.284711    0.411998   27.762061
  99 C     6.0000    0    12.011   53.258794   -0.567050   29.204697
 100 S    16.0000    0    32.060   55.318633    2.082818   25.659268
 101 O     8.0000    0    15.999   55.360415    4.501347   21.984186
 102 O     8.0000    0    15.999   46.891626    7.751581   17.182297
 103 C     6.0000    0    12.011   58.380481    7.467045   18.531202
 104 C     6.0000    0    12.011   59.165681    9.044059   20.826898
 105 C     6.0000    0    12.011   50.027627   10.960204   14.005365
 106 C     6.0000    0    12.011   49.303786    9.252269   11.784975
 107 C     6.0000    0    12.011   64.914927    0.447393   29.650994
 108 C     6.0000    0    12.011   62.364232   -0.260650   29.938308
 109 C     6.0000    0    12.011   61.654828   -2.007135   31.838522
 110 C     6.0000    0    12.011   63.373856   -3.146696   33.469015
 111 C     6.0000    0    12.011   65.938894   -2.515509   33.115107
 112 C     6.0000    0    12.011   66.639019   -0.740300   31.233866
 113 C     6.0000    0    12.011   60.261741    0.587780   28.524490
 114 C     6.0000    0    12.011   58.007449   -0.365038   29.338679
 115 S    16.0000    0    32.060   58.385243   -2.433854   31.896385
 116 C     6.0000    0    12.011   68.068918   -3.438243   34.445210
 117 C     6.0000    0    12.011   70.299135   -2.377540   33.700809
 118 S    16.0000    0    32.060   69.882791   -0.186233   31.253916
 119 C     6.0000    0    12.011   65.648330    2.357887   27.832113
 120 C     6.0000    0    12.011   62.520928   -4.827343   35.453813
 121 C     6.0000    0    12.011   64.472996    4.599234   27.315405
 122 C     6.0000    0    12.011   65.704493    6.023502   25.433730
 123 C     6.0000    0    12.011   67.803619    4.875550   24.490454
 124 S    16.0000    0    32.060   68.322973    1.991431   25.952592
 125 C     6.0000    0    12.011   60.623473   -6.578174   35.347649
 126 C     6.0000    0    12.011   60.178367   -7.794572   37.671615
 127 C     6.0000    0    12.011   61.698481   -6.961675   39.571980
 128 S    16.0000    0    32.060   63.768619   -4.667227   38.496858
 129 C     6.0000    0    12.011   69.598462    5.821660   22.538650
 130 C     6.0000    0    12.011   72.132887    6.558861   23.718274
 131 C     6.0000    0    12.011   61.814491   -7.848637   42.241218
 132 C     6.0000    0    12.011   63.998278   -9.706276   42.617009
 133 C     6.0000    0    12.011   55.582005    0.193621   28.325842
 134 C     6.0000    0    12.011   72.756119   -2.840920   34.689740
 135 C     6.0000    0    12.011   74.934671   -1.555207   34.090924
 136 C     6.0000    0    12.011   77.014579   -2.431530   35.444025
 137 C     6.0000    0    12.011   76.519547   -4.441026   37.074367
 138 S    16.0000    0    32.060   73.315913   -5.230743   36.863152
 139 C     6.0000    0    12.011   78.270038   -5.618515   38.738479
 140 S    16.0000    0    32.060   81.209280   -4.198329   39.171509
 141 C     6.0000    0    12.011   82.213802   -6.463714   41.340121
 142 C     6.0000    0    12.011   80.354538   -8.305327   41.627624
 143 C     6.0000    0    12.011   78.126381   -7.820178   40.173839
 144 C     6.0000    0    12.011   80.620158  -10.553705   43.184796
 145 C     6.0000    0    12.011   78.614648  -12.423683   42.890642
 146 C     6.0000    0    12.011   76.392292  -11.932713   41.435968
 147 C     6.0000    0    12.011   75.965498   -9.512012   40.188636
 148 C     6.0000    0    12.011   78.615177  -14.781343   43.973965
 149 S    16.0000    0    32.060   75.920692  -16.435477   43.140879
 150 C     6.0000    0    12.011   74.750668  -13.939792   41.382470
 151 C     6.0000    0    12.011   84.661299   -6.181030   42.430588
 152 C     6.0000    0    12.011   86.430347   -4.324676   41.854505
 153 C     6.0000    0    12.011   88.681219   -4.461398   43.249066
 154 C     6.0000    0    12.011   88.639589   -6.413825   44.917581
 155 S    16.0000    0    32.060   85.900846   -8.127032   44.799870
 156 O     8.0000    0    15.999   82.409653  -10.905175   44.618947
 157 O     8.0000    0    15.999   73.917488   -8.974744   39.235118
 158 C     6.0000    0    12.011   80.582590  -16.003127   45.562166
 159 C     6.0000    0    12.011   82.720947  -17.058293   43.921865
 160 C     6.0000    0    12.011   72.244892  -14.145016   40.135175
 161 C     6.0000    0    12.011   70.170558  -13.064489   41.838215
 162 Cl   17.0000    0    35.453   14.673251   16.875802   11.699087
 163 Cl   17.0000    0    35.453   23.353614   13.469760    1.233670
 164 Cl   17.0000    0    35.453   42.001544    3.655467   25.881897
 165 Cl   17.0000    0    35.453   48.213320   -0.280549   28.541479
 166 Cl   17.0000    0    35.453   79.925079   -1.064426   35.013110
 167 Cl   17.0000    0    35.453   86.045845   -1.996042   39.629749
 168 H     1.0000    0     1.008   -5.971459   22.401626   10.897616
 169 H     1.0000    0     1.008   -8.958719   22.120624    6.993876
 170 H     1.0000    0     1.008    4.691585   17.456099    4.164616
 171 H     1.0000    0     1.008   -4.530581   19.426611   13.967552
 172 H     1.0000    0     1.008   -3.778791   21.162476   18.493408
 173 H     1.0000    0     1.008   -2.634770   21.131390    0.397504
 174 H     1.0000    0     1.008   -1.876611   18.767664   -3.814337
 175 H     1.0000    0     1.008   -0.687634   24.141308   20.928377
 176 H     1.0000    0     1.008    1.364118   25.978953   19.026934
 177 H     1.0000    0     1.008    2.471818   20.627513   20.900239
 178 H     1.0000    0     1.008    3.822047   23.435987   22.101897
 179 H     1.0000    0     1.008    4.492011   22.458790   18.978765
 180 H     1.0000    0     1.008   -0.051363   14.297328   -5.357525
 181 H     1.0000    0     1.008    1.444242   12.397586   -3.042440
 182 H     1.0000    0     1.008    3.739863   17.078022   -5.539789
 183 H     1.0000    0     1.008    4.587235   13.911124   -6.174605
 184 H     1.0000    0     1.008    5.220066   15.248370   -3.177253
 185 H     1.0000    0     1.008    9.443869   18.570036   11.829308
 186 H     1.0000    0     1.008   27.834721   11.967503    4.237333
 187 H     1.0000    0     1.008   18.597437    5.762266   -4.652789
 188 H     1.0000    0     1.008   20.120727    6.558597   -1.759127
 189 H     1.0000    0     1.008   20.001334    9.925484   -6.458611
 190 H     1.0000    0     1.008   22.591147    8.055392   -5.476937
 191 H     1.0000    0     1.008   21.567671   10.602743   -3.584489
 192 H     1.0000    0     1.008    9.692821   11.558113   -4.998137
 193 H     1.0000    0     1.008    9.757998   13.561676   -2.293372
 194 H     1.0000    0     1.008    8.361774    7.961662   -2.146842
 195 H     1.0000    0     1.008    6.180085   10.492137   -2.126452
 196 H     1.0000    0     1.008    8.297334   10.113701    0.417629
 197 H     1.0000    0     1.008   26.236769   10.279638   13.055513
 198 H     1.0000    0     1.008   39.476681    7.776639   14.322386
 199 H     1.0000    0     1.008   25.905027    6.604933   15.486703
 200 H     1.0000    0     1.008   23.189718    6.966400   19.550067
 201 H     1.0000    0     1.008   35.743584   12.128300    7.458314
 202 H     1.0000    0     1.008   39.282833   10.805019    4.349129
 203 H     1.0000    0     1.008   23.334263    9.035140   24.013279
 204 H     1.0000    0     1.008   25.711803   11.348259   24.454681
 205 H     1.0000    0     1.008   26.372829    5.687773   25.398562
 206 H     1.0000    0     1.008   26.017050    8.030051   27.752367
 207 H     1.0000    0     1.008   28.735478    8.006732   25.811505
 208 H     1.0000    0     1.008   42.315674    6.944970    3.516610
 209 H     1.0000    0     1.008   42.017116    4.322919    5.576128
 210 H     1.0000    0     1.008   45.051732    9.110842    6.676119
 211 H     1.0000    0     1.008   46.327241    6.131141    5.873514
 212 H     1.0000    0     1.008   44.708199    6.530950    8.766099
 213 H     1.0000    0     1.008   37.699110    5.233313   22.860867
 214 H     1.0000    0     1.008   52.979663   -1.763814   30.822586
 215 H     1.0000    0     1.008   59.612299    7.904271   16.934800
 216 H     1.0000    0     1.008   58.572912    5.470625   19.014746
 217 H     1.0000    0     1.008   58.910682   11.049777   20.453148
 218 H     1.0000    0     1.008   61.141843    8.693402   21.260156
 219 H     1.0000    0     1.008   58.036097    8.512952   22.456957
 220 H     1.0000    0     1.008   50.903307   12.689284   13.297927
 221 H     1.0000    0     1.008   48.314666   11.437549   15.050875
 222 H     1.0000    0     1.008   50.976780    8.661749   10.746287
 223 H     1.0000    0     1.008   48.053921   10.263159   10.509655
 224 H     1.0000    0     1.008   48.323982    7.589121   12.484154
 225 H     1.0000    0     1.008   60.391150    1.842200   26.932660
 226 H     1.0000    0     1.008   67.988699   -4.846033   35.906573
 227 H     1.0000    0     1.008   62.822925    5.246258   28.309061
 228 H     1.0000    0     1.008   65.050137    7.843289   24.805811
 229 H     1.0000    0     1.008   59.619234   -7.030688   33.641075
 230 H     1.0000    0     1.008   58.763056   -9.231048   37.927975
 231 H     1.0000    0     1.008   68.761087    7.459543   21.602820
 232 H     1.0000    0     1.008   69.916314    4.356518   21.118162
 233 H     1.0000    0     1.008   71.865472    8.039254   25.118788
 234 H     1.0000    0     1.008   73.421359    7.244360   22.272463
 235 H     1.0000    0     1.008   72.983189    4.932450   24.643125
 236 H     1.0000    0     1.008   60.029305   -8.768348   42.717713
 237 H     1.0000    0     1.008   62.071872   -6.234660   43.501874
 238 H     1.0000    0     1.008   63.753672  -11.341588   41.396057
 239 H     1.0000    0     1.008   64.069105  -10.345854   44.567736
 240 H     1.0000    0     1.008   65.785449   -8.804253   42.153724
 241 H     1.0000    0     1.008   75.029157   -0.027155   32.755284
 242 H     1.0000    0     1.008   90.215545   -3.155465   42.998224
 243 H     1.0000    0     1.008   90.104032   -6.952132   46.209587
 244 H     1.0000    0     1.008   79.729757  -17.529818   46.656734
 245 H     1.0000    0     1.008   81.370001  -14.596245   46.848560
 246 H     1.0000    0     1.008   81.986902  -18.400717   42.547996
 247 H     1.0000    0     1.008   84.101336  -18.010772   45.105873
 248 H     1.0000    0     1.008   83.660217  -15.527029   42.927094
 249 H     1.0000    0     1.008   71.841662  -16.124731   39.716431
 250 H     1.0000    0     1.008   72.279247  -13.065963   38.377446
 251 H     1.0000    0     1.008   70.135523  -14.038832   43.648157
 252 H     1.0000    0     1.008   68.342456  -13.283017   40.932167
 253 H     1.0000    0     1.008   70.511654  -11.065310   42.157182

--------------------------------
INTERNAL COORDINATES (ANGSTROEM)
--------------------------------
 C      0   0   0     0.000000000000     0.00000000     0.00000000
 C      1   0   0     1.405576207930     0.00000000     0.00000000
 C      2   1   0     1.413686120679   120.21041192     0.00000000
 C      3   2   1     1.393751830707   123.53327268     0.19269028
 C      4   3   2     1.409583828227   116.23303598   358.90034244
 C      1   2   3     1.389629920734   116.41246192     1.43631525
 C      2   1   3     1.426308709186   128.00656716   180.52857889
 C      7   2   1     1.347627158861   112.95846433   181.03136625
 S      8   7   2     1.729349712551   113.47467556   359.44528260
 C      5   4   3     1.416809985178   128.41341493   180.97352208
 C     10   5   4     1.364050820241   113.82537491   180.47964527
 S      6   1   2     1.741748895966   124.90859683   179.88630565
 C      1   2   3     1.450505390338   121.53340231   182.65719896
 C      4   3   2     1.448342221438   121.03239653   178.81751030
 C     13   1   2     1.365719320432   128.24500158    44.65251269
 C     15  13   1     1.409657794892   113.27922940   178.89681950
 C     16  15  13     1.360533788114   113.42387721     0.55686719
 S     17  16  15     1.733051950924   111.03634587   359.49418427
 C     14   4   3     1.368375852644   127.71249737    37.83772395
 C     19  14   4     1.407339401779   113.47202747   181.46409374
 C     20  19  14     1.361384358695   113.43314278     0.83567773
 S     21  20  19     1.730516197382   111.00678901   359.38192243
 C     17  16  15     1.489790780278   128.71375397   181.82307856
 C     23  17  16     1.530236710905   111.10374082   105.34387196
 C     21  20  19     1.489901824853   128.48032438   183.41807257
 C     25  21  20     1.531144045085   110.57719062    90.70142694
 C     11  10   5     1.422845796459   127.43673794   178.92345424
 C     27  11  10     1.374946010940   127.06679199   173.90754187
 C     28  27  11     1.392911242183   112.16652528   179.24030976
 C     29  28  27     1.394334988014   115.14691525   359.20869824
 S     27  11  10     1.734759267997   121.04494200   352.65129272
 C     30  29  28     1.420907972354   126.61637938   181.80124790
 S     32  30  29     1.749284220646   118.73230980   355.38711268
 C     33  32  30     1.733910812874    92.54817193   178.58387301
 C     34  33  32     1.377552949400   111.31687317   358.11935648
 C     32  30  29     1.397584259714   131.40748774   173.61963036
 C     35  34  33     1.469471302782   122.96142594   190.90828953
 C     37  35  34     1.462438888638   113.45921202   185.52355831
 C     38  37  35     1.432080071435   122.05655321   351.74886732
 C     36  32  30     1.451967041224   125.47646225     4.30532816
 C     38  37  35     1.370676161389   124.89159496   172.51761442
 S     41  38  37     1.732313592511   110.75763102   180.07737433
 C     39  38  37     1.374125047512   112.78321741   180.17737129
 C     34  33  32     1.429063910502   119.21084210   176.48294713
 C     44  34  33     1.378382288228   129.29120424   225.59220938
 C     45  44  34     1.401836992307   114.07988332   177.83413920
 S     44  34  33     1.739688157372   120.49598908    41.59480380
 O     37  35  34     1.219436665391   122.66783111     7.96376946
 O     40  36  32     1.229038563309   123.19080681     3.34971961
 C     41  38  37     1.485780470628   128.94275817   356.04822574
 C     50  41  38     1.531912908948   110.50897093   273.31867676
 C     43  39  38     1.485871460793   129.13117287   177.67243288
 C     52  43  39     1.531601737202   110.77401242   280.61485652
 C     47  44  34     5.644400681428   151.82835905   180.20936163
 C     54  47  44     1.408964763434    36.81305662     1.77171434
 C     55  54  47     1.416027044445   120.09689349   182.86388192
 C     56  55  54     1.391205138360   123.52578807   359.67485944
 C     57  56  55     1.409806776902   116.33860760   358.28793605
 C     54  47  44     1.389545552078   153.21948336     0.05416769
 C     55  54  47     1.416318954862   127.95229275     2.54350355
 C     60  55  54     1.363911967944   113.68636328   181.97025698
 S     56  55  54     1.744219220912   111.13888263   177.95909678
 C     58  57  56     1.415597714889   128.19553151   181.94294638
 C     63  58  57     1.364837327267   113.75448436   182.25699367
 S     59  54  47     1.741826383254   125.11842270   181.87748511
 C     54  47  44     1.449068333551    84.33007856   181.57126263
 C     57  56  55     1.448324329216   120.81244674   176.00535721
 C     66  54  47     1.366551860011   128.39193103    42.87321085
 C     68  66  54     1.408984683700   113.27353070   180.26609128
 C     69  68  66     1.360893246144   113.45022181     0.57220419
 S     70  69  68     1.732768189026   111.03829335   359.29346467
 C     67  57  56     1.367380502055   128.14910209    38.69686728
 C     72  67  57     1.408043009322   113.37488446   184.34261804
 C     73  72  67     1.361121876248   113.48274417     0.89461297
 S     74  73  72     1.731407054017   110.98933752   358.96716356
 C     70  69  68     1.489662886260   128.66465539   181.27184022
 C     76  70  69     1.529987364719   111.18736924   106.96879258
 C     74  73  72     1.489765531955   128.58541186   181.55849847
 C     78  74  73     1.530133918910   110.96117056    98.99005260
 C     46  45  44     1.372740883707   112.88261616   359.23420325
 C     64  63  58     1.423197322721   127.58026381   178.21204141
 C     81  64  63     1.375457451505   126.75114515   190.10369952
 C     82  81  64     1.392702577222   112.26335382   178.10758369
 C     83  82  81     1.394579381068   115.10041627     1.51705426
 S     81  64  63     1.734847925381   121.51259174    10.57607507
 C     84  83  82     1.421771991917   126.49247640   182.02259138
 S     86  84  83     1.743335604954   118.22816039    10.59497213
 C     87  86  84     1.743206596534    93.59473034   179.61633117
 C     88  87  86     1.396154491810   109.67921149     1.34140228
 C     86  84  83     1.393639180491   131.99327471   190.66798149
 C     89  88  87     1.450549651994   124.39355766   177.29474183
 C     91  89  88     1.457300423180   115.50784309   184.15296214
 C     92  91  89     1.428857437745   122.20028016   356.87613445
 C     90  86  84     1.452176049520   124.17827192   359.72858489
 C     92  91  89     1.373558362539   124.74031538   177.02165293
 S     95  92  91     1.729812964745   110.59433511   181.39205996
 C     93  92  91     1.372661451560   112.98122516   178.63287309
 C     88  87  86     1.420896990249   118.36355629   179.76509332
 C     98  88  87     1.395638323707   126.82947121     3.76509293
 C     99  98  88     1.393730535577   115.28538534   181.54515364
 S     98  88  87     1.749412258703   124.42464962   185.05042735
 O     91  89  88     1.229945876451   123.29840640     2.67542613
 O     94  90  86     1.229171363358   123.22675933   351.30690627
 C     95  92  91     1.486335214546   129.27060584   359.70332923
 C    104  95  92     1.531301446287   111.26581614   280.56273028
 C     97  93  92     1.485105544195   129.12856990   178.84902313
 C    106  97  93     1.531062403039   110.62074616   276.15593929
 C    101  98  88     5.567621841810   153.53793831   168.94719994
 C    108 101  98     1.409035243314    37.67880899    15.11178226
 C    109 108 101     1.416404462892   120.26505169   179.87271182
 C    110 109 108     1.391259516481   123.35366124   358.74186356
 C    111 110 109     1.410341323262   116.37722845   358.74790809
 C    108 101  98     1.388885177723   153.93433272    21.13498653
 C    109 108 101     1.413921481059   127.75258602   359.32200604
 C    114 109 108     1.364887384732   113.79129294   182.89063209
 S    110 109 108     1.745131850778   111.07893860   176.95621529
 C    112 111 110     1.415745630154   128.21032552   181.83455133
 C    117 112 111     1.364937906573   113.77074353   182.21746576
 S    113 108 101     1.741422996575   125.09879413   176.12720841
 C    108 101  98     1.448843638976    83.32777667   198.86159699
 C    111 110 109     1.448388459012   120.80497141   177.04883125
 C    120 108 101     1.366879750161   128.06054592    44.87718883
 C    122 120 108     1.408628263986   113.27673953   179.70139825
 C    123 122 120     1.360911225099   113.45675958     0.55261114
 S    124 123 122     1.733062781869   111.02521259   359.35420035
 C    121 111 110     1.367389911657   127.95804417    38.91713263
 C    126 121 111     1.407906016679   113.37473085   183.68614927
 C    127 126 121     1.361112672595   113.48064546     0.90772012
 S    128 127 126     1.731457378829   110.99090017   358.99785184
 C    124 123 122     1.489812270791   128.65572242   181.37659492
 C    130 124 123     1.529888574570   111.20445539   108.09518549
 C    128 127 126     1.489705941352   128.52593369   181.78383221
 C    132 128 127     1.530133357620   110.90153169    98.82392998
 C    100  99  98     1.374670970778   112.09574542     0.48304949
 C    118 117 112     1.422835127097   127.81300698   178.37092284
 C    135 118 117     1.375629432987   126.57262290   187.40405939
 C    136 135 118     1.392534697377   112.28602175   178.34134171
 C    137 136 135     1.394173724326   115.06707426     1.33767150
 S    135 118 117     1.734889782349   121.70078096     7.99489900
 C    138 137 136     1.421898844679   126.51832229   182.69186391
 S    140 138 137     1.742559613844   118.29012708     9.81511266
 C    141 140 138     1.742585431306    93.56535620   178.55202722
 C    142 141 140     1.393159949755   109.73746358     2.27132684
 C    140 138 137     1.392874200673   131.96815247   190.38314506
 C    143 142 141     1.454086076579   124.47113816   176.39209593
 C    145 143 142     1.459360562370   115.09258313   189.56664995
 C    146 145 143     1.429365427349   122.17550796   352.10908206
 C    144 140 138     1.452293691854   124.16309083     1.58777598
 C    146 145 143     1.373023756422   124.85191142   173.09199518
 S    149 146 145     1.730210412349   110.68019984   180.65812320
 C    147 146 145     1.372412084689   113.03109240   179.55959692
 C    142 141 140     1.425764109592   118.12917393   181.24025030
 C    152 142 141     1.390785209046   126.64365057   356.55033202
 C    153 152 142     1.403059968604   114.81628101   178.91384156
 C    154 153 152     1.359238491546   111.53687010   359.50187470
 S    155 154 153     1.710613337549   113.13656189     0.66742093
 O    145 143 142     1.227715393770   123.28622878     8.33828262
 O    148 144 140     1.228807914240   123.33842848   348.72454712
 C    149 146 145     1.486022677250   129.16990505   357.78902830
 C    159 149 146     1.531557730515   110.83740044   280.32627381
 C    151 147 146     1.485167587042   129.11654662   178.58230030
 C    161 151 147     1.531027956734   110.56169120   275.44446609
 Cl    29  28  27     1.716087830066   120.18687594   179.72052688
 Cl    45  44  34     1.707663545111   123.46627102     1.28522405
 Cl    83  82  81     1.716694456157   119.99421919   180.87828660
 Cl    99  98  88     1.716407640684   124.79697108     1.55181411
 Cl   137 136 135     1.716824610553   120.02896807   180.71402101
 Cl   153 152 142     1.716355584545   125.28603827   358.55605162
 H      7   2   1     1.074392312472   123.29761555     2.17833432
 H      8   7   2     1.072504559711   128.02720076   180.24896354
 H     10   5   4     1.074375065515   124.57580005     1.07638818
 H     15  13   1     1.075646014728   123.11236002     1.61737272
 H     16  15  13     1.075902635093   123.34663653   180.55012563
 H     19  14   4     1.074813058583   123.30855836     3.95428145
 H     20  19  14     1.075712602650   123.36059477   180.58002227
 H     23  17  16     1.092079031618   108.86221358   344.37272535
 H     23  17  16     1.092740783763   109.67727929   226.01810860
 H     24  23  17     1.087664902210   110.34824071   300.11381715
 H     24  23  17     1.087135439262   110.33456250   179.95668254
 H     24  23  17     1.087606966785   110.17479379    59.87809763
 H     25  21  20     1.092270694059   109.17413781   330.04340403
 H     25  21  20     1.092187808484   109.67409392   211.44471049
 H     26  25  21     1.087527326231   110.21953549   298.99258555
 H     26  25  21     1.087269382168   110.40958899   178.90854236
 H     26  25  21     1.087452379877   110.17647869    58.64420540
 H     28  27  11     1.075087110424   124.29179421   358.84567715
 H     46  45  44     1.074708239198   123.64356716   179.51572750
 H     50  41  38     1.091888955618   109.59369664   152.55502263
 H     50  41  38     1.090816730024   108.77271237    33.03030381
 H     51  50  41     1.088387123270   110.66913001   301.34477838
 H     51  50  41     1.086548120471   109.93758147   181.13059788
 H     51  50  41     1.087038177296   110.05168286    61.62924232
 H     52  43  39     1.091729020637   109.42754692   159.45116516
 H     52  43  39     1.091663721482   108.82830357    39.99742650
 H     53  52  43     1.088021887050   110.61236133   303.12928968
 H     53  52  43     1.085946570555   109.88866029   182.93519136
 H     53  52  43     1.086402951303   109.81899925    63.66933320
 H     60  55  54     1.074999445302   123.88902691     3.20297035
 H     63  58  57     1.074597068207   124.42090506     2.41341528
 H     68  66  54     1.075478220421   123.19920659     3.00839982
 H     69  68  66     1.075783551696   123.31562234   180.34186795
 H     72  67  57     1.074903476690   123.29216863     6.54853459
 H     73  72  67     1.075697475408   123.33612419   180.26444786
 H     76  70  69     1.092038558523   108.80328277   345.93468614
 H     76  70  69     1.092864733167   109.65280422   227.67106834
 H     77  76  70     1.087652393185   110.33722036   300.31853304
 H     77  76  70     1.087087935404   110.32292355   180.18278938
 H     77  76  70     1.087618885272   110.17934753    60.10882721
 H     78  74  73     1.092151980495   108.89382031   338.16200922
 H     78  74  73     1.092309879201   109.69761796   219.71274548
 H     79  78  74     1.087668350831   110.14392582   299.33224628
 H     79  78  74     1.086986281882   110.44146852   179.26838434
 H     79  78  74     1.087401645943   110.21782884    59.14614580
 H     82  81  64     1.075110667280   124.24771909   359.12785090
 H    100  99  98     1.075118577925   123.51649037   180.01224011
 H    104  95  92     1.091830457443   109.32341120   159.30206955
 H    104  95  92     1.091765384549   108.82622240    39.97360082
 H    105 104  95     1.088050199393   110.71723463   302.48600747
 H    105 104  95     1.086540102389   109.60200301   182.30354028
 H    105 104  95     1.086441748600   109.85268850    63.14218851
 H    106  97  93     1.091825261569   109.55069144   155.05325243
 H    106  97  93     1.091592011330   108.96579709    35.38982527
 H    107 106  97     1.087905748997   110.71401607   302.17956888
 H    107 106  97     1.085845422010   109.78797972   181.96477919
 H    107 106  97     1.086416352141   109.64847128    62.64851654
 H    114 109 108     1.074664410921   124.10795611     3.82553323
 H    117 112 111     1.074619060784   124.43144832     2.44045108
 H    122 120 108     1.075249225482   123.22949468     2.39186172
 H    123 122 120     1.075947327428   123.25020731   180.64083030
 H    126 121 111     1.074849661302   123.26587475     5.87814317
 H    127 126 121     1.075712675671   123.34734022   180.36780952
 H    130 124 123     1.092162568348   108.80706842   347.06486277
 H    130 124 123     1.092909053170   109.66627488   228.80467774
 H    131 130 124     1.087650599503   110.34239512   300.14803593
 H    131 130 124     1.087125760664   110.34946656   179.98657583
 H    131 130 124     1.087530130755   110.15280334    59.91141671
 H    132 128 127     1.092184545304   108.88422614   338.03735820
 H    132 128 127     1.092263172729   109.74781881   219.55759473
 H    133 132 128     1.087687988579   110.12401147   300.12262190
 H    133 132 128     1.086993629834   110.45638227   180.05723593
 H    133 132 128     1.087360376048   110.21498059    59.90959760
 H    136 135 118     1.075128939337   124.22127166   359.26354315
 H    154 153 152     1.074443101053   122.91362660   179.76180758
 H    155 154 153     1.071978736776   127.19799934   179.88270621
 H    159 149 146     1.091720545973   109.41526897   159.28152921
 H    159 149 146     1.091458160169   108.87042966    39.80116110
 H    160 159 149     1.088155989921   110.66606614   302.47056637
 H    160 159 149     1.086368981654   109.82038302   182.31832606
 H    160 159 149     1.086627142032   109.91615841    62.98424919
 H    161 151 147     1.091852012362   109.56283687   154.37661374
 H    161 151 147     1.091586897595   109.00038026    34.68968795
 H    162 161 151     1.087901475318   110.69804315   302.10742153
 H    162 161 151     1.085862750673   109.81946091   181.88956979
 H    162 161 151     1.086400037049   109.63403555    62.54323479

---------------------------
INTERNAL COORDINATES (A.U.)
---------------------------
 C      0   0   0     0.000000000000     0.00000000     0.00000000
 C      1   0   0     2.656154093344     0.00000000     0.00000000
 C      2   1   0     2.671479607409   120.21041192     0.00000000
 C      3   2   1     2.633809258688   123.53327268     0.19269028
 C      4   3   2     2.663727398154   116.23303598   358.90034244
 C      1   2   3     2.626019977691   116.41246192     1.43631525
 C      2   1   3     2.695332842788   128.00656716   180.52857889
 C      7   2   1     2.546646260882   112.95846433   181.03136625
 S      8   7   2     3.267997346497   113.47467556   359.44528260
 C      5   4   3     2.677382855791   128.41341493   180.97352208
 C     10   5   4     2.577682483006   113.82537491   180.47964527
 S      6   1   2     3.291428407436   124.90859683   179.88630565
 C      1   2   3     2.741057943516   121.53340231   182.65719896
 C      4   3   2     2.736970146713   121.03239653   178.81751030
 C     13   1   2     2.580835491421   128.24500158    44.65251269
 C     15  13   1     2.663867174893   113.27922940   178.89681950
 C     16  15  13     2.571036255482   113.42387721     0.55686719
 S     17  16  15     3.274993563103   111.03634587   359.49418427
 C     14   4   3     2.585855609769   127.71249737    37.83772395
 C     19  14   4     2.659486046839   113.47202747   181.46409374
 C     20  19  14     2.572643600938   113.43314278     0.83567773
 S     21  20  19     3.270201683366   111.00678901   359.38192243
 C     17  16  15     2.815296571565   128.71375397   181.82307856
 C     23  17  16     2.891728303682   111.10374082   105.34387196
 C     21  20  19     2.815506415401   128.48032438   183.41807257
 C     25  21  20     2.893442916795   110.57719062    90.70142694
 C     11  10   5     2.688788886108   127.43673794   178.92345424
 C     27  11  10     2.598271409604   127.06679199   173.90754187
 C     28  27  11     2.632220776586   112.16652528   179.24030976
 C     29  28  27     2.634911266291   115.14691525   359.20869824
 S     27  11  10     3.278219924795   121.04494200   352.65129272
 C     30  29  28     2.685126929255   126.61637938   181.80124790
 S     32  30  29     3.305668107410   118.73230980   355.38711268
 C     33  32  30     3.276616576976    92.54817193   178.58387301
 C     34  33  32     2.603197809341   111.31687317   358.11935648
 C     32  30  29     2.641051499938   131.40748774   173.61963036
 C     35  34  33     2.776898323915   122.96142594   190.90828953
 C     37  35  34     2.763608987121   113.45921202   185.52355831
 C     38  37  35     2.706239136858   122.05655321   351.74886732
 C     36  32  30     2.743820063393   125.47646225     4.30532816
 C     38  37  35     2.590202563320   124.89159496   172.51761442
 S     41  38  37     3.273598267916   110.75763102   180.07737433
 C     39  38  37     2.596720013559   112.78321741   180.17737129
 C     34  33  32     2.700539418720   119.21084210   176.48294713
 C     44  34  33     2.604765032598   129.29120424   225.59220938
 C     45  44  34     2.649087999860   114.07988332   177.83413920
 S     44  34  33     3.287534175859   120.49598908    41.59480380
 O     37  35  34     2.304401335251   122.66783111     7.96376946
 O     40  36  32     2.322546292682   123.19080681     3.34971961
 C     41  38  37     2.807718184616   128.94275817   356.04822574
 C     50  41  38     2.894895858929   110.50897093   273.31867676
 C     43  39  38     2.807890131109   129.13117287   177.67243288
 C     52  43  39     2.894307829550   110.77401242   280.61485652
 C     47  44  34    10.666371478017   151.82835905   180.20936163
 C     54  47  44     2.662557535236    36.81305662     1.77171434
 C     55  54  47     2.675903312227   120.09689349   182.86388192
 C     56  55  54     2.628996707605   123.52578807   359.67485944
 C     57  56  55     2.664148710092   116.33860760   358.28793605
 C     54  47  44     2.625860544036   153.21948336     0.05416769
 C     55  54  47     2.676454942970   127.95229275     2.54350355
 C     60  55  54     2.577420090191   113.68636328   181.97025698
 S     56  55  54     3.296096645046   111.13888263   177.95909678
 C     58  57  56     2.675091996946   128.19553151   181.94294638
 C     63  58  57     2.579168765887   113.75448436   182.25699367
 S     59  54  47     3.291574837189   125.11842270   181.87748511
 C     54  47  44     2.738342299749    84.33007856   181.57126263
 C     57  56  55     2.736936335314   120.81244674   176.00535721
 C     66  54  47     2.582408763222   128.39193103    42.87321085
 C     68  66  54     2.662595179082   113.27353070   180.26609128
 C     69  68  66     2.571715532715   113.45022181     0.57220419
 S     70  69  68     3.274457330830   111.03829335   359.29346467
 C     67  57  56     2.583974669748   128.14910209    38.69686728
 C     72  67  57     2.660815672401   113.37488446   184.34261804
 C     73  72  67     2.572147580997   113.48274417     0.89461297
 S     74  73  72     3.271885158432   110.98933752   358.96716356
 C     70  69  68     2.815054886898   128.66465539   181.27184022
 C     76  70  69     2.891257107679   111.18736924   106.96879258
 C     74  73  72     2.815248859150   128.58541186   181.55849847
 C     78  74  73     2.891534054964   110.96117056    98.99005260
 C     46  45  44     2.594104323043   112.88261616   359.23420325
 C     64  63  58     2.689453174472   127.58026381   178.21204141
 C     81  64  63     2.599237892205   126.75114515   190.10369952
 C     82  81  64     2.631826456955   112.26335382   178.10758369
 C     83  82  81     2.635373102232   115.10041627     1.51705426
 S     81  64  63     3.278387462972   121.51259174    10.57607507
 C     84  83  82     2.686759689603   126.49247640   182.02259138
 S     86  84  83     3.294426852877   118.22816039    10.59497213
 C     87  86  84     3.294183062294    93.59473034   179.61633117
 C     88  87  86     2.638349630164   109.67921149     1.34140228
 C     86  84  83     2.633596380631   131.99327471   190.66798149
 C     89  88  87     2.741141585923   124.39355766   177.29474183
 C     91  89  88     2.753898694657   115.50784309   184.15296214
 C     92  91  89     2.700149241755   122.20028016   356.87613445
 C     90  86  84     2.744215031833   124.17827192   359.72858489
 C     92  91  89     2.595649134155   124.74031538   177.02165293
 S     95  92  91     3.268872766274   110.59433511   181.39205996
 C     93  92  91     2.593954218040   112.98122516   178.63287309
 C     88  87  86     2.685106176084   118.36355629   179.76509332
 C     98  88  87     2.637374213811   126.82947121     3.76509293
 C     99  98  88     2.633769016724   115.28538534   181.54515364
 S     98  88  87     3.305910064273   124.42464962   185.05042735
 O     91  89  88     2.324260866039   123.29840640     2.67542613
 O     94  90  86     2.322797248406   123.22675933   351.30690627
 C     95  92  91     2.808766498695   129.27060584   359.70332923
 C    104  95  92     2.893740361960   111.26581614   280.56273028
 C     97  93  92     2.806442758497   129.12856990   178.84902313
 C    106  97  93     2.893288635687   110.62074616   276.15593929
 C    101  98  88    10.521280498259   153.53793831   168.94719994
 C    108 101  98     2.662690722906    37.67880899    15.11178226
 C    109 108 101     2.676616529729   120.26505169   179.87271182
 C    110 109 108     2.629099467362   123.35366124   358.74186356
 C    111 110 109     2.665158856317   116.37722845   358.74790809
 C    108 101  98     2.624612617360   153.93433272    21.13498653
 C    109 108 101     2.671924374070   127.75258602   359.32200604
 C    114 109 108     2.579263360787   113.79129294   182.89063209
 S    110 109 108     3.297821265554   111.07893860   176.95621529
 C    112 111 110     2.675371516287   128.21032552   181.83455133
 C    117 112 111     2.579358833231   113.77074353   182.21746576
 S    113 108 101     3.290812546839   125.09879413   176.12720841
 C    108 101  98     2.737917688538    83.32777667   198.86159699
 C    111 110 109     2.737057523065   120.80497141   177.04883125
 C    120 108 101     2.583028385807   128.06054592    44.87718883
 C    122 120 108     2.661921643434   113.27673953   179.70139825
 C    123 122 120     2.571749508016   113.45675958     0.55261114
 S    124 123 122     3.275014030624   111.02521259   359.35420035
 C    121 111 110     2.583992451318   127.95804417    38.91713263
 C    126 121 111     2.660556793823   113.37473085   183.68614927
 C    127 126 121     2.572130188615   113.48064546     0.90772012
 S    128 127 126     3.271980258543   110.99090017   358.99785184
 C    124 123 122     2.815337182751   128.65572242   181.37659492
 C    130 124 123     2.891070421353   111.20445539   108.09518549
 C    128 127 126     2.815136249231   128.52593369   181.78383221
 C    132 128 127     2.891532994278   110.90153169    98.82392998
 C    100  99  98     2.597751659022   112.09574542     0.48304949
 C    118 117 112     2.688768723936   127.81300698   178.37092284
 C    135 118 117     2.599562890107   126.57262290   187.40405939
 C    136 135 118     2.631509210026   112.28602175   178.34134171
 C    137 136 135     2.634606522084   115.06707426     1.33767150
 S    135 118 117     3.278466561178   121.70078096     7.99489900
 C    138 137 136     2.686999406583   126.51832229   182.69186391
 S    140 138 137     3.292960442197   118.29012708     9.81511266
 C    141 140 138     3.293009230129    93.56535620   178.55202722
 C    142 141 140     2.632690765784   109.73746358     2.27132684
 C    140 138 137     2.632150778276   131.96815247   190.38314506
 C    143 142 141     2.747824459882   124.47113816   176.39209593
 C    145 143 142     2.757791793524   115.09258313   189.56664995
 C    146 145 143     2.701109202985   122.17550796   352.10908206
 C    144 140 138     2.744437343626   124.16309083     1.58777598
 C    146 145 143     2.594638875006   124.85191142   173.09199518
 S    149 146 145     3.269623833398   110.68019984   180.65812320
 C    147 146 145     2.593482982946   113.03109240   179.55959692
 C    142 141 140     2.694303698703   118.12917393   181.24025030
 C    152 142 141     2.628203156205   126.64365057   356.55033202
 C    153 152 142     2.651399090130   114.81628101   178.91384156
 C    154 153 152     2.568588499706   111.53687010   359.50187470
 S    155 154 153     3.232590729000   113.13656189     0.66742093
 O    145 143 142     2.320045864625   123.28622878     8.33828262
 O    148 144 140     2.322110429109   123.33842848   348.72454712
 C    149 146 145     2.808175888798   129.16990505   357.78902830
 C    159 149 146     2.894224668963   110.83740044   280.32627381
 C    151 147 146     2.806560002486   129.11654662   178.58230030
 C    161 151 147     2.893223541604   110.56169120   275.44446609
 Cl    29  28  27     3.242936020580   120.18687594   179.72052688
 Cl    45  44  34     3.227016429140   123.46627102     1.28522405
 Cl    83  82  81     3.244082377758   119.99421919   180.87828660
 Cl    99  98  88     3.243540375064   124.79697108     1.55181411
 Cl   137 136 135     3.244328333921   120.02896807   180.71402101
 Cl   153 152 142     3.243442003217   125.28603827   358.55605162
 H      7   2   1     2.030307230963   123.29761555     2.17833432
 H      8   7   2     2.026739895235   128.02720076   180.24896354
 H     10   5   4     2.030274638937   124.57580005     1.07638818
 H     15  13   1     2.032676384880   123.11236002     1.61737272
 H     16  15  13     2.033161327090   123.34663653   180.55012563
 H     19  14   4     2.031102325884   123.30855836     3.95428145
 H     20  19  14     2.032802217816   123.36059477   180.58002227
 H     23  17  16     2.063730286356   108.86221358   344.37272535
 H     23  17  16     2.064980816679   109.67727929   226.01810860
 H     24  23  17     2.055388790656   110.34824071   300.11381715
 H     24  23  17     2.054388250686   110.33456250   179.95668254
[...]
  80   38574.5    259.2   0.145085589   1.23823  -1.08875  -0.22987   0.00372
  81   38603.6    259.0   0.048607521   0.41453  -0.52153  -0.05336  -0.37374
  82   38715.8    258.3   0.045957922   0.39079   0.29748  -0.34067   0.43156
  83   38732.2    258.2   0.066254534   0.56314  -0.74323  -0.10311  -0.01072
  84   38886.4    257.2   0.033691208   0.28523  -0.12489  -0.30101   0.42311
  85   38968.9    256.6   0.005829012   0.04924  -0.11136  -0.08612  -0.17154
  86   39091.0    255.8   0.041477512   0.34931   0.38431  -0.24738   0.37473
  87   39191.2    255.2   0.017977548   0.15101  -0.36914  -0.03441  -0.11647
  88   39315.6    254.4   0.034411121   0.28814   0.49362   0.01432  -0.21042
  89   39413.7    253.7   0.266589672   2.22675  -0.09182  -0.87540   1.20499
  90   39521.4    253.0   0.010705142   0.08917   0.14437   0.02621  -0.26008
  91   39622.9    252.4   0.034757381   0.28879   0.52913  -0.04884   0.08013
  92   39636.2    252.3   0.016598181   0.13786  -0.36155   0.04680   0.07040
  93   39706.4    251.8   0.004292020   0.03559   0.04023   0.16864  -0.07435
  94   39765.4    251.5   0.001250336   0.01035  -0.01801   0.09947   0.01149
  95   39814.2    251.2   0.074256842   0.61401  -0.60821   0.36233  -0.33587
  96   39922.1    250.5   0.043291193   0.35699  -0.31399   0.17381  -0.47770
  97   40005.2    250.0   0.010685403   0.08793   0.16124  -0.04614   0.24455
  98   40070.5    249.6   0.032269134   0.26512  -0.29401  -0.11454  -0.40688
  99   40128.4    249.2   0.000509442   0.00418  -0.04775  -0.02248   0.03734
 100   40241.1    248.5   0.014738445   0.12057  -0.32624  -0.04161   0.11141
 101   40291.8    248.2   0.018051498   0.14749  -0.37341  -0.02528  -0.08612

-----------------------------------------------------------------------------
         ABSORPTION SPECTRUM VIA TRANSITION VELOCITY DIPOLE MOMENTS
-----------------------------------------------------------------------------
State   Energy  Wavelength   fosc         P2         PX        PY        PZ  
        (cm-1)    (nm)                  (au**2)     (au)      (au)      (au) 
-----------------------------------------------------------------------------
   0   20053.9    498.7   3.677872112   0.50408   0.59722  -0.19819   0.32884
   1   21153.1    472.7   0.408596911   0.05907   0.23387  -0.02971   0.05911
   2   22286.3    448.7   0.345350164   0.05260   0.18102  -0.12464  -0.06555
   3   22948.9    435.8   0.095978579   0.01505  -0.10659   0.02679   0.05454
   4   23880.1    418.8   0.209126477   0.03413   0.00446   0.03678  -0.18099
   5   24820.7    402.9   0.563580423   0.09560  -0.03762  -0.22291   0.21095
   6   25089.9    398.6   0.433526167   0.07434  -0.27222  -0.01256  -0.00885
   7   25586.9    390.8   0.392255866   0.06860  -0.25834  -0.03945   0.01730
   8   25628.4    390.2   0.389965775   0.06831  -0.01392  -0.11640  -0.23359
   9   26430.9    378.3   0.099751530   0.01802   0.09037  -0.08758   0.04671
  10   26819.9    372.9   0.135388253   0.02482  -0.11916   0.00957   0.10260
  11   27854.3    359.0   0.063390812   0.01207   0.03769  -0.01209   0.10248
  12   28084.9    356.1   0.115854469   0.02224   0.06492  -0.07799  -0.10927
  13   28266.1    353.8   0.091329612   0.01764  -0.07714  -0.02786   0.10448
  14   28880.8    346.3   0.178427601   0.03522  -0.16418  -0.08152   0.04024
  15   29079.4    343.9   0.212442991   0.04222  -0.03615  -0.08561   0.18326
  16   29504.7    338.9   0.058166609   0.01173  -0.08713  -0.02173   0.06054
  17   29917.1    334.3   0.432982277   0.08853  -0.14664  -0.01363  -0.25854
  18   30176.4    331.4   0.087290946   0.01800   0.06647   0.04674   0.10677
  19   30219.7    330.9   0.059839862   0.01236  -0.06877  -0.08131   0.03193
  20   30652.3    326.2   0.074413752   0.01559  -0.01367  -0.00782   0.12386
  21   31176.3    320.8   0.124345717   0.02649  -0.11113  -0.06566   0.09917
  22   31297.1    319.5   0.022551587   0.00482  -0.05290  -0.04320  -0.01263
  23   31421.0    318.3   0.035204792   0.00756   0.02991   0.05980   0.05559
  24   31718.9    315.3   0.170681566   0.03700  -0.18358   0.05610  -0.01229
  25   31886.4    313.6   0.427057420   0.09307   0.15248  -0.15764   0.21206
  26   32094.1    311.6   0.012942116   0.00284   0.01040   0.04116  -0.03219
  27   32199.7    310.6   0.186465427   0.04104  -0.17246  -0.00063   0.10626
  28   32613.2    306.6   0.177296451   0.03952   0.18821  -0.03211   0.05537
  29   32679.1    306.0   0.048582301   0.01085  -0.08073   0.02809   0.05953
  30   32795.1    304.9   0.007045501   0.00158  -0.01271  -0.02848   0.02462
  31   32910.7    303.9   0.015789058   0.00355  -0.05092   0.03085   0.00259
  32   32961.9    303.4   0.171609035   0.03866  -0.14182   0.08564   0.10589
  33   33058.9    302.5   0.135179754   0.03054   0.16037  -0.05747  -0.03899
  34   33231.0    300.9   0.119673128   0.02718   0.06249  -0.05648  -0.14172
  35   33357.2    299.8   0.103920293   0.02369   0.14542  -0.01725   0.04741
  36   33435.1    299.1   0.266502312   0.06090   0.22859  -0.08754   0.03137
  37   33599.4    297.6   0.034920723   0.00802  -0.04564  -0.03566   0.06830
  38   33692.7    296.8   0.082006698   0.01888   0.08893   0.00077   0.10476
  39   33764.8    296.2   0.022582114   0.00521  -0.05141   0.05052  -0.00398
  40   34003.1    294.1   0.043181876   0.01004   0.03548   0.05932  -0.07251
  41   34169.4    292.7   0.046845925   0.01094   0.05239  -0.01207   0.08972
  42   34280.0    291.7   0.035446129   0.00830  -0.07558   0.04919  -0.01315
  43   34301.4    291.5   0.009130657   0.00214   0.02918   0.02679  -0.02391
  44   34467.6    290.1   0.039854078   0.00939  -0.06874   0.02449  -0.06374
  45   34589.3    289.1   0.008859162   0.00209   0.01139  -0.02582   0.03602
  46   34858.8    286.9   0.012798891   0.00305   0.01801  -0.02695   0.04471
  47   34980.9    285.9   0.024998333   0.00598   0.05620  -0.02576   0.04641
  48   35072.2    285.1   0.104951217   0.02516  -0.11100  -0.10898   0.03095
  49   35200.5    284.1   0.044612806   0.01073   0.09976   0.02170  -0.01761
  50   35244.2    283.7   0.026757116   0.00645  -0.02967  -0.03286  -0.06697
  51   35343.2    282.9   0.001020663   0.00025  -0.01284  -0.00308   0.00849
  52   35429.1    282.3   0.061095588   0.01479   0.04819  -0.08505  -0.07237
  53   35451.5    282.1   0.074613953   0.01808   0.00079   0.08063  -0.10759
  54   35583.3    281.0   0.036444719   0.00886   0.03082   0.02244   0.08608
  55   35606.3    280.8   0.016741996   0.00407   0.03891   0.03939   0.03176
  56   35639.5    280.6   0.017611449   0.00429  -0.01111  -0.04802   0.04314
  57   35824.8    279.1   0.003163998   0.00077   0.00419   0.00993  -0.02566
  58   35974.5    278.0   0.017653019   0.00434   0.05061  -0.01656   0.03880
  59   36058.9    277.3   0.030823570   0.00760  -0.07246   0.01894  -0.04457
  60   36228.6    276.0   0.018363508   0.00455   0.06531   0.00989  -0.01355
  61   36410.2    274.6   0.025702798   0.00640   0.05280  -0.05700   0.01896
  62   36518.7    273.8   0.001436772   0.00036  -0.01053  -0.01119   0.01106
  63   36536.5    273.7   0.028664323   0.00716  -0.08047  -0.02087   0.01572
  64   36574.6    273.4   0.075377553   0.01884   0.12345  -0.00499   0.05982
  65   37019.4    270.1   0.061319590   0.01551   0.11518  -0.04634   0.01005
  66   37045.8    269.9   0.032819525   0.00831  -0.03891   0.00108  -0.08243
  67   37090.9    269.6   0.001016460   0.00026   0.00882  -0.01332  -0.00157
  68   37345.9    267.8   0.058040167   0.01481   0.12024   0.01744  -0.00715
  69   37425.3    267.2   0.005071686   0.00130   0.00704   0.02999   0.01866
  70   37509.8    266.6   0.037047653   0.00950  -0.05244  -0.07659  -0.02970
  71   37608.3    265.9   0.018639223   0.00479   0.03975  -0.00063  -0.05666
  72   37742.5    265.0   0.060495540   0.01560  -0.12401   0.00929  -0.01185
  73   37772.9    264.7   0.018233944   0.00471  -0.06169  -0.02194  -0.02049
  74   37832.1    264.3   0.007039736   0.00182  -0.03722   0.01457  -0.01490
  75   37980.9    263.3   0.110659803   0.02873  -0.12921  -0.09312   0.05795
  76   38075.0    262.6   0.041992007   0.01093  -0.07648   0.01496  -0.06967
  77   38283.6    261.2   0.036028338   0.00943   0.04082   0.04635  -0.07492
  78   38382.7    260.5   0.055300521   0.01451   0.09752   0.04928  -0.05067
  79   38440.3    260.1   0.045052645   0.01184  -0.03440  -0.09681   0.03578
  80   38574.5    259.2   0.102699415   0.02708  -0.16019  -0.03541   0.01270
  81   38603.6    259.0   0.037211212   0.00982  -0.08495  -0.00996  -0.05003
  82   38715.8    258.3   0.025823314   0.00683   0.04013  -0.05314   0.04898
  83   38732.2    258.2   0.041674124   0.01103  -0.10339  -0.01628  -0.00882
  84   38886.4    257.2   0.022756428   0.00605  -0.01446  -0.03935   0.06550
  85   38968.9    256.6   0.004284470   0.00114  -0.01069  -0.00691  -0.03129
  86   39091.0    255.8   0.025062428   0.00670   0.05001  -0.03959   0.05126
  87   39191.2    255.2   0.011486430   0.00308  -0.05174  -0.00573  -0.01916
  88   39315.6    254.4   0.030023412   0.00807   0.07958   0.00880  -0.04070
  89   39413.7    253.7   0.170037987   0.04580  -0.01237  -0.12611   0.17247
  90   39521.4    253.0   0.007689070   0.00208   0.02211   0.00546  -0.03948
  91   39622.9    252.4   0.027039133   0.00732   0.08493  -0.00773   0.00704
  92   39636.2    252.3   0.008674344   0.00235  -0.04730   0.00629   0.00852
  93   39706.4    251.8   0.003991713   0.00108   0.01209   0.02714  -0.01417
  94   39765.4    251.5   0.001211314   0.00033   0.00181   0.01688   0.00640
  95   39814.2    251.2   0.049406547   0.01344  -0.09036   0.05515  -0.04730
  96   39922.1    250.5   0.026808657   0.00731  -0.04291   0.03049  -0.06741
  97   40005.2    250.0   0.007973750   0.00218   0.02970  -0.00513   0.03566
  98   40070.5    249.6   0.022700606   0.00622  -0.04980  -0.01665  -0.05882
  99   40128.4    249.2   0.000046762   0.00001  -0.00322   0.00070  -0.00140
 100   40241.1    248.5   0.008461047   0.00233  -0.04471  -0.00431   0.01758
 101   40291.8    248.2   0.012912330   0.00356  -0.05839  -0.00031  -0.01207

-------------------------------------------------------------------
                             CD SPECTRUM
-------------------------------------------------------------------
State   Energy Wavelength       R         MX        MY        MZ   
        (cm-1)   (nm)       (1e40*cgs)   (au)      (au)      (au)  
-------------------------------------------------------------------
   0   20053.9    498.7    -93.60462  -5.90438   2.00502  11.99992
   1   21153.1    472.7    -228.93798  -0.37925  -1.50591   2.08798
   2   22286.3    448.7    510.06670  -0.46712  -2.11282   6.16788
   3   22948.9    435.8    621.25445   1.08523   2.89158  -4.29188
   4   23880.1    418.8    -876.96309   2.82175  -8.80503  -3.78182
   5   24820.7    402.9    -227.30252  -6.94311  14.44834  14.59593
   6   25089.9    398.6    345.63643   0.43543   4.78318  -2.44411
   7   25586.9    390.8    -2525.62735  -4.89606   4.89361   7.24481
   8   25628.4    390.2    2380.80096   1.39496  -0.66870   5.09108
   9   26430.9    378.3    388.48962  -2.08536   3.22876   6.14958
  10   26819.9    372.9    -516.68834  -1.75836   4.07392   0.03658
  11   27854.3    359.0      3.66769  -1.33435   1.99964   0.76098
  12   28084.9    356.1    327.70439   1.38605  -0.00688   2.34353
  13   28266.1    353.8    -496.89558  -2.06169   5.95827   2.58090
  14   28880.8    346.3    425.52210  -1.73360   9.07123   4.95152
  15   29079.4    343.9    468.02727  -2.19741   7.98386   2.11782
  16   29504.7    338.9    -15.61870  -0.83686   5.36261   0.84444
  17   29917.1    334.3    -361.87715   5.33833   0.80018  -3.99049
  18   30176.4    331.4    466.91088   0.33585   0.65801  -2.78658
  19   30219.7    330.9     53.69239  -2.65674   4.97150   5.97426
  20   30652.3    326.2    -289.61586  -2.18535   2.25109   1.23505
  21   31176.3    320.8    -1078.86065  -3.87395   7.17606   6.39745
  22   31297.1    319.5     78.39650  -1.08040   1.62726   2.02183
  23   31421.0    318.3    436.94598   1.13427  -0.61181  -4.40389
  24   31718.9    315.3    169.04485   0.90317   0.36701  -4.76080
  25   31886.4    313.6    -30.60013  -4.65794   8.71068   9.91396
  26   32094.1    311.6     91.82592   0.50574  -2.92596  -1.65944
  27   32199.7    310.6    -264.02109  -1.27877   6.69254  -0.60579
  28   32613.2    306.6    -18.72453  -0.77851  -1.63460   1.94116
  29   32679.1    306.0    108.14138  -0.06183   2.01207  -2.27114
  30   32795.1    304.9    -53.77004  -1.12906   1.25684   2.06441
  31   32910.7    303.9     19.85586  -0.08851  -0.40676  -1.39583
  32   32961.9    303.4    197.19568  -1.93961  -0.95014  -2.93992
  33   33058.9    302.5    -52.69601   0.56243  -0.52214   2.50049
  34   33231.0    300.9     44.08648   1.76850  -1.73326   1.71184
  35   33357.2    299.8    -15.83486  -0.27469  -0.75536   0.78708
  36   33435.1    299.1    -39.25768  -0.61420  -0.14908   4.39090
  37   33599.4    297.6    -156.71692  -1.71731   4.68347   2.83348
  38   33692.7    296.8    -24.41870  -1.77344   0.73419   1.71322
  39   33764.8    296.2    125.33666   0.89742  -1.11295  -3.42041
  40   34003.1    294.1    -93.60410   1.85161  -4.01174  -3.24540
  41   34169.4    292.7    -102.70165  -1.24512   2.74808   1.68993
  42   34280.0    291.7     58.10432   0.55354  -0.66770  -2.45416
  43   34301.4    291.5    -51.89001   0.97247  -1.62731  -1.81080
  44   34467.6    290.1      6.97491   1.23844  -0.51489  -1.53232
  45   34589.3    289.1    -10.22988  -0.55814   1.57016   1.29003
  46   34858.8    286.9      8.01983  -0.84956   1.17629   0.96322
  47   34980.9    285.9    -19.68906  -0.85547   1.01660   1.83996
  48   35072.2    285.1    -15.12837  -3.32713   5.17607   6.67021
  49   35200.5    284.1    -14.47862   0.66608  -2.94876  -0.62714
  50   35244.2    283.7    182.90070  -1.86779  -2.26218   4.15840
  51   35343.2    282.9    -48.91475  -1.39481  -0.25802   2.00303
  52   35429.1    282.3    648.93276  -0.41615   0.61001   4.61724
  53   35451.5    282.1    -631.27849   4.15919  -4.30502  -6.95260
  54   35583.3    281.0    103.90412  -0.32870   1.67347  -0.98383
  55   35606.3    280.8     77.01561   0.52097  -0.26188  -1.67504
  56   35639.5    280.6    -131.44257  -2.45565   2.92365   4.81166
  57   35824.8    279.1     11.80572   0.32456  -0.56798  -0.04540
  58   35974.5    278.0     38.10376   0.45269   0.99033  -0.74846
  59   36058.9    277.3      1.71416   0.16350  -0.86366  -0.56775
  60   36228.6    276.0     16.76598   0.19700  -1.96983   0.11906
  61   36410.2    274.6     86.45000  -2.08922   0.85241   4.79795
  62   36518.7    273.8     -3.06347  -0.36410   0.56003   0.54374
  63   36536.5    273.7    -105.98602  -1.02192   0.89619   0.42694
  64   36574.6    273.4     -6.14722  -0.67802   0.48878   1.52063
  65   37019.4    270.1    -35.77784  -0.20871  -0.40170   1.92224
  66   37045.8    269.9     45.33750   1.16323  -0.26748  -0.27338
  67   37090.9    269.6     10.82636  -0.03685   0.48316   0.62047
  68   37345.9    267.8     99.98148   0.14564  -3.93681  -0.51146
  69   37425.3    267.2    116.85458   0.66294  -0.91460  -2.27590
  70   37509.8    266.6    498.70510  -2.29773   3.41744   6.62280
  71   37608.3    265.9    -309.75769   1.64682  -2.48230  -2.05194
  72   37742.5    265.0     68.95491   0.37324   1.93211  -1.17727
  73   37772.9    264.7     17.64546  -0.72857   1.07071   1.65218
  74   37832.1    264.3     18.96191   0.74609  -0.87071  -2.15914
  75   37980.9    263.3    -450.20572  -3.93237   7.12110   7.30229
  76   38075.0    262.6      4.66498   0.18845  -1.72763  -0.56375
  77   38283.6    261.2    -146.66213   1.91931  -3.53331  -2.33696
  78   38382.7    260.5    -181.35121   1.94382  -4.93698  -3.15721
  79   38440.3    260.1     63.14799  -4.00734   4.94574   8.85755
  80   38574.5    259.2    -111.44055  -1.40794   4.64837   2.26203
  81   38603.6    259.0     94.90139  -0.84969   0.50338   2.19105
  82   38715.8    258.3    -72.87168  -1.91134   2.93912   4.35400
  83   38732.2    258.2    -86.02067  -0.85010   2.44597   1.37171
  84   38886.4    257.2    -20.72938  -1.42450   3.45643   2.24628
  85   38968.9    256.6      0.25157   0.51856  -0.28002  -0.18984
  86   39091.0    255.8    -10.53012  -1.14945   2.09418   2.68055
  87   39191.2    255.2     15.31589   0.26993   0.48058  -0.43964
  88   39315.6    254.4      9.65067   0.25164  -3.02672   0.57887
  89   39413.7    253.7    -159.43046  -4.06419  10.88483   8.15927
  90   39521.4    253.0     72.79131  -0.00593  -1.00249   1.08298
  91   39622.9    252.4     34.22500  -0.75183  -1.99459   1.93711
  92   39636.2    252.3     39.23276   0.20162   0.35648  -1.56569
  93   39706.4    251.8     49.20969   0.91979  -2.55420  -2.48798
  94   39765.4    251.5     52.97837   0.54788  -1.89402  -2.30448
  95   39814.2    251.2    -26.16782   1.87364  -0.93234  -4.72921
  96   39922.1    250.5    -53.42083   0.66159  -2.12886  -1.68388
  97   40005.2    250.0      2.65264  -0.34920  -0.00866   0.18260
  98   40070.5    249.6     88.47449  -0.10862  -0.83281   1.23541
  99   40128.4    249.2      8.46063   0.23567  -0.33026  -0.85871
 100   40241.1    248.5    -48.10798  -0.54743   2.09512   1.01131
 101   40291.8    248.2    -19.79874  -0.24320   0.63706  -0.10774

sTD-DFT done

Total run time:       55.595 sec

           *** ORCA-CIS/TD-DFT FINISHED WITHOUT ERROR ***

-------------------------   --------------------
FINAL SINGLE POINT ENERGY    -17840.338927174776
-------------------------   --------------------


                            ***************************************
                            *     ORCA property calculations      *
                            ***************************************

                                    ---------------------
                                    Active property flags
                                    ---------------------
   (+) Dipole Moment


------------------------------------------------------------------------------
                       ORCA ELECTRIC PROPERTIES CALCULATION
------------------------------------------------------------------------------

Dipole Moment Calculation                       ... on
Quadrupole Moment Calculation                   ... off
Polarizability Calculation                      ... off
GBWName                                         ... xtbopt.gbw
Electron density file                           ... xtbopt.scfp
The origin for moment calculation is the CENTER OF MASS  = (41.425215,  5.833184 20.099375)

-------------
DIPOLE MOMENT
-------------
                                X             Y             Z
Electronic contribution:     99.36080      -2.81409      64.69936
Nuclear contribution   :    -99.46299       2.61858     -64.96614
                        -----------------------------------------
Total Dipole Moment    :     -0.10219      -0.19551      -0.26678
                        -----------------------------------------
Magnitude (a.u.)       :      0.34617
Magnitude (Debye)      :      0.87991



--------------------
Rotational spectrum 
--------------------
 
Rotational constants in cm-1:     0.000406     0.000021     0.000021 
Rotational constants in MHz :    12.184136     0.642494     0.626149 

 Dipole components along the rotational axes: 
x,y,z [a.u.] :     0.143489    -0.174810     0.262086 
x,y,z [Debye]:     0.364721    -0.444331     0.666169 

 

Timings for individual modules:

Sum of individual times         ...     3353.072 sec (=  55.885 min)
GTO integral calculation        ...       22.423 sec (=   0.374 min)   0.7 %
SCF iterations                  ...     3273.976 sec (=  54.566 min)  97.6 %
CIS module                      ...       56.673 sec (=   0.945 min)   1.7 %
                             ****ORCA TERMINATED NORMALLY****
TOTAL RUN TIME: 0 days 0 hours 55 minutes 55 seconds 817 msec
