
                                 *****************
                                 * O   R   C   A *
                                 *****************

           --- An Ab Initio, DFT and Semiempirical electronic structure package ---

                  #######################################################
                  #                        -***-                        #
                  #          Department of theory and spectroscopy      #
                  #               Directorship: Frank Neese             #
                  #        Max Planck Institute fuer Kohlenforschung    #
                  #                Kaiser Wilhelm Platz 1               #
                  #                 D-45470 Muelheim/Ruhr               #
                  #                      Germany                        #
                  #                                                     #
                  #                  All rights reserved                #
                  #                        -***-                        #
                  #######################################################


                         Program Version 4.2.0 -  RELEASE  -


 With contributions from (in alphabetic order):
   Daniel Aravena         : Magnetic Suceptibility
   Michael Atanasov       : Ab Initio Ligand Field Theory (pilot matlab implementation)
   Alexander A. Auer      : GIAO ZORA, VPT2
   Ute Becker             : Parallelization
   Giovanni Bistoni       : ED, misc. LED, open-shell LED, HFLED
   Martin Brehm           : Molecular dynamics
   Dmytro Bykov           : SCF Hessian
   Vijay G. Chilkuri      : MRCI spin determinant printing, contributions to CSF-ICE
   Dipayan Datta          : RHF DLPNO-CCSD density
   Achintya Kumar Dutta   : EOM-CC, STEOM-CC
   Dmitry Ganyushin       : Spin-Orbit,Spin-Spin,Magnetic field MRCI
   Miquel Garcia          : C-PCM Hessian, Gaussian charge scheme
   Yang Guo               : DLPNO-NEVPT2, CIM, IAO-localization
   Andreas Hansen         : Spin unrestricted coupled pair/coupled cluster methods
   Benjamin Helmich-Paris : CASSCF linear response (MC-RPA)
   Lee Huntington         : MR-EOM, pCC
   Robert Izsak           : Overlap fitted RIJCOSX, COSX-SCS-MP3, EOM
   Christian Kollmar      : KDIIS, OOCD, Brueckner-CCSD(T), CCSD density
   Simone Kossmann        : Meta GGA functionals, TD-DFT gradient, OOMP2, MP2 Hessian
   Martin Krupicka        : AUTO-CI
   Lucas Lang             : DCDCAS
   Dagmar Lenk            : GEPOL surface, SMD
   Dimitrios Liakos       : Extrapolation schemes; Compound Job, initial MDCI parallelization
   Dimitrios Manganas     : Further ROCIS development; embedding schemes
   Dimitrios Pantazis     : SARC Basis sets
   Taras Petrenko         : DFT Hessian,TD-DFT gradient, ASA, ECA, R-Raman, ABS, FL, XAS/XES, NRVS
   Peter Pinski           : DLPNO-MP2, DLPNO-MP2 Gradient
   Christoph Reimann      : Effective Core Potentials
   Marius Retegan         : Local ZFS, SOC
   Christoph Riplinger    : Optimizer, TS searches, QM/MM, DLPNO-CCSD(T), (RO)-DLPNO pert. Triples
   Tobias Risthaus        : Range-separated hybrids, TD-DFT gradient, RPA, STAB
   Michael Roemelt        : Original ROCIS implementation
   Masaaki Saitow         : Open-shell DLPNO-CCSD energy and density
   Barbara Sandhoefer     : DKH picture change effects
   Avijit Sen             : IP-ROCIS
   Kantharuban Sivalingam : CASSCF convergence, NEVPT2, FIC-MRCI
   Bernardo de Souza      : ESD, SOC TD-DFT
   Georgi Stoychev        : AutoAux, RI-MP2 NMR
   Willem Van den Heuvel  : Paramagnetic NMR
   Boris Wezisla          : Elementary symmetry handling
   Frank Wennmohs         : Technical directorship


 We gratefully acknowledge several colleagues who have allowed us to
 interface, adapt or use parts of their codes:
   Stefan Grimme, W. Hujo, H. Kruse,             : VdW corrections, initial TS optimization,
                  C. Bannwarth                     DFT functionals, gCP, sTDA/sTD-DF
   Ed Valeev, F. Pavosevic, A. Kumar             : LibInt (2-el integral package), F12 methods
   Garnet Chan, S. Sharma, J. Yang, R. Olivares  : DMRG
   Ulf Ekstrom                                   : XCFun DFT Library
   Mihaly Kallay                                 : mrcc  (arbitrary order and MRCC methods)
   Andreas Klamt, Michael Diedenhofen            : otool_cosmo (COSMO solvation model)
   Jiri Pittner, Ondrej Demel                    : Mk-CCSD
   Frank Weinhold                                : gennbo (NPA and NBO analysis)
   Christopher J. Cramer and Donald G. Truhlar   : smd solvation model
   Lars Goerigk                                  : TD-DFT with DH, B97 family of functionals
   V. Asgeirsson, H. Jonsson                     : NEB implementation
   FAccTs GmbH                                   : IRC, NEB, NEB-TS, Multilevel, MM, QM/MM, CI optimization
   S Lehtola, MJT Oliveira, MAL Marques          : LibXC Library


 Your calculation uses the libint2 library for the computation of 2-el integrals
 For citations please refer to: http://libint.valeyev.net

 Your ORCA version has been built with support for libXC version: 4.2.3
 For citations please refer to: https://tddft.org/programs/libxc/

 This ORCA versions uses:
   CBLAS   interface :  Fast vector & matrix operations
   LAPACKE interface :  Fast linear algebra routines
   SCALAPACK package :  Parallel linear algebra routines


XCFun DFT library Copyright 2009-2010 Ulf Ekstrom and contributors.
See http://admol.org/xcfun for more information. This is free soft-
ware; see the source code for copying conditions. There is ABSOLUTELY
NO WARRANTY; not even for MERCHANTABILITY or FITNESS FOR A PARTICULAR
PURPOSE. For details see the documentation. Scientific users of this 
library should cite U. Ekstrom, L. Visscher, R. Bast, A. J. Thorvald-
sen and K. Ruud; J.Chem.Theor.Comp. 2010, DOI: 10.1021/ct100117s
XCFun Version 0.99 
----- Orbital basis set information -----
Your calculation utilizes the basis: def2-SVP
   F. Weigend and R. Ahlrichs, Phys. Chem. Chem. Phys. 7, 3297 (2005).

----- AuxJ basis set information -----
Your calculation utilizes the auxiliary basis: def2/J
   F. Weigend, Phys. Chem. Chem. Phys. 8, 1057 (2006).

================================================================================
                                        WARNINGS
                       Please study these warnings very carefully!
================================================================================

INFO   : Checking CIS options ...

WARNING: CIS/ROCIS methods need fully converged wavefunctions
  ===> : Setting SCFConvForced true
         You can overwrite this default with %scf ConvForced false 


INFO   : the flag for use of LIBINT has been found!

================================================================================
                                       INPUT FILE
================================================================================
NAME = xtbopt.inp
|  1> # ORCA input file
|  2> # SCF done       -463.898551474608          0.000943984963
|  3> ! CAM-B3LYP def2-SVP def2/J RIJCOSX Grid4 TightSCF
|  4> %maxcore 5000
|  5> %tddft
|  6>     Mode sTDDFT
|  7>     Ethresh 5.0
|  8>     maxcore 5000
|  9> end
| 10> 
| 11> %pal
| 12>   nprocs 6
| 13>   end
| 14> * xyz 0 1
| 15>    C        9.83368         0.13213        -8.60900
| 16>    C        8.75305         0.06068        -9.49795
| 17>    C        7.52716         0.68706        -9.17093
| 18>    C        7.32495         1.40504        -8.00102
| 19>    C        8.40462         1.47447        -7.10657
| 20>    C        9.62483         0.82823        -7.42901
| 21>    C        8.68488        -0.60646       -10.75758
| 22>    C        7.48689        -0.46846       -11.35936
| 23>    S        6.35215         0.46577       -10.44417
| 24>    C        8.46175         2.10758        -5.83707
| 25>    C        9.66939         1.98194        -5.21532
| 26>    S       10.81416         1.05735        -6.17716
| 27>    C       11.12861        -0.49496        -8.91319
| 28>    C        6.04111         2.06491        -7.72729
| 29>    C       10.07236         2.45988        -3.93615
| 30>    C       11.29781         2.23051        -3.34109
| 31>    C       11.38952         2.78691        -2.07588
| 32>    C       10.24700         3.46506        -1.67545
| 33>    S        9.03179         3.41327        -2.92300
| 34>    C       10.10555         4.05545        -0.39329
| 35>    S       11.38916         3.75429         0.75051
| 36>    C       10.59295         4.65821         2.00593
| 37>    C        9.40887         5.20661         1.54485
| 38>    C        9.12797         4.85755         0.18452
| 39>    C        8.57625         6.14170         2.30968
| 40>    C        7.47125         6.70972         1.54260
| 41>    C        7.16837         6.32174         0.20114
| 42>    C        7.94864         5.32699        -0.52455
| 43>    C        6.61605         7.66810         2.02865
| 44>    S        5.44285         8.10856         0.83616
| 45>    C        6.08997         6.99488        -0.31859
| 46>    C       11.23009         4.68210         3.28330
| 47>    C       10.69013         4.69763         4.54912
| 48>    C       11.64566         4.58479         5.55938
| 49>    S       12.96659         4.52793         3.35581
| 50>    O        8.78823         6.45249         3.47301
| 51>    O        7.63049         4.93421        -1.64496
| 52>    C        6.62664         8.29446         3.37555
| 53>    C        5.58866         9.39476         3.53965
| 54>    C        5.49048         6.84570        -1.66863
| 55>    C        4.50775         7.95466        -2.01581
| 56>    C       12.93722         4.48609         5.08839
| 57>    C        6.00141         3.41411        -7.39974
| 58>    C        4.78701         4.04331        -7.16571
| 59>    C        3.60096         3.32991        -7.27232
| 60>    C        3.64252         1.98248        -7.58203
| 61>    C        4.84937         1.34789        -7.80676
| 62>    C       11.78051        -0.20926       -10.10455
| 63>    C       13.00760        -0.79276       -10.39716
| 64>    C       13.59332        -1.66172        -9.48712
| 65>    C       12.93817        -1.95185        -8.30296
| 66>    C       11.71556        -1.37906        -8.01054
| 67>    S        4.83364         5.76994        -6.77150
| 68>    C        3.44595         5.94906        -5.59380
| 69>    S       13.74672        -0.32266       -11.93569
| 70>    C       14.92774        -1.66708       -12.30383
| 71>    C        3.60447         5.03866        -4.39190
| 72>    C       14.22884        -2.98645       -12.56962
| 73>    C       16.03155         3.49804         8.89064
| 74>    C       15.57905         3.87656         7.61594
| 75>    C       16.51140         4.18490         6.59280
| 76>    C       17.88286         4.14882         6.78113
| 77>    C       18.33499         3.79137         8.06224
| 78>    C       17.40285         3.46696         9.08030
| 79>    C       14.24135         3.99855         7.16594
| 80>    C       14.13605         4.33488         5.84683
| 81>    S       15.70287         4.55444         5.09199
| 82>    C       19.67069         3.69714         8.52270
| 83>    C       19.78141         3.26792         9.81278
| 84>    S       18.21170         2.98657        10.54981
| 85>    C       15.09514         3.14097         9.96602
| 86>    C       18.82893         4.44890         5.69633
| 87>    C       20.97688         3.03106        10.54762
| 88>    C       21.08515         2.38473        11.76296
| 89>    C       22.39815         2.28407        12.19619
| 90>    C       23.32044         2.86950        11.33978
| 91>    S       22.52260         3.55609         9.95300
| 92>    C       24.71617         2.89197        11.58769
| 93>    S       25.29165         1.92995        12.92802
| 94>    C       26.94277         2.45886        12.71602
| 95>    C       27.02396         3.35883        11.66090
| 96>    C       25.77413         3.57189        10.99718
| 97>    C       28.24198         4.05408        11.28618
| 98>    C       28.11984         4.90502        10.10765
| 99>    C       26.88593         5.06081         9.39981
|100>    C       25.65568         4.39311         9.80547
|101>    C       29.14981         5.61921         9.54823
|102>    S       28.60708         6.49757         8.16019
|103>    C       26.99161         5.90034         8.31613
|104>    C       27.91679         1.89122        13.57483
|105>    C       27.65589         0.83276        14.43520
|106>    C       28.75661         0.41691        15.16674
|107>    S       29.58054         2.38705        13.69968
|108>    O       29.28807         3.96036        11.92415
|109>    O       24.61198         4.50176         9.16239
|110>    C       30.55829         5.74318        10.00357
|111>    C       30.67855         6.78979        11.11533
|112>    C       25.92937         6.28451         7.35060
|113>    C       26.32754         7.43995         6.44367
|114>    C       29.88455         1.16994        14.89559
|115>    C       19.82740         3.53589         5.36998
|116>    C       20.73356         3.82973         4.36729
|117>    C       20.65281         5.02335         3.66821
|118>    C       19.65215         5.92637         3.98203
|119>    C       18.74510         5.64388         4.98749
|120>    C       14.11627         2.18040         9.75215
|121>    C       13.22746         1.83830        10.76442
|122>    C       13.32364         2.45393        12.00477
|123>    C       14.29732         3.41477        12.21525
|124>    C       15.17948         3.76203        11.21037
|125>    S       22.02401         2.65289         3.98135
|126>    C       23.38869         3.41023         4.94579
|127>    S       12.04680         0.57893        10.37153
|128>    C       10.69346         0.83098        11.57274
|129>    C       23.07111         3.46499         6.42484
|130>    C        9.97619         2.14944        11.35596
|131>    C       33.72708        -0.85758        17.37298
|132>    C       32.96290         0.06963        16.64470
|133>    C       33.50749         1.33369        16.30356
|134>    C       34.78411         1.72734        16.67111
|135>    C       35.53179         0.81811        17.43954
|136>    C       34.99010        -0.45075        17.76937
|137>    C       31.63126        -0.07176        16.18470
|138>    C       31.17430         1.00524        15.48014
|139>    S       32.38027         2.27085        15.35538
|140>    C       36.82740         0.99347        17.98483
|141>    C       37.28834        -0.09433        18.67136
|142>    S       36.12468        -1.40482        18.68810
|143>    C       33.20461        -2.19771        17.67224
|144>    C       35.34403         3.02913        16.28299
|145>    C       38.53877        -0.25071        19.33531
|146>    C       39.53168         0.69910        19.49473
|147>    C       40.62060         0.20949        20.19830
|148>    C       40.49515        -1.11886        20.58573
|149>    S       38.97018        -1.76726        20.05519
|150>    C       41.48363        -1.82212        21.31911
|151>    S       42.89498        -0.92199        21.81825
|152>    C       43.62033        -2.30931        22.59473
|153>    C       42.79632        -3.41806        22.45781
|154>    C       41.58729        -3.14177        21.74184
|155>    C       43.11747        -4.74207        22.96712
|156>    C       42.12158        -5.76954        22.67489
|157>    C       40.90994        -5.48792        21.96684
|158>    C       40.57388        -4.15003        21.49372
|159>    C       42.22912        -7.08745        23.04505
|160>    S       40.85745        -7.99142        22.50185
|161>    C       40.12351        -6.59871        21.78480
|162>    C       44.88020        -2.10290        23.21964
|163>    C       45.53764        -0.88494        23.24362
|164>    C       46.75856        -0.91996        23.91929
|165>    S       45.81218        -3.31151        24.06144
|166>    O       44.14977        -4.99061        23.58332
|167>    O       39.50598        -3.90335        20.93697
|168>    C       43.33788        -7.77425        23.75696
|169>    C       44.46470        -8.13566        22.78465
|170>    C       38.79703        -6.70963        21.12484
|171>    C       37.67427        -6.30635        22.08515
|172>    C       47.03170        -2.16400        24.41044
|173>    C       36.59586         3.09519        15.67825
|174>    C       37.14330         4.32175        15.34677
|175>    C       36.44413         5.49492        15.58756
|176>    C       35.19574         5.43025        16.17977
|177>    C       34.64778         4.20914        16.52944
|178>    C       32.68030        -2.97645        16.64454
|179>    C       32.15800        -4.22810        16.91709
|180>    C       32.17344        -4.73187        18.20919
|181>    C       32.70207        -3.96262        19.23009
|182>    C       33.21207        -2.70327        18.96897
|183>    S       38.76734         4.36886        14.60836
|184>    C       39.66067         5.25539        15.93876
|185>    S       31.46498        -5.17850        15.57561
|186>    C       29.72929        -5.27094        16.15191
|187>    C       39.70137         4.44647        17.22051
|188>    C       29.09020        -3.89813        16.22952
|189>    H        9.50305        -1.16549       -11.17391
|190>    H        7.17409        -0.86627       -12.30511
|191>    H        7.63388         2.62729        -5.38890
|192>    H       12.08512         1.67035        -3.81443
|193>    H       12.26150         2.70798        -1.44985
|194>    H        9.63621         4.78093         4.73212
|195>    H       11.40333         4.58207         6.60639
|196>    H        7.63200         8.68328         3.56517
|197>    H        6.46773         7.50830         4.12090
|198>    H        5.75781        10.19181         2.81846
|199>    H        5.64507         9.81678         4.53960
|200>    H        4.58545         9.00141         3.38711
|201>    H        4.99034         5.87227        -1.71131
|202>    H        6.30153         6.80346        -2.40176
|203>    H        3.66828         7.95653        -1.32321
|204>    H        4.12460         7.81304        -3.02230
|205>    H        4.99507         8.92600        -1.96695
|206>    H        6.91345         3.98895        -7.34520
|207>    H        2.64870         3.81511        -7.12404
|208>    H        2.72026         1.42489        -7.65304
|209>    H        4.87217         0.29269        -8.03209
|210>    H       11.34871         0.48767       -10.80729
|211>    H       14.55509        -2.10925        -9.68145
|212>    H       13.39410        -2.63360        -7.60013
|213>    H       11.20690        -1.62416        -7.09089
|214>    H        2.50770         5.77649        -6.12055
|215>    H        3.49176         6.99932        -5.30544
|216>    H       15.64506        -1.73518       -11.48667
|217>    H       15.44906        -1.31499       -13.19398
|218>    H        3.50693         3.99458        -4.68273
|219>    H        2.84046         5.26491        -3.65034
|220>    H        4.58610         5.17636        -3.94512
|221>    H       13.66447        -3.30983       -11.69708
|222>    H       14.96280        -3.75246       -12.81279
|223>    H       13.54054        -2.88463       -13.40550
|224>    H       13.39036         3.82715         7.79870
|225>    H       20.53001         3.93429         7.92364
|226>    H       20.23743         1.99502        12.29883
|227>    H       22.69011         1.80902        13.11672
|228>    H       26.68312         0.37745        14.50646
|229>    H       28.73117        -0.38794        15.87916
|230>    H       31.19093         6.02719         9.16027
|231>    H       30.88972         4.78037        10.39708
|232>    H       30.30967         7.75552        10.77542
|233>    H       31.71861         6.89486        11.41079
|234>    H       30.10376         6.47377        11.98158
|235>    H       25.02329         6.52842         7.91329
|236>    H       25.68238         5.40655         6.74396
|237>    H       26.56244         8.32521         7.03068
|238>    H       25.51217         7.68141         5.76677
|239>    H       27.20189         7.17862         5.85088
|240>    H       19.88980         2.59042         5.88731
|241>    H       21.36376         5.23487         2.88384
|242>    H       19.57973         6.85724         3.43947
|243>    H       17.97591         6.35915         5.23795
|244>    H       14.05038         1.67286         8.80137
|245>    H       12.65840         2.19060        12.81173
|246>    H       14.36574         3.89547        13.18004
|247>    H       15.92499         4.52341        11.38098
|248>    H       23.57635         4.40268         4.53461
|249>    H       24.24366         2.76673         4.74226
|250>    H       11.09858         0.74002        12.57990
|251>    H       10.02670        -0.01174        11.38990
|252>    H       22.27278         4.17998         6.61185
|253>    H       23.93698         3.77669         7.00317
|254>    H       22.75723         2.48674         6.78226
|255>    H       10.65518         2.98891        11.49326
|256>    H        9.15616         2.24577        12.06499
|257>    H        9.57217         2.19511        10.34726
|258>    H       31.03428        -0.94552        16.36972
|259>    H       37.39357         1.90003        17.87735
|260>    H       39.46488         1.70589        19.12338
|261>    H       41.49518         0.79345        20.42844
|262>    H       45.13418        -0.00074        22.78133
|263>    H       47.40241        -0.06648        24.03634
|264>    H       42.95849        -8.68052        24.23317
|265>    H       43.73776        -7.10394        24.52002
|266>    H       44.08988        -8.76423        21.97938
|267>    H       45.24918        -8.67143        23.31170
|268>    H       44.88948        -7.23011        22.36015
|269>    H       38.64259        -7.73682        20.78865
|270>    H       38.77267        -6.03923        20.26358
|271>    H       37.69629        -6.92193        22.98216
|272>    H       36.71162        -6.42972        21.59694
|273>    H       37.78784        -5.26287        22.36577
|274>    H       47.89794        -2.46670        24.96575
|275>    H       37.14131         2.19106        15.45392
|276>    H       36.87064         6.44675        15.30834
|277>    H       34.64596         6.33989        16.37054
|278>    H       33.68253         4.16888        17.01080
|279>    H       32.68898        -2.61412        15.62772
|280>    H       31.78183        -5.71758        18.41123
|281>    H       32.71611        -4.34871        20.23850
|282>    H       33.60393        -2.10189        19.77501
|283>    H       39.17808         6.22056        16.08979
|284>    H       40.66130         5.41242        15.53846
|285>    H       29.71576        -5.77404        17.11837
|286>    H       29.23099        -5.89798        15.41389
|287>    H       38.69441         4.30461        17.61144
|288>    H       40.29408         4.96616        17.97124
|289>    H       40.14697         3.47101        17.03552
|290>    H       29.59102        -3.28879        16.98093
|291>    H       28.04038        -3.99081        16.50185
|292>    H       29.15917        -3.39406        15.26758
|293> *
|294> 
|295>                          ****END OF INPUT****
================================================================================

                       ****************************
                       * Single Point Calculation *
                       ****************************

---------------------------------
CARTESIAN COORDINATES (ANGSTROEM)
---------------------------------
  C      9.833680    0.132130   -8.609000
  C      8.753050    0.060680   -9.497950
  C      7.527160    0.687060   -9.170930
  C      7.324950    1.405040   -8.001020
  C      8.404620    1.474470   -7.106570
  C      9.624830    0.828230   -7.429010
  C      8.684880   -0.606460  -10.757580
  C      7.486890   -0.468460  -11.359360
  S      6.352150    0.465770  -10.444170
  C      8.461750    2.107580   -5.837070
  C      9.669390    1.981940   -5.215320
  S     10.814160    1.057350   -6.177160
  C     11.128610   -0.494960   -8.913190
  C      6.041110    2.064910   -7.727290
  C     10.072360    2.459880   -3.936150
  C     11.297810    2.230510   -3.341090
  C     11.389520    2.786910   -2.075880
  C     10.247000    3.465060   -1.675450
  S      9.031790    3.413270   -2.923000
  C     10.105550    4.055450   -0.393290
  S     11.389160    3.754290    0.750510
  C     10.592950    4.658210    2.005930
  C      9.408870    5.206610    1.544850
  C      9.127970    4.857550    0.184520
  C      8.576250    6.141700    2.309680
  C      7.471250    6.709720    1.542600
  C      7.168370    6.321740    0.201140
  C      7.948640    5.326990   -0.524550
  C      6.616050    7.668100    2.028650
  S      5.442850    8.108560    0.836160
  C      6.089970    6.994880   -0.318590
  C     11.230090    4.682100    3.283300
  C     10.690130    4.697630    4.549120
  C     11.645660    4.584790    5.559380
  S     12.966590    4.527930    3.355810
  O      8.788230    6.452490    3.473010
  O      7.630490    4.934210   -1.644960
  C      6.626640    8.294460    3.375550
  C      5.588660    9.394760    3.539650
  C      5.490480    6.845700   -1.668630
  C      4.507750    7.954660   -2.015810
  C     12.937220    4.486090    5.088390
  C      6.001410    3.414110   -7.399740
  C      4.787010    4.043310   -7.165710
  C      3.600960    3.329910   -7.272320
  C      3.642520    1.982480   -7.582030
  C      4.849370    1.347890   -7.806760
  C     11.780510   -0.209260  -10.104550
  C     13.007600   -0.792760  -10.397160
  C     13.593320   -1.661720   -9.487120
  C     12.938170   -1.951850   -8.302960
  C     11.715560   -1.379060   -8.010540
  S      4.833640    5.769940   -6.771500
  C      3.445950    5.949060   -5.593800
  S     13.746720   -0.322660  -11.935690
  C     14.927740   -1.667080  -12.303830
  C      3.604470    5.038660   -4.391900
  C     14.228840   -2.986450  -12.569620
  C     16.031550    3.498040    8.890640
  C     15.579050    3.876560    7.615940
  C     16.511400    4.184900    6.592800
  C     17.882860    4.148820    6.781130
  C     18.334990    3.791370    8.062240
  C     17.402850    3.466960    9.080300
  C     14.241350    3.998550    7.165940
  C     14.136050    4.334880    5.846830
  S     15.702870    4.554440    5.091990
  C     19.670690    3.697140    8.522700
  C     19.781410    3.267920    9.812780
  S     18.211700    2.986570   10.549810
  C     15.095140    3.140970    9.966020
  C     18.828930    4.448900    5.696330
  C     20.976880    3.031060   10.547620
  C     21.085150    2.384730   11.762960
  C     22.398150    2.284070   12.196190
  C     23.320440    2.869500   11.339780
  S     22.522600    3.556090    9.953000
  C     24.716170    2.891970   11.587690
  S     25.291650    1.929950   12.928020
  C     26.942770    2.458860   12.716020
  C     27.023960    3.358830   11.660900
  C     25.774130    3.571890   10.997180
  C     28.241980    4.054080   11.286180
  C     28.119840    4.905020   10.107650
  C     26.885930    5.060810    9.399810
  C     25.655680    4.393110    9.805470
  C     29.149810    5.619210    9.548230
  S     28.607080    6.497570    8.160190
  C     26.991610    5.900340    8.316130
  C     27.916790    1.891220   13.574830
  C     27.655890    0.832760   14.435200
  C     28.756610    0.416910   15.166740
  S     29.580540    2.387050   13.699680
  O     29.288070    3.960360   11.924150
  O     24.611980    4.501760    9.162390
  C     30.558290    5.743180   10.003570
  C     30.678550    6.789790   11.115330
  C     25.929370    6.284510    7.350600
  C     26.327540    7.439950    6.443670
  C     29.884550    1.169940   14.895590
  C     19.827400    3.535890    5.369980
  C     20.733560    3.829730    4.367290
  C     20.652810    5.023350    3.668210
  C     19.652150    5.926370    3.982030
  C     18.745100    5.643880    4.987490
  C     14.116270    2.180400    9.752150
  C     13.227460    1.838300   10.764420
  C     13.323640    2.453930   12.004770
  C     14.297320    3.414770   12.215250
  C     15.179480    3.762030   11.210370
  S     22.024010    2.652890    3.981350
  C     23.388690    3.410230    4.945790
  S     12.046800    0.578930   10.371530
  C     10.693460    0.830980   11.572740
  C     23.071110    3.464990    6.424840
  C      9.976190    2.149440   11.355960
  C     33.727080   -0.857580   17.372980
  C     32.962900    0.069630   16.644700
  C     33.507490    1.333690   16.303560
  C     34.784110    1.727340   16.671110
  C     35.531790    0.818110   17.439540
  C     34.990100   -0.450750   17.769370
  C     31.631260   -0.071760   16.184700
  C     31.174300    1.005240   15.480140
  S     32.380270    2.270850   15.355380
  C     36.827400    0.993470   17.984830
  C     37.288340   -0.094330   18.671360
  S     36.124680   -1.404820   18.688100
  C     33.204610   -2.197710   17.672240
  C     35.344030    3.029130   16.282990
  C     38.538770   -0.250710   19.335310
  C     39.531680    0.699100   19.494730
  C     40.620600    0.209490   20.198300
  C     40.495150   -1.118860   20.585730
  S     38.970180   -1.767260   20.055190
  C     41.483630   -1.822120   21.319110
  S     42.894980   -0.921990   21.818250
  C     43.620330   -2.309310   22.594730
  C     42.796320   -3.418060   22.457810
  C     41.587290   -3.141770   21.741840
  C     43.117470   -4.742070   22.967120
  C     42.121580   -5.769540   22.674890
  C     40.909940   -5.487920   21.966840
  C     40.573880   -4.150030   21.493720
  C     42.229120   -7.087450   23.045050
  S     40.857450   -7.991420   22.501850
  C     40.123510   -6.598710   21.784800
  C     44.880200   -2.102900   23.219640
  C     45.537640   -0.884940   23.243620
  C     46.758560   -0.919960   23.919290
  S     45.812180   -3.311510   24.061440
  O     44.149770   -4.990610   23.583320
  O     39.505980   -3.903350   20.936970
  C     43.337880   -7.774250   23.756960
  C     44.464700   -8.135660   22.784650
  C     38.797030   -6.709630   21.124840
  C     37.674270   -6.306350   22.085150
  C     47.031700   -2.164000   24.410440
  C     36.595860    3.095190   15.678250
  C     37.143300    4.321750   15.346770
  C     36.444130    5.494920   15.587560
  C     35.195740    5.430250   16.179770
  C     34.647780    4.209140   16.529440
  C     32.680300   -2.976450   16.644540
  C     32.158000   -4.228100   16.917090
  C     32.173440   -4.731870   18.209190
  C     32.702070   -3.962620   19.230090
  C     33.212070   -2.703270   18.968970
  S     38.767340    4.368860   14.608360
  C     39.660670    5.255390   15.938760
  S     31.464980   -5.178500   15.575610
  C     29.729290   -5.270940   16.151910
  C     39.701370    4.446470   17.220510
  C     29.090200   -3.898130   16.229520
  H      9.503050   -1.165490  -11.173910
  H      7.174090   -0.866270  -12.305110
  H      7.633880    2.627290   -5.388900
  H     12.085120    1.670350   -3.814430
  H     12.261500    2.707980   -1.449850
  H      9.636210    4.780930    4.732120
  H     11.403330    4.582070    6.606390
  H      7.632000    8.683280    3.565170
  H      6.467730    7.508300    4.120900
  H      5.757810   10.191810    2.818460
  H      5.645070    9.816780    4.539600
  H      4.585450    9.001410    3.387110
  H      4.990340    5.872270   -1.711310
  H      6.301530    6.803460   -2.401760
  H      3.668280    7.956530   -1.323210
  H      4.124600    7.813040   -3.022300
  H      4.995070    8.926000   -1.966950
  H      6.913450    3.988950   -7.345200
  H      2.648700    3.815110   -7.124040
  H      2.720260    1.424890   -7.653040
  H      4.872170    0.292690   -8.032090
  H     11.348710    0.487670  -10.807290
  H     14.555090   -2.109250   -9.681450
  H     13.394100   -2.633600   -7.600130
  H     11.206900   -1.624160   -7.090890
  H      2.507700    5.776490   -6.120550
  H      3.491760    6.999320   -5.305440
  H     15.645060   -1.735180  -11.486670
  H     15.449060   -1.314990  -13.193980
  H      3.506930    3.994580   -4.682730
  H      2.840460    5.264910   -3.650340
  H      4.586100    5.176360   -3.945120
  H     13.664470   -3.309830  -11.697080
  H     14.962800   -3.752460  -12.812790
  H     13.540540   -2.884630  -13.405500
  H     13.390360    3.827150    7.798700
  H     20.530010    3.934290    7.923640
  H     20.237430    1.995020   12.298830
  H     22.690110    1.809020   13.116720
  H     26.683120    0.377450   14.506460
  H     28.731170   -0.387940   15.879160
  H     31.190930    6.027190    9.160270
  H     30.889720    4.780370   10.397080
  H     30.309670    7.755520   10.775420
  H     31.718610    6.894860   11.410790
  H     30.103760    6.473770   11.981580
  H     25.023290    6.528420    7.913290
  H     25.682380    5.406550    6.743960
  H     26.562440    8.325210    7.030680
  H     25.512170    7.681410    5.766770
  H     27.201890    7.178620    5.850880
  H     19.889800    2.590420    5.887310
  H     21.363760    5.234870    2.883840
  H     19.579730    6.857240    3.439470
  H     17.975910    6.359150    5.237950
  H     14.050380    1.672860    8.801370
  H     12.658400    2.190600   12.811730
  H     14.365740    3.895470   13.180040
  H     15.924990    4.523410   11.380980
  H     23.576350    4.402680    4.534610
  H     24.243660    2.766730    4.742260
  H     11.098580    0.740020   12.579900
  H     10.026700   -0.011740   11.389900
  H     22.272780    4.179980    6.611850
  H     23.936980    3.776690    7.003170
  H     22.757230    2.486740    6.782260
  H     10.655180    2.988910   11.493260
  H      9.156160    2.245770   12.064990
  H      9.572170    2.195110   10.347260
  H     31.034280   -0.945520   16.369720
  H     37.393570    1.900030   17.877350
  H     39.464880    1.705890   19.123380
  H     41.495180    0.793450   20.428440
  H     45.134180   -0.000740   22.781330
  H     47.402410   -0.066480   24.036340
  H     42.958490   -8.680520   24.233170
  H     43.737760   -7.103940   24.520020
  H     44.089880   -8.764230   21.979380
  H     45.249180   -8.671430   23.311700
  H     44.889480   -7.230110   22.360150
  H     38.642590   -7.736820   20.788650
  H     38.772670   -6.039230   20.263580
  H     37.696290   -6.921930   22.982160
  H     36.711620   -6.429720   21.596940
  H     37.787840   -5.262870   22.365770
  H     47.897940   -2.466700   24.965750
  H     37.141310    2.191060   15.453920
  H     36.870640    6.446750   15.308340
  H     34.645960    6.339890   16.370540
  H     33.682530    4.168880   17.010800
  H     32.688980   -2.614120   15.627720
  H     31.781830   -5.717580   18.411230
  H     32.716110   -4.348710   20.238500
  H     33.603930   -2.101890   19.775010
  H     39.178080    6.220560   16.089790
  H     40.661300    5.412420   15.538460
  H     29.715760   -5.774040   17.118370
  H     29.230990   -5.897980   15.413890
  H     38.694410    4.304610   17.611440
  H     40.294080    4.966160   17.971240
  H     40.146970    3.471010   17.035520
  H     29.591020   -3.288790   16.980930
  H     28.040380   -3.990810   16.501850
  H     29.159170   -3.394060   15.267580

----------------------------
CARTESIAN COORDINATES (A.U.)
----------------------------
  NO LB      ZA    FRAG     MASS         X           Y           Z
   0 C     6.0000    0    12.011   18.582962    0.249690  -16.268652
   1 C     6.0000    0    12.011   16.540867    0.114669  -17.948524
   2 C     6.0000    0    12.011   14.224271    1.298355  -17.330546
   3 C     6.0000    0    12.011   13.842149    2.655141  -15.119737
   4 C     6.0000    0    12.011   15.882430    2.786344  -13.429471
   5 C     6.0000    0    12.011   18.188293    1.565128  -14.038794
   6 C     6.0000    0    12.011   16.412045   -1.146043  -20.328880
   7 C     6.0000    0    12.011   14.148172   -0.885261  -21.466079
   8 S    16.0000    0    32.060   12.003824    0.880178  -19.736621
   9 C     6.0000    0    12.011   15.990390    3.982749  -11.030464
  10 C     6.0000    0    12.011   18.272499    3.745324   -9.855527
  11 S    16.0000    0    32.060   20.435801    1.998102  -11.673141
  12 C     6.0000    0    12.011   21.030025   -0.935339  -16.843488
  13 C     6.0000    0    12.011   11.416043    3.902114  -14.602462
  14 C     6.0000    0    12.011   19.034002    4.648500   -7.438246
  15 C     6.0000    0    12.011   21.349767    4.215053   -6.313745
  16 C     6.0000    0    12.011   21.523074    5.266497   -3.922845
  17 C     6.0000    0    12.011   19.364024    6.548014   -3.166142
  18 S    16.0000    0    32.060   17.067610    6.450146   -5.523669
  19 C     6.0000    0    12.011   19.096722    7.663690   -0.743210
  20 S    16.0000    0    32.060   21.522393    7.094580    1.418258
  21 C     6.0000    0    12.011   20.017774    8.802741    3.790658
  22 C     6.0000    0    12.011   17.780188    9.839067    2.919343
  23 C     6.0000    0    12.011   17.249363    9.179439    0.348692
  24 C     6.0000    0    12.011   16.206764   11.606131    4.364663
  25 C     6.0000    0    12.011   14.118616   12.679533    2.915092
  26 C     6.0000    0    12.011   13.546256   11.946357    0.380100
  27 C     6.0000    0    12.011   15.020753   10.066552   -0.991256
  28 C     6.0000    0    12.011   12.502523   14.490609    3.833593
  29 S    16.0000    0    32.060   10.285496   15.322958    1.580113
  30 C     6.0000    0    12.011   11.508375   13.218408   -0.602048
  31 C     6.0000    0    12.011   21.221795    8.847887    6.204538
  32 C     6.0000    0    12.011   20.201418    8.877234    8.596591
  33 C     6.0000    0    12.011   22.007108    8.663997   10.505706
  34 S    16.0000    0    32.060   24.503304    8.556548    6.341562
  35 O     8.0000    0    15.999   16.607348   12.193439    6.563038
  36 O     8.0000    0    15.999   14.419536    9.324306   -3.108524
  37 C     6.0000    0    12.011   12.522535   15.674258    6.378865
  38 C     6.0000    0    12.011   10.561037   17.753523    6.688969
  39 C     6.0000    0    12.011   10.375504   12.936498   -3.153254
  40 C     6.0000    0    12.011    8.518413   15.032129   -3.809329
  41 C     6.0000    0    12.011   24.447803    8.477482    9.615664
  42 C     6.0000    0    12.011   11.341021    6.451733  -13.983482
  43 C     6.0000    0    12.011    9.046138    7.640749  -13.541229
  44 C     6.0000    0    12.011    6.804828    6.292618  -13.742693
  45 C     6.0000    0    12.011    6.883365    3.746344  -14.327960
  46 C     6.0000    0    12.011    9.163981    2.547143  -14.752638
  47 C     6.0000    0    12.011   22.261938   -0.395444  -19.094832
  48 C     6.0000    0    12.011   24.580802   -1.498099  -19.647785
  49 C     6.0000    0    12.011   25.687652   -3.140196  -17.928059
  50 C     6.0000    0    12.011   24.449598   -3.688462  -15.690321
  51 C     6.0000    0    12.011   22.139200   -2.606046  -15.137727
  52 S    16.0000    0    32.060    9.134256   10.903606  -12.796281
  53 C     6.0000    0    12.011    6.511902   11.242094  -10.570750
  54 S    16.0000    0    32.060   25.977536   -0.609739  -22.555185
  55 C     6.0000    0    12.011   28.209340   -3.150325  -23.250869
  56 C     6.0000    0    12.011    6.811461    9.521687   -8.299488
  57 C     6.0000    0    12.011   26.888611   -5.643573  -23.753139
  58 C     6.0000    0    12.011   30.295239    6.610338   16.800875
  59 C     6.0000    0    12.011   29.440138    7.325637   14.392041
  60 C     6.0000    0    12.011   31.202024    7.908315   12.458586
  61 C     6.0000    0    12.011   33.793708    7.840134   12.814479
  62 C     6.0000    0    12.011   34.648110    7.164651   15.235426
  63 C     6.0000    0    12.011   32.886620    6.551605   17.159280
  64 C     6.0000    0    12.011   26.912251    7.556164   13.541664
  65 C     6.0000    0    12.011   26.713263    8.191736   11.048907
  66 S    16.0000    0    32.060   29.674124    8.606644    9.622467
  67 C     6.0000    0    12.011   37.172217    6.986582   16.105569
  68 C     6.0000    0    12.011   37.381447    6.175474   18.543467
  69 S    16.0000    0    32.060   34.415125    5.643799   19.936252
  70 C     6.0000    0    12.011   28.525681    5.935573   18.833048
  71 C     6.0000    0    12.011   35.581521    8.407203   10.764504
  72 C     6.0000    0    12.011   39.640558    5.727873   19.932113
  73 C     6.0000    0    12.011   39.845159    4.506487   22.228773
  74 C     6.0000    0    12.011   42.326369    4.316267   23.047459
  75 C     6.0000    0    12.011   44.069245    5.422569   21.429079
  76 S    16.0000    0    32.060   42.561546    6.720036   18.808444
  77 C     6.0000    0    12.011   46.706792    5.465031   21.897561
  78 S    16.0000    0    32.060   47.794292    3.647077   24.430417
  79 C     6.0000    0    12.011   50.914457    4.646572   24.029795
  80 C     6.0000    0    12.011   51.067883    6.347269   22.035907
  81 C     6.0000    0    12.011   48.706047    6.749894   20.781658
  82 C     6.0000    0    12.011   53.369608    7.661101   21.327789
  83 C     6.0000    0    12.011   53.138797    9.269144   19.100690
  84 C     6.0000    0    12.011   50.807045    9.563545   17.763067
  85 C     6.0000    0    12.011   48.482209    8.301775   18.529653
  86 C     6.0000    0    12.011   55.085158   10.618768   18.043540
  87 S    16.0000    0    32.060   54.059547   12.278628   15.420524
  88 C     6.0000    0    12.011   51.006751   11.150027   15.715208
  89 C     6.0000    0    12.011   52.755088    3.573888   25.652711
  90 C     6.0000    0    12.011   52.262058    1.573688   27.278575
  91 C     6.0000    0    12.011   54.342117    0.787846   28.660985
  92 S    16.0000    0    32.060   55.899119    4.510871   25.888643
  93 O     8.0000    0    15.999   55.346431    7.483996   22.533378
  94 O     8.0000    0    15.999   46.509902    8.507094   17.314408
  95 C     6.0000    0    12.011   57.746799   10.853037   18.904008
  96 C     6.0000    0    12.011   57.974058   12.830844   21.004930
  97 C     6.0000    0    12.011   48.999408   11.876003   13.890621
  98 C     6.0000    0    12.011   49.751840   14.059468   12.176772
  99 C     6.0000    0    12.011   56.473615    2.210866   28.148586
 100 C     6.0000    0    12.011   37.468356    6.681864   10.147792
 101 C     6.0000    0    12.011   39.180750    7.237141    8.252982
 102 C     6.0000    0    12.011   39.028155    9.492756    6.931912
 103 C     6.0000    0    12.011   37.137181   11.199216    7.524946
 104 C     6.0000    0    12.011   35.423105   10.665388    9.424990
 105 C     6.0000    0    12.011   26.675884    4.120359   18.428893
 106 C     6.0000    0    12.011   24.996277    3.473884   20.341806
 107 C     6.0000    0    12.011   25.178031    4.637256   22.685728
 108 C     6.0000    0    12.011   27.018019    6.452980   23.083477
 109 C     6.0000    0    12.011   28.685060    7.109206   21.184529
 110 S    16.0000    0    32.060   41.619347    5.013236    7.523661
 111 C     6.0000    0    12.011   44.198219    6.444401    9.346189
 112 S    16.0000    0    32.060   22.765153    1.094019   19.599351
 113 C     6.0000    0    12.011   20.207711    1.570325   21.869309
 114 C     6.0000    0    12.011   43.598080    6.547882   12.141188
 115 C     6.0000    0    12.011   18.852267    4.061853   21.459654
 116 C     6.0000    0    12.011   63.734944   -1.620591   32.830174
 117 C     6.0000    0    12.011   62.290854    0.131582   31.453925
 118 C     6.0000    0    12.011   63.319980    2.520309   30.809263
 119 C     6.0000    0    12.011   65.732442    3.264200   31.503832
 120 C     6.0000    0    12.011   67.145352    1.546004   32.955955
 121 C     6.0000    0    12.011   66.121706   -0.851794   33.579243
 122 C     6.0000    0    12.011   59.774419   -0.135607   30.584651
 123 C     6.0000    0    12.011   58.910889    1.899628   29.253225
 124 S    16.0000    0    32.060   61.189842    4.291285   29.017463
 125 C     6.0000    0    12.011   69.593700    1.877386   33.986403
 126 C     6.0000    0    12.011   70.464751   -0.178258   35.283757
 127 S    16.0000    0    32.060   68.265752   -2.654725   35.315391
 128 C     6.0000    0    12.011   62.747619   -4.153070   33.395694
 129 C     6.0000    0    12.011   66.790537    5.724226   30.770392
 130 C     6.0000    0    12.011   72.827721   -0.473773   36.538441
 131 C     6.0000    0    12.011   74.704049    1.321108   36.839701
 132 C     6.0000    0    12.011   76.761809    0.395879   38.169255
 133 C     6.0000    0    12.011   76.524743   -2.114339   38.901392
 134 S    16.0000    0    32.060   73.642968   -3.339637   37.898817
 135 C     6.0000    0    12.011   78.392700   -3.443308   40.287279
 136 S    16.0000    0    32.060   81.059765   -1.742309   41.230517
 137 C     6.0000    0    12.011   82.430478   -4.363963   42.697852
 138 C     6.0000    0    12.011   80.873324   -6.459197   42.439110
 139 C     6.0000    0    12.011   78.588589   -5.937085   41.086123
 140 C     6.0000    0    12.011   81.480210   -8.961214   43.401567
 141 C     6.0000    0    12.011   79.598251  -10.902851   42.849332
 142 C     6.0000    0    12.011   77.308583  -10.370666   41.511312
 143 C     6.0000    0    12.011   76.673521   -7.842420   40.617244
 144 C     6.0000    0    12.011   79.801472  -13.393339   43.548833
 145 S    16.0000    0    32.060   77.209391  -15.101595   42.522334
 146 C     6.0000    0    12.011   75.822445  -12.469755   41.167306
 147 C     6.0000    0    12.011   84.811287   -3.973905   43.878761
 148 C     6.0000    0    12.011   86.053668   -1.672294   43.924076
 149 C     6.0000    0    12.011   88.360873   -1.738472   45.200907
 150 S    16.0000    0    32.060   86.572474   -6.257847   45.469532
 151 O     8.0000    0    15.999   83.430974   -9.430886   44.566016
 152 O     8.0000    0    15.999   74.655483   -7.376263   39.565139
 153 C     6.0000    0    12.011   81.896724  -14.691203   44.894148
 154 C     6.0000    0    12.011   84.026106  -15.374169   43.056749
 155 C     6.0000    0    12.011   73.315762  -12.679363   39.920162
 156 C     6.0000    0    12.011   71.194053  -11.917274   41.734885
 157 C     6.0000    0    12.011   88.877033   -4.089367   46.129046
 158 C     6.0000    0    12.011   69.156153    5.849061   29.627599
 159 C     6.0000    0    12.011   70.190665    8.166924   29.001192
 160 C     6.0000    0    12.011   68.869425   10.383894   29.456219
 161 C     6.0000    0    12.011   66.510310   10.261685   30.575334
 162 C     6.0000    0    12.011   65.474815    7.954122   31.236115
 163 C     6.0000    0    12.011   61.756817   -5.624675   31.453622
 164 C     6.0000    0    12.011   60.769813   -7.989951   31.968667
 165 C     6.0000    0    12.011   60.798990   -8.941938   34.410382
 166 C     6.0000    0    12.011   61.797956   -7.488267   36.339604
 167 C     6.0000    0    12.011   62.761717   -5.108440   35.846158
 168 S    16.0000    0    32.060   73.259656    8.255949   27.605800
 169 C     6.0000    0    12.011   74.947805    9.931248   30.119891
 170 S    16.0000    0    32.060   59.460195   -9.785947   29.433637
 171 C     6.0000    0    12.011   56.180216   -9.960633   30.522686
 172 C     6.0000    0    12.011   75.024716    8.402611   32.542048
 173 C     6.0000    0    12.011   54.972511   -7.366398   30.669348
 174 H     1.0000    0     1.008   17.958162   -2.202457  -21.115630
 175 H     1.0000    0     1.008   13.557065   -1.637013  -23.253288
 176 H     1.0000    0     1.008   14.425943    4.964859  -10.183545
 177 H     1.0000    0     1.008   22.837567    3.156504   -7.208228
 178 H     1.0000    0     1.008   23.170877    5.117341   -2.739819
 179 H     1.0000    0     1.008   18.209798    9.034648    8.942411
 180 H     1.0000    0     1.008   21.549171    8.658857   12.484268
 181 H     1.0000    0     1.008   14.422390   16.409021    6.737195
 182 H     1.0000    0     1.008   12.222238   14.188631    7.787372
 183 H     1.0000    0     1.008   10.880684   19.259730    5.326118
 184 H     1.0000    0     1.008   10.667636   18.551026    8.578601
 185 H     1.0000    0     1.008    8.665245   17.010200    6.400710
 186 H     1.0000    0     1.008    9.430376   11.096982   -3.233907
 187 H     1.0000    0     1.008   11.908166   12.856676   -4.538669
 188 H     1.0000    0     1.008    6.932045   15.035663   -2.500505
 189 H     1.0000    0     1.008    7.794364   14.764506   -5.711319
 190 H     1.0000    0     1.008    9.439314   16.867695   -3.716997
 191 H     1.0000    0     1.008   13.064527    7.538023  -13.880416
 192 H     1.0000    0     1.008    5.005318    7.209513  -13.462485
 193 H     1.0000    0     1.008    5.140546    2.692652  -14.462150
 194 H     1.0000    0     1.008    9.207067    0.553104  -15.178450
 195 H     1.0000    0     1.008   21.445954    0.921563  -20.422818
 196 H     1.0000    0     1.008   27.505134   -3.985905  -18.295289
 197 H     1.0000    0     1.008   25.311181   -4.976783  -14.362164
 198 H     1.0000    0     1.008   21.177972   -3.069218  -13.399840
 199 H     1.0000    0     1.008    4.738866   10.915984  -11.566163
 200 H     1.0000    0     1.008    6.598470   13.226798  -10.025829
 201 H     1.0000    0     1.008   29.564879   -3.279015  -21.706660
 202 H     1.0000    0     1.008   29.194492   -2.484971  -24.933009
 203 H     1.0000    0     1.008    6.627137    7.548662   -8.849077
 204 H     1.0000    0     1.008    5.367691    9.949238   -6.898143
 205 H     1.0000    0     1.008    8.666473    9.781903   -7.455196
 206 H     1.0000    0     1.008   25.822106   -6.254672  -22.104278
 207 H     1.0000    0     1.008   28.275594   -7.091122  -24.212664
 208 H     1.0000    0     1.008   25.587912   -5.451161  -25.332724
 209 H     1.0000    0     1.008   25.304113    7.232265   14.737407
 210 H     1.0000    0     1.008   38.796096    7.434731   14.973510
 211 H     1.0000    0     1.008   38.243200    3.770041   23.241420
 212 H     1.0000    0     1.008   42.878094    3.418552   24.787009
 213 H     1.0000    0     1.008   50.423789    0.713277   27.413237
 214 H     1.0000    0     1.008   54.294043   -0.733100   30.007264
 215 H     1.0000    0     1.008   58.942316   11.389738   17.310402
 216 H     1.0000    0     1.008   58.373111    9.033590   19.647634
 217 H     1.0000    0     1.008   57.276976   14.655809   20.362593
 218 H     1.0000    0     1.008   59.939486   13.029397   21.563268
 219 H     1.0000    0     1.008   56.887862   12.233652   22.641905
 220 H     1.0000    0     1.008   47.287165   12.336926   14.953951
 221 H     1.0000    0     1.008   48.532665   10.216899   12.744237
 222 H     1.0000    0     1.008   50.195737   15.732367   13.286060
 223 H     1.0000    0     1.008   48.211014   14.515761   10.897616
 224 H     1.0000    0     1.008   51.404122   13.565626   11.056561
 225 H     1.0000    0     1.008   37.586275    4.895184   11.125404
 226 H     1.0000    0     1.008   40.371656    9.892471    5.449668
 227 H     1.0000    0     1.008   37.000327   12.958306    6.499656
 228 H     1.0000    0     1.008   33.969547   12.017052    9.898291
 229 H     1.0000    0     1.008   26.551370    3.161247   16.632179
 230 H     1.0000    0     1.008   23.920909    4.139634   24.210661
 231 H     1.0000    0     1.008   27.147314    7.361371   24.906666
 232 H     1.0000    0     1.008   30.093870    8.548006   21.506935
 233 H     1.0000    0     1.008   44.552845    8.319859    8.569171
 234 H     1.0000    0     1.008   45.813878    5.228362    8.961573
 235 H     1.0000    0     1.008   20.973277    1.398435   23.772566
 236 H     1.0000    0     1.008   18.947717   -0.022185   21.523792
 237 H     1.0000    0     1.008   42.089454    7.899017   12.494586
 238 H     1.0000    0     1.008   45.234337    7.136910   13.234073
 239 H     1.0000    0     1.008   43.004932    4.699258   12.816614
 240 H     1.0000    0     1.008   20.135372    5.648221   21.719114
 241 H     1.0000    0     1.008   17.302635    4.243890   22.799527
 242 H     1.0000    0     1.008   18.088780    4.148157   19.553488
 243 H     1.0000    0     1.008   58.646290   -1.786774   30.934288
 244 H     1.0000    0     1.008   70.663606    3.590536   33.783296
 245 H     1.0000    0     1.008   74.577815    3.223665   36.137951
 246 H     1.0000    0     1.008   78.414526    1.499403   38.604157
 247 H     1.0000    0     1.008   85.291239   -0.001398   43.050475
 248 H     1.0000    0     1.008   89.577573   -0.125629   45.422100
 249 H     1.0000    0     1.008   81.179781  -16.403806   45.794055
 250 H     1.0000    0     1.008   82.652388  -13.424501   46.336123
 251 H     1.0000    0     1.008   83.317798  -16.561994   41.535009
 252 H     1.0000    0     1.008   85.508558  -16.386628   44.052729
 253 H     1.0000    0     1.008   84.828823  -13.662928   42.254560
 254 H     1.0000    0     1.008   73.023912  -14.620471   39.284855
 255 H     1.0000    0     1.008   73.269728  -11.412491   38.292617
 256 H     1.0000    0     1.008   71.235664  -13.080552   43.429988
 257 H     1.0000    0     1.008   69.374908  -12.150410   40.812302
 258 H     1.0000    0     1.008   71.408669   -9.945383   42.265180
 259 H     1.0000    0     1.008   90.513989   -4.661387   47.178430
 260 H     1.0000    0     1.008   70.186904    4.140503   29.203676
 261 H     1.0000    0     1.008   69.675412   12.182592   28.928570
 262 H     1.0000    0     1.008   65.471376   11.980656   30.935837
 263 H     1.0000    0     1.008   63.650757    7.878041   32.145753
 264 H     1.0000    0     1.008   61.773220   -4.939971   29.532111
 265 H     1.0000    0     1.008   60.058955  -10.804660   34.792182
 266 H     1.0000    0     1.008   61.824488   -8.217871   38.245222
 267 H     1.0000    0     1.008   63.502225   -3.971996   37.369353
 268 H     1.0000    0     1.008   74.035842   11.755155   30.405297
 269 H     1.0000    0     1.008   76.838721   10.227992   29.363434
 270 H     1.0000    0     1.008   56.154648  -10.911354   32.349031
 271 H     1.0000    0     1.008   55.238566  -11.145567   29.128031
 272 H     1.0000    0     1.008   73.121838    8.134534   33.280798
 273 H     1.0000    0     1.008   76.144776    9.384682   33.960722
 274 H     1.0000    0     1.008   75.866778    6.559258   32.192467
 275 H     1.0000    0     1.008   55.918924   -6.214912   32.089307
 276 H     1.0000    0     1.008   52.988639   -7.541538   31.183977
 277 H     1.0000    0     1.008   55.102846   -6.413844   28.851545

--------------------------------
INTERNAL COORDINATES (ANGSTROEM)
--------------------------------
 C      0   0   0     0.000000000000     0.00000000     0.00000000
 C      1   0   0     1.401106135130     0.00000000     0.00000000
 C      2   1   0     1.414955927547   119.93402992     0.00000000
 C      3   2   1     1.387470206022   123.38219582     0.97617688
 C      4   3   2     1.403762314746   116.79310675   358.84805034
 C      1   2   3     1.385839071682   116.71825885     0.24013247
 C      2   1   3     1.427021606494   128.36905352   181.07874947
 C      7   2   1     1.347725197694   112.87561073   180.22782482
 S      8   7   2     1.731471425291   113.68990678   359.56317227
 C      5   4   3     1.419761373964   128.51713121   181.65170766
 C     10   5   4     1.364094146934   113.71010188   179.67955459
 S      6   1   2     1.741875496641   125.10667769   180.23236504
 C      1   2   3     1.470583941535   121.74641952   180.48941374
 C      4   3   2     1.469218048963   121.12189508   178.41278604
 C     11  10   5     1.423758179397   128.98822646   181.41756411
 C     15  11  10     1.381461075456   125.61502044   176.30219028
 C     16  15  11     1.385188805976   112.67327941   181.85640231
 C     17  16  15     1.387653976249   113.91376345   359.40810722
 S     15  11  10     1.737300014246   122.59144673   356.85070233
 C     18  17  16     1.418627054655   123.11255683   176.99236536
 S     20  18  17     1.745459944456   116.55975258   353.90608667
 C     21  20  18     1.739856634008    92.67443567   181.62444055
 C     22  21  20     1.383973544834   110.91635390   358.01735374
 C     20  18  17     1.390284669591   133.30155539   173.93244931
 C     23  22  21     1.467179028408   124.36095000   186.92404283
 C     25  23  22     1.460165554586   113.79953930   172.51674649
 C     26  25  23     1.428908571743   123.22788799     4.23133338
 C     24  20  18     1.453950971457   123.63712313   357.74749992
 C     26  25  23     1.373354967552   123.83376826   184.22549579
 S     29  26  25     1.729865790083   110.85687860   179.51688549
 C     27  26  25     1.373383883880   112.86911865   180.28498090
 C     22  21  20     1.427652698873   116.74816025   176.79941933
 C     32  22  21     1.376262422251   130.39308333   214.95727661
 C     33  32  22     1.395132866110   113.35304417   173.95632844
 S     32  22  21     1.744837625397   118.67601500    28.68212094
 O     25  23  22     1.222645751393   124.02947070   354.05890600
 O     28  24  20     1.229151788430   123.45714763     8.71481921
 C     29  26  25     1.485455690251   127.64125847   359.58821340
 C     38  29  26     1.521509572891   113.44448291   175.94052013
 C     31  27  26     1.484671995459   127.72872252   180.38972412
 C     40  31  27     1.521868748250   113.26365704   192.69945715
 C     34  33  32     1.378296232201   113.58717539     0.25255258
 C     14   4   3     1.388958506400   120.34372882   233.00549418
 C     43  14   4     1.387598659880   120.34822324   178.79019097
 C     44  43  14     1.388171406779   120.11703712   359.28479111
 C     45  44  43     1.383190197551   119.48208872     1.51847646
 C     46  45  44     1.381917133369   120.66319410   358.94435151
 C     13   1   2     1.387781232616   120.22655543    53.53001754
 C     48  13   1     1.389907453826   120.59842144   179.70007695
 C     49  48  13     1.387923701649   119.82660644   359.51970325
 C     50  49  48     1.384063526360   119.50262969     0.85928885
 C     51  50  49     1.381438761799   120.87175416   359.43044549
 S     44  43  14     1.771673513348   117.15568292   180.64695450
 C     53  44  43     1.828864347211   102.63642556   214.29978223
 S     49  48  13     1.770414342831   116.10749451   181.05404915
 C     55  49  48     1.826964815315   104.45330772   200.91994867
 C     54  53  44     1.516087187598   111.86081452    57.42860447
 C     56  55  49     1.516523237870   112.18574432    65.95464514
 C     42  34  33     5.000822533734   109.52124984   187.36905063
 C     59  42  34     1.404597355259    19.50827490   195.07931236
 C     60  59  42     1.418155681757   120.10142583   184.44086615
 C     61  60  59     1.384800522422   123.18357458   359.27550153
 C     62  61  60     1.404789974160   116.70534061   359.69597438
 C     59  42  34     1.384702340577   136.16606723   190.53379838
 C     60  59  42     1.416623750366   128.00238754     4.07064672
 C     65  60  59     1.365378024944   113.63628489   182.58739940
 S     61  60  59     1.744336902264   111.22693538   177.46113963
 C     63  62  61     1.415979235194   128.10415219   180.96181397
 C     68  63  62     1.364109648525   113.89392414   182.61275361
 S     64  59  42     1.744841687575   125.49374619   183.61098192
 C     59  42  34     1.469967624609   102.12542265    12.47751675
 C     62  61  60     1.470335843030   122.11254517   178.83884608
 C     69  68  63     1.423109625468   127.50948591   177.89024785
 C     73  69  68     1.380766518062   126.74659980   191.97622544
 C     74  73  69     1.386286286631   112.53989094   178.28745097
 C     75  74  73     1.388086891048   113.94582006     1.12082961
 S     73  69  68     1.737377265795   121.35569464    11.67383941
 C     76  75  74     1.417754034344   123.56694628   179.60979956
 S     78  76  75     1.747324875259   116.72049948     8.92540665
 C     79  78  76     1.746678860724    92.95271124   182.71879798
 C     80  79  78     1.389178185619   110.09674554     0.91294743
 C     78  76  75     1.389342516480   133.08546998   191.22896999
 C     81  80  79     1.451675019176   123.73589655   175.59723035
 C     83  81  80     1.458749472699   114.68743030   177.18287668
 C     84  83  81     1.431028258910   122.36566802     1.34496701
 C     82  78  76     1.452103789335   124.29548205   353.71876941
 C     84  83  81     1.372536445199   124.74949681   182.24351532
 S     87  84  83     1.729950052487   110.84246160   179.72106258
 C     85  84  83     1.374896805473   112.95865849   180.33917774
 C     80  79  78     1.417210198277   117.05489285   182.85736933
 C     90  80  79     1.388755888736   123.47546233     8.61963065
 C     91  90  80     1.385520303893   113.99203763   178.83805034
 S     90  80  79     1.740545596616   125.89654326   187.97566895
 O     83  81  80     1.228858595364   122.93707083   355.65219011
 O     86  82  78     1.230717838865   123.22490801   355.77623432
 C     87  84  83     1.485435621930   129.05196173   357.50159987
 C     96  87  84     1.531621773579   110.73126447   278.26305803
 C     89  85  84     1.485997505853   127.95504772   179.41285501
 C     98  89  85     1.521874819885   113.35723416   168.58746700
 C     92  91  90     1.383049220744   112.39411951     1.06354776
 C     72  62  61     1.391773661017   120.04797660   234.13767843
 C    101  72  62     1.383060059180   120.04363632   181.27685477
 C    102 101  72     1.385626974802   120.70397224   359.33250809
 C    103 102 101     1.383925051583   119.32875166     0.00000000
 C    104 103 102     1.383289598819   120.37753682     0.30069006
 C     71  59  42     1.388027945936   120.30672720    51.73058674
 C    106  71  59     1.389858330550   120.60423721   180.01793594
 C    107 106  71     1.388063043165   119.82425808   359.50925572
 C    108 107 106     1.384040490159   119.50777806     0.70001505
 C    109 108 107     1.381513513361   120.87096869   359.56112921
 S    102 101  72     1.788620494040   119.29761687   179.06529749
 C    111 102 101     1.834682504304    98.72114826   262.01506676
 S    107 106  71     1.770404864600   116.09954761   181.06368004
 C    113 107 106     1.827009529860   104.47440503   201.56891616
 C    112 111 102     1.513751834516   111.86998673    61.15997563
 C    114 113 107     1.516511323037   112.10518793    65.96625418
 C    100  92  91     5.001333358555   107.98360235   185.07875288
 C    117 100  92     1.405020005160    19.58194917   194.76708625
 C    118 117 100     1.418027662389   120.27104199   179.78881086
 C    119 118 117     1.385572787478   122.90788820   359.19998387
 C    120 119 118     1.405777094777   116.82633772   358.62797335
 C    117 100  92     1.384866492266   136.33532212   198.08020494
 C    118 117 100     1.415929455058   127.88024230     0.83542681
 C    123 118 117     1.365703567836   113.79919495   181.11573456
 S    119 118 117     1.745834787831   111.17425682   178.00461296
 C    121 120 119     1.416579537407   128.08223716   182.73202713
 C    126 121 120     1.366417931857   113.78969706   180.91779550
 S    122 117 100     1.744014379012   125.68959486   178.29592469
 C    117 100  92     1.469176594355   101.38856610    17.84226785
 C    120 119 118     1.469287155358   122.19233013   178.57687603
 C    127 126 121     1.424380388730   128.15121994   179.92410393
 C    131 127 126     1.383265715833   127.47945901     4.07937666
 C    132 131 127     1.385812203511   112.33001643   179.83322509
 C    133 132 131     1.389371595326   114.10488261     0.37427156
 S    131 127 126     1.733281773111   120.54130004   184.41116389
 C    134 133 132     1.417573124181   123.75309773   180.29805154
 S    136 134 133     1.746792368600   117.10265444     3.07490586
 C    137 136 134     1.747486937090    93.05208950   180.34762428
 C    138 137 136     1.388188074074   110.11298187     0.35467112
 C    136 134 133     1.389576255914   132.88582592   183.68555422
 C    139 138 137     1.454488390707   124.15630324   178.71878408
 C    141 139 138     1.460441668092   114.82129470   181.70739481
 C    142 141 139     1.431333684540   122.53437418   358.71882738
 C    140 136 134     1.450914053313   123.76696645   359.03646798
 C    142 141 139     1.373124191506   124.60373376   179.14694088
 S    145 142 141     1.730233102735   110.77675372   180.59730533
 C    143 142 141     1.373122401900   113.03171335   179.20785759
 C    138 137 136     1.421404239863   116.61387645   180.44473982
 C    148 138 137     1.384279218799   123.80332289     0.21481403
 C    149 148 138     1.395851709782   113.68601942   179.76536004
 S    148 138 137     1.742972200725   125.84391600   179.89931310
 O    141 139 138     1.227647287131   123.07359151     0.94114358
 O    144 140 136     1.229321762152   123.00780188   356.63553513
 C    145 142 141     1.485886545366   129.14072561   357.97337908
 C    154 145 142     1.531576715872   110.72616316   278.75600928
 C    147 143 142     1.485732021059   129.09619989   178.91243789
 C    156 147 143     1.531476435372   110.87606716   278.00549348
 C    150 149 148     1.365089485602   111.84133627     0.00000000
 C    130 120 119     1.391816345679   119.97229909   231.05878537
 C    159 130 120     1.383480747101   120.13794404   181.88243575
 C    160 159 130     1.386775526861   120.59158418   358.73573100
 C    161 160 159     1.383247080279   119.32763440     0.79288205
 C    162 161 160     1.383343378413   120.46308341     0.00000000
 C    129 117 100     1.391942618681   119.59625459    51.91042830
 C    164 129 117     1.383368539110   120.19509303   181.43428115
 C    165 164 129     1.386919253778   120.53008067   358.75690230
 C    166 165 164     1.383268610719   119.32981591     0.81578262
 C    167 166 165     1.383562820005   120.51501659   359.95670858
 S    160 159 130     1.784649714034   118.85701106   178.54838949
 C    169 160 159     1.831376009944    98.98052175   244.47314191
 S    165 164 129     1.784125968311   118.71775286   178.72689436
 C    171 165 164     1.831198137750    99.11619091   243.27477748
 C    170 169 160     1.516209457463   111.65054504    64.37626336
 C    172 171 165     1.516267336686   111.71005153    63.05541958
 H      7   2   1     1.074824338532   123.27803694     0.70656918
 H      8   7   2     1.072632135730   127.94763355   179.96839726
 H     10   5   4     1.075324867145   123.86280131     0.60206568
 H     16  15  11     1.075958650367   123.09558355     1.27744858
 H     17  16  15     1.076332953226   123.74070387   179.40771669
 H     33  32  22     1.072928355670   122.89746445   354.40529723
 H     34  33  32     1.074691196298   123.45263356   179.81630828
 H     38  29  26     1.094479541335   108.26652315    52.84104339
 H     38  29  26     1.094918515781   108.26720051   298.70709547
 H     39  38  29     1.088124736002   110.62093573   300.13673045
 H     39  38  29     1.086822419257   110.15936214   180.18345265
 H     39  38  29     1.088311985692   110.63218393    60.23446842
 H     40  31  27     1.095229458561   108.00688498    70.46843036
 H     40  31  27     1.094105075850   108.29236591   315.92233774
 H     41  40  31     1.088305167589   110.74230593   298.29788547
 H     41  40  31     1.086223856762   110.13007637   178.24619051
 H     41  40  31     1.087827871311   110.55656938    58.44688716
 H     43  14   4     1.079459401182   120.33453739     0.09568379
 H     45  44  43     1.078983366878   120.82375129   181.98539579
 H     46  45  44     1.080052098651   119.47077612   179.25576416
 H     47  46  45     1.079231434355   120.09185765   179.01112724
 H     48  13   1     1.079817657061   120.24592684     1.03053416
 H     50  49  48     1.078447394498   121.19916287   181.41039775
 H     51  50  49     1.080104271031   119.28957669   179.59992207
 H     52  51  50     1.079150187926   120.22374936   179.07394615
 H     54  53  44     1.089751820324   109.05704666   292.70348755
 H     54  53  44     1.090089956517   103.46309212   177.41735914
 H     56  55  49     1.089465950822   108.69215262   301.07972522
 H     56  55  49     1.090004097699   103.65241633   185.77380401
 H     57  54  53     1.088209165051   110.78726767   292.36851728
 H     57  54  53     1.088490503496   109.99167043   172.32048253
 H     57  54  53     1.087276926684   110.12738705    52.02795584
 H     58  56  55     1.088307940291   110.91514235   298.51534894
 H     58  56  55     1.088393426386   109.91833090   178.34922436
 H     58  56  55     1.087575090189   110.17673688    58.55734945
 H     65  60  59     1.074219324766   123.17552132     1.65543176
 H     68  63  62     1.074031595671   123.96273266     2.39379913
 H     74  73  69     1.075945974201   123.10263860   359.04321488
 H     75  74  73     1.076238182281   123.79928372   180.38594656
 H     91  90  80     1.076413794319   122.22034542   359.63111046
 H     92  91  90     1.075161835493   123.76148823   179.92410540
 H     96  87  84     1.091810395490   109.53405709   157.12658119
 H     96  87  84     1.091649697064   108.95144641    37.50863708
 H     97  96  87     1.088230534124   110.67523209   302.33949582
 H     97  96  87     1.086306181562   109.79743547   182.10652547
 H     97  96  87     1.086573166888   109.78002383    62.87359854
 H     98  89  85     1.094117493965   108.38824252    45.23523283
 H     98  89  85     1.095367477744   108.28947742   290.58645686
 H     99  98  89     1.087862131752   110.65592803   300.37938355
 H     99  98  89     1.086887656798   110.09216932   180.45031861
 H     99  98  89     1.088200935260   110.64143454    60.56100306
 H    101  72  62     1.079554357038   120.24026236     2.16433635
 H    103 102 101     1.079549401278   119.80012327   180.40939570
 H    104 103 102     1.079877292520   119.80369131   180.23950796
 H    105 104 103     1.079812317303   120.02738123   179.05669179
 H    106  71  59     1.079778195788   120.26466312     1.39251719
 H    108 107 106     1.078457874977   121.17076703   181.26507486
 H    109 108 107     1.080080335207   119.29993061   179.67345687
 H    110 109 108     1.079162840632   120.22988341   179.06007120
 H    112 111 102     1.090523851413   107.78601536   297.84347260
 H    112 111 102     1.089261406550   103.98969287   181.77969559
 H    114 113 107     1.089388453032   108.71506448   301.12049825
 H    114 113 107     1.090035027694   103.66008441   185.78880361
 H    115 112 111     1.087894401631   110.22394388   291.06191846
 H    115 112 111     1.086900793909   111.29282882   171.58720189
 H    115 112 111     1.087769632459   110.42939541    51.34969977
 H    116 114 113     1.088388070038   110.94495480   298.07958049
 H    116 114 113     1.088325415811   109.88909275   177.92083665
 H    116 114 113     1.087563147270   110.16929919    58.17734971
 H    123 118 117     1.074278389618   123.22225988     0.98663920
 H    126 121 120     1.074221323983   123.22989341     1.43412746
 H    132 131 127     1.075169366472   123.95704527     0.33329590
 H    133 132 131     1.076505400637   123.72856350   180.13598894
 H    149 148 138     1.076244236082   122.50468379   359.80687536
 H    150 149 148     1.075486696989   123.80760490   180.01813715
 H    154 145 142     1.091804950117   109.47220754   157.71807182
 H    154 145 142     1.091549391507   108.93227954    38.13395155
 H    155 154 145     1.088140638980   110.65215674   302.43654496
 H    155 154 145     1.086388542742   109.85573649   182.23971058
 H    155 154 145     1.086581382548   109.81462166    62.91454291
 H    156 147 143     1.091785109717   109.47007444   156.83879061
 H    156 147 143     1.091695175953   108.93608130    37.28725474
 H    157 156 147     1.088140871808   110.67724940   302.35606978
 H    157 156 147     1.086399642627   109.75054945   182.11622163
 H    157 156 147     1.086506437947   109.76849091    62.92058088
 H    158 150 149     1.072552200921   127.23462782   179.97172158
 H    159 130 120     1.079486316866   120.33177590     2.60420067
 H    161 160 159     1.079747626717   120.11221223   181.18197588
 H    162 161 160     1.079859329218   119.71840047   179.97448979
 H    163 162 161     1.079368278068   119.99242121   178.66095681
 H    164 129 117     1.079481951540   120.30805902     2.18998651
 H    166 165 164     1.079723463578   120.12537107   181.21545589
 H    167 166 165     1.079885798499   119.69141848   179.93723803
 H    168 167 166     1.079311190343   120.00336369   178.73605735
 H    170 169 160     1.089612911955   108.26677449   301.20322137
 H    170 169 160     1.089109226754   104.53398813   184.79683128
 H    172 171 165     1.089650220254   108.31305526   299.80391087
 H    172 171 165     1.089107695318   104.44618141   183.46376127
 H    173 170 169     1.089458106629   110.36510889   295.97306004
 H    173 170 169     1.088567119244   110.05472246   176.20090275
 H    173 170 169     1.088256804114   110.21270410    56.20601446
 H    174 172 171     1.089372707617   110.36268145   295.54732201
 H    174 172 171     1.088519748879   110.01230910   175.76681616
 H    174 172 171     1.088196668530   110.33019003    55.76097203

---------------------------
INTERNAL COORDINATES (A.U.)
---------------------------
 C      0   0   0     0.000000000000     0.00000000     0.00000000
 C      1   0   0     2.647706879953     0.00000000     0.00000000
 C      2   1   0     2.673879194632   119.93402992     0.00000000
 C      3   2   1     2.621938708358   123.38219582     0.97617688
 C      4   3   2     2.652726331989   116.79310675   358.84805034
 C      1   2   3     2.618856311166   116.71825885     0.24013247
 C      2   1   3     2.696680023462   128.36905352   181.07874947
 C      7   2   1     2.546831527427   112.87561073   180.22782482
 S      8   7   2     3.272006802511   113.68990678   359.56317227
 C      5   4   3     2.682960172312   128.51713121   181.65170766
 C     10   5   4     2.577764358590   113.71010188   179.67955459
 S      6   1   2     3.291667648040   125.10667769   180.23236504
 C      1   2   3     2.779000906443   121.74641952   180.48941374
 C      4   3   2     2.776419743555   121.12189508   178.41278604
 C     11  10   5     2.690513039991   128.98822646   181.41756411
 C     15  11  10     2.610583097284   125.61502044   176.30219028
 C     16  15  11     2.617627487067   112.67327941   181.85640231
 C     17  16  15     2.622285983758   113.91376345   359.40810722
 S     15  11  10     3.283021239383   122.59144673   356.85070233
 C     18  17  16     2.680816619470   123.11255683   176.99236536
 S     20  18  17     3.298441272751   116.55975258   353.90608667
 C     21  20  18     3.287852550560    92.67443567   181.62444055
 C     22  21  20     2.615330976328   110.91635390   358.01735374
 C     20  18  17     2.627257273716   133.30155539   173.93244931
 C     23  22  21     2.772566553124   124.36095000   186.92404283
 C     25  23  22     2.759313008353   113.79953930   172.51674649
 C     26  25  23     2.700245871006   123.22788799     4.23133338
 C     24  20  18     2.747569148202   123.63712313   357.74749992
 C     26  25  23     2.595264773334   123.83376826   184.22549579
 S     29  26  25     3.268972591696   110.85687860   179.51688549
 C     27  26  25     2.595319417273   112.86911865   180.28498090
 C     22  21  20     2.697872615224   116.74816025   176.79941933
 C     32  22  21     2.600759066461   130.39308333   214.95727661
 C     33  32  22     2.636419037380   113.35304417   173.95632844
 S     32  22  21     3.297265260161   118.67601500    28.68212094
 O     25  23  22     2.310465628936   124.02947070   354.05890600
 O     28  24  20     2.322760257152   123.45714763     8.71481921
 C     29  26  25     2.807104438650   127.64125847   359.58821340
 C     38  29  26     2.875236402904   113.44448291   175.94052013
 C     31  27  26     2.805623470120   127.72872252   180.38972412
 C     40  31  27     2.875915145966   113.26365704   192.69945715
 C     34  33  32     2.604602410276   113.58717539     0.25255258
 C     14   4   3     2.624751188476   120.34372882   233.00549418
 C     43  14   4     2.622181450969   120.34822324   178.79019097
 C     44  43  14     2.623263785753   120.11703712   359.28479111
 C     45  44  43     2.613850664495   119.48208872     1.51847646
 C     46  45  44     2.611444921842   120.66319410   358.94435151
 C     13   1   2     2.622526463439   120.22655543    53.53001754
 C     48  13   1     2.626544439226   120.59842144   179.70007695
 C     49  48  13     2.622795690895   119.82660644   359.51970325
 C     50  49  48     2.615501016770   119.50262969     0.85928885
 C     51  50  49     2.610540930583   120.87175416   359.43044549
 S     44  43  14     3.347977738950   117.15568292   180.64695450
 C     53  44  43     3.456052752322   102.63642556   214.29978223
 S     49  48  13     3.345598251516   116.10749451   181.05404915
 C     55  49  48     3.452463157256   104.45330772   200.91994867
 C     54  53  44     2.864989579708   111.86081452    57.42860447
 C     56  55  49     2.865813595302   112.18574432    65.95464514
 C     42  34  33     9.450185033099   109.52124984   187.36905063
 C     59  42  34     2.654304329869    19.50827490   195.07931236
 C     60  59  42     2.679925853785   120.10142583   184.44086615
 C     61  60  59     2.616893737488   123.18357458   359.27550153
 C     62  61  60     2.654668326840   116.70534061   359.69597438
 C     59  42  34     2.616708200691   136.16606723   190.53379838
 C     60  59  42     2.677030922999   128.00238754     4.07064672
 C     65  60  59     2.580190536418   113.63628489   182.58739940
 S     61  60  59     3.296319030572   111.22693538   177.46113963
 C     63  62  61     2.675812965836   128.10415219   180.96181397
 C     68  63  62     2.577793652353   113.89392414   182.61275361
 S     64  59  42     3.297272936566   125.49374619   183.61098192
 C     59  42  34     2.777836236243   102.12542265    12.47751675
 C     62  61  60     2.778532068216   122.11254517   178.83884608
 C     69  68  63     2.689287450682   127.50948591   177.89024785
 C     73  69  68     2.609270574024   126.74659980   191.97622544
 C     74  73  69     2.619701424942   112.53989094   178.28745097
 C     75  74  73     2.623104074167   113.94582006     1.12082961
 S     73  69  68     3.283167223653   121.35569464    11.67383941
 C     76  75  74     2.679166850173   123.56694628   179.60979956
 S     78  76  75     3.301965481228   116.72049948     8.92540665
 C     79  78  76     3.300744690678    92.95271124   182.71879798
 C     80  79  78     2.625166322038   110.09674554     0.91294743
 C     78  76  75     2.625476862361   133.08546998   191.22896999
 C     81  80  79     2.743268221698   123.73589655   175.59723035
 C     83  81  80     2.756637001403   114.68743030   177.18287668
 C     84  83  81     2.704251499243   122.36566802     1.34496701
 C     82  78  76     2.744078479872   124.29548205   353.71876941
 C     84  83  81     2.593717990252   124.74949681   182.24351532
 S     87  84  83     3.269131824563   110.84246160   179.72106258
 C     85  84  83     2.598178424747   112.95865849   180.33917774
 C     80  79  78     2.678139148944   117.05489285   182.85736933
 C     90  80  79     2.624368296582   123.47546233     8.61963065
 C     91  90  80     2.618253927345   113.99203763   178.83805034
 S     90  80  79     3.289154501207   125.89654326   187.97566895
 O     83  81  80     2.322206202553   122.93707083   355.65219011
[...]
  80   38595.4    259.1   0.002605118   0.02222   0.00672   0.06934   0.13179
  81   38624.9    258.9   0.079880214   0.68084   0.75287   0.33767   0.00341
  82   38772.4    257.9   0.023617911   0.20054   0.42207   0.12599  -0.08074
  83   38810.8    257.7   0.028084156   0.23822   0.17268   0.38652   0.24291
  84   38821.7    257.6   0.007166071   0.06077  -0.05287  -0.22417  -0.08787
  85   38925.4    256.9   0.048716846   0.41202   0.18809   0.00726  -0.61367
  86   39005.7    256.4   0.030860026   0.26046  -0.30941   0.04479  -0.40339
  87   39109.2    255.7   0.064268723   0.54100   0.66826  -0.06032   0.30130
  88   39234.0    254.9   0.005915276   0.04963  -0.21456   0.04251   0.04231
  89   39314.3    254.4   0.001556570   0.01303   0.07068  -0.04805   0.07570
  90   39418.9    253.7   0.040257061   0.33621  -0.52465  -0.11091   0.22058
  91   39477.7    253.3   0.024992311   0.20842  -0.36337  -0.20185  -0.18878
  92   39509.8    253.1   0.014852998   0.12376  -0.03627   0.33631   0.09665
  93   39549.0    252.9   0.017909351   0.14908  -0.09233  -0.37482  -0.00780
  94   39635.5    252.3   0.045230524   0.37568   0.54373  -0.12117   0.25566
  95   39783.3    251.4   0.032968976   0.27282   0.36952   0.28124   0.23913
  96   39850.9    250.9   0.060422945   0.49916  -0.54471   0.03827  -0.44831
  97   39907.5    250.6   0.014780239   0.12193  -0.13583  -0.11665   0.29978
  98   40093.7    249.4   0.018553622   0.15235   0.02933  -0.31124   0.23370
  99   40122.7    249.2   0.044537989   0.36544  -0.42816  -0.38669   0.18052
 100   40150.3    249.1   0.002556670   0.02096  -0.13476  -0.05233   0.00799
 101   40286.6    248.2   0.001216183   0.00994   0.02902  -0.06401   0.07070

-----------------------------------------------------------------------------
         ABSORPTION SPECTRUM VIA TRANSITION VELOCITY DIPOLE MOMENTS
-----------------------------------------------------------------------------
State   Energy  Wavelength   fosc         P2         PX        PY        PZ  
        (cm-1)    (nm)                  (au**2)     (au)      (au)      (au) 
-----------------------------------------------------------------------------
   0   19667.6    508.4   4.483827983   0.60271   0.60680  -0.16634   0.45479
   1   21023.3    475.7   0.367606797   0.05282   0.00478  -0.22218  -0.05857
   2   22268.4    449.1   0.890782850   0.13557   0.04483  -0.06353  -0.35990
   3   23009.9    434.6   0.103244567   0.01624  -0.11550   0.04824   0.02388
   4   23319.0    428.8   0.264428792   0.04214  -0.09702   0.16846  -0.06598
   5   25229.7    396.4   0.361745876   0.06238  -0.19285  -0.14940  -0.05351
   6   25643.8    390.0   0.019420228   0.00340  -0.00149   0.00003  -0.05832
   7   26322.4    379.9   0.040124567   0.00722  -0.05294  -0.05541   0.03669
   8   26704.3    374.5   0.028887052   0.00527   0.03116   0.02548  -0.06043
   9   27074.3    369.4   0.051106799   0.00946   0.09016   0.01179   0.03448
  10   27573.9    362.7   0.072969755   0.01375  -0.07949   0.06977  -0.05064
  11   28241.2    354.1   0.217568674   0.04199  -0.20382  -0.02125  -0.00018
  12   28822.2    347.0   0.007880408   0.00155  -0.01522  -0.01777  -0.03170
  13   29238.1    342.0   0.089132906   0.01781   0.05399   0.04169   0.11471
  14   29345.7    340.8   0.281216554   0.05640   0.22093  -0.08623   0.01244
  15   29695.8    336.7   0.081693639   0.01658  -0.04616  -0.00880   0.11988
  16   30434.1    328.6   0.050958939   0.01060  -0.01962   0.04132   0.09223
  17   30919.9    323.4   0.163502642   0.03455   0.02681   0.16706  -0.07696
  18   31129.8    321.2   0.174682540   0.03716  -0.15259  -0.05591  -0.10371
  19   31279.0    319.7   0.018531881   0.00396   0.05532   0.01280   0.02715
  20   31553.4    316.9   0.498113345   0.10742   0.21341   0.02809   0.24715
  21   31643.0    316.0   0.063342506   0.01370   0.07420  -0.04383   0.07919
  22   31753.8    314.9   0.003963759   0.00086   0.01216  -0.01807   0.01964
  23   31865.3    313.8   0.012854589   0.00280   0.00216  -0.04579   0.02643
  24   32131.3    311.2   0.006389059   0.00140   0.01930  -0.02754   0.01649
  25   32434.6    308.3   0.032594470   0.00723   0.04733  -0.01633   0.06869
  26   32502.2    307.7   0.022570017   0.00501  -0.04721   0.02679  -0.04546
  27   32613.1    306.6   0.056126480   0.01251   0.00643   0.10990  -0.01980
  28   32831.9    304.6   0.071125572   0.01596  -0.09450  -0.06152   0.05695
  29   32935.3    303.6   0.004143022   0.00093   0.00119   0.02533  -0.01701
  30   33006.0    303.0   0.033814763   0.00763   0.07670   0.03714   0.01914
  31   33177.8    301.4   0.079232586   0.01797  -0.13305   0.00804  -0.01413
  32   33227.5    301.0   0.184196148   0.04183   0.19755   0.04892   0.02028
  33   33521.5    298.3   0.155108783   0.03554   0.14065   0.09335   0.08390
  34   33635.0    297.3   0.016883160   0.00388  -0.04663  -0.02142   0.03533
  35   33736.7    296.4   0.034417725   0.00794   0.05301   0.02903  -0.06545
  36   33799.5    295.9   0.011784627   0.00272  -0.03870  -0.02371  -0.02574
  37   33947.8    294.6   0.068740597   0.01595   0.12252  -0.00894   0.02931
  38   34163.9    292.7   0.003879631   0.00091  -0.02666   0.00878   0.01088
  39   34183.9    292.5   0.035002769   0.00818   0.08168  -0.03070   0.02375
  40   34234.6    292.1   0.074274532   0.01738  -0.09793  -0.06686  -0.05760
  41   34420.8    290.5   0.001063397   0.00025  -0.00938   0.00919  -0.00881
  42   34438.4    290.4   0.049347354   0.01161   0.10023  -0.03960   0.00037
  43   34472.3    290.1   0.008457929   0.00199  -0.03096   0.00033   0.03215
  44   34512.9    289.7   0.059284586   0.01398   0.10735  -0.03840   0.03139
  45   34669.0    288.4   0.048557326   0.01151   0.03399   0.08346  -0.05818
  46   34717.6    288.0   0.107060495   0.02540   0.11556  -0.02672   0.10647
  47   34773.0    287.6   0.014239505   0.00338  -0.00745   0.05592   0.01419
  48   34858.1    286.9   0.188753644   0.04497  -0.14243   0.15295   0.03592
  49   34928.6    286.3   0.087690797   0.02093  -0.11984   0.00836   0.08064
  50   34949.9    286.1   0.062974861   0.01504  -0.08406   0.05334   0.07164
  51   34998.8    285.7   0.013845650   0.00331  -0.03695   0.03492  -0.02696
  52   35094.8    284.9   0.064818741   0.01555  -0.06282   0.07397   0.07829
  53   35262.0    283.6   0.020543618   0.00495   0.05697  -0.03308  -0.02473
  54   35415.4    282.4   0.028020391   0.00678  -0.04460  -0.03216   0.06131
  55   35567.1    281.2   0.076072757   0.01849   0.10702   0.06088  -0.05773
  56   35770.3    279.6   0.023758727   0.00581   0.04779  -0.01279   0.05797
  57   35890.1    278.6   0.055563577   0.01363  -0.02161   0.06441   0.09494
  58   36045.7    277.4   0.033693566   0.00830  -0.08858   0.01475  -0.01536
  59   36301.9    275.5   0.103835766   0.02576   0.13257   0.05625   0.07088
  60   36302.2    275.5   0.014699291   0.00365   0.05782   0.01627  -0.00629
  61   36402.9    274.7   0.011289055   0.00281  -0.03600  -0.03471   0.01754
  62   36418.6    274.6   0.007745081   0.00193   0.03403   0.01561  -0.02293
  63   36451.3    274.3   0.001091066   0.00027  -0.01595  -0.00208  -0.00362
  64   36614.0    273.1   0.047723485   0.01194  -0.00294   0.05597  -0.09381
  65   36910.7    270.9   0.034796839   0.00878  -0.06606  -0.06083  -0.02673
  66   37039.2    270.0   0.003092246   0.00078   0.01179   0.01864   0.01722
  67   37188.6    268.9   0.001417458   0.00036  -0.00100  -0.01148   0.01509
  68   37370.7    267.6   0.015961448   0.00408  -0.04640  -0.04386   0.00053
  69   37501.9    266.7   0.002834826   0.00073   0.01711   0.01968  -0.00680
  70   37555.2    266.3   0.003868353   0.00099   0.01769   0.02185  -0.01424
  71   37815.3    264.4   0.025178689   0.00651  -0.01911   0.02770  -0.07331
  72   37976.0    263.3   0.029683108   0.00770  -0.04859   0.02329  -0.06929
  73   38076.2    262.6   0.006222920   0.00162   0.02826  -0.00721   0.02773
  74   38103.6    262.4   0.003275597   0.00085  -0.02130  -0.00949  -0.01758
  75   38208.3    261.7   0.000002546   0.00000  -0.00013   0.00022   0.00077
  76   38337.3    260.8   0.009115648   0.00239  -0.01951  -0.04465  -0.00375
  77   38500.4    259.7   0.036753089   0.00967  -0.07718  -0.05585  -0.02440
  78   38538.4    259.5   0.022926728   0.00604  -0.06321  -0.03715  -0.02574
  79   38556.8    259.4   0.013140748   0.00346  -0.02973   0.03324   0.03840
  80   38595.4    259.1   0.001685356   0.00044   0.00076   0.01058   0.01822
  81   38624.9    258.9   0.060867978   0.01607   0.11585   0.05139   0.00225
  82   38772.4    257.9   0.016255259   0.00431   0.06195   0.01728  -0.01308
  83   38810.8    257.7   0.022291915   0.00591   0.02736   0.05960   0.04015
  84   38821.7    257.6   0.005530921   0.00147  -0.00817  -0.03422  -0.01516
  85   38925.4    256.9   0.035450927   0.00943   0.03153  -0.00096  -0.09185
  86   39005.7    256.4   0.024727816   0.00659  -0.04681   0.00847  -0.06580
  87   39109.2    255.7   0.038902987   0.01040   0.09252  -0.01329   0.04077
  88   39234.0    254.9   0.004825636   0.00129  -0.03475   0.00595   0.00716
  89   39314.3    254.4   0.000799643   0.00021   0.01037  -0.00628   0.00824
  90   39418.9    253.7   0.028061835   0.00756  -0.08159  -0.01211   0.02752
  91   39477.7    253.3   0.016730676   0.00451  -0.05335  -0.02907  -0.02868
  92   39509.8    253.1   0.009274645   0.00250  -0.01286   0.04543   0.01658
  93   39549.0    252.9   0.011597221   0.00313  -0.00678  -0.05552  -0.00254
  94   39635.5    252.3   0.030656266   0.00830   0.08244  -0.01711   0.03486
  95   39783.3    251.4   0.021182781   0.00576   0.05109   0.04743   0.02999
  96   39850.9    250.9   0.040209949   0.01095  -0.07768   0.00540  -0.06991
  97   39907.5    250.6   0.010105833   0.00276  -0.02589  -0.01889   0.04159
  98   40093.7    249.4   0.010708142   0.00293   0.00374  -0.04479   0.03023
  99   40122.7    249.2   0.028771910   0.00789  -0.06122  -0.05974   0.02392
 100   40150.3    249.1   0.001502163   0.00041  -0.01842  -0.00848   0.00093
 101   40286.6    248.2   0.000766117   0.00021   0.00401  -0.00978   0.00997

-------------------------------------------------------------------
                             CD SPECTRUM
-------------------------------------------------------------------
State   Energy Wavelength       R         MX        MY        MZ   
        (cm-1)   (nm)       (1e40*cgs)   (au)      (au)      (au)  
-------------------------------------------------------------------
   0   19667.6    508.4    -1149.03852  -7.51342   5.76168  13.03434
   1   21023.3    475.7    3078.46007  -4.29816   2.51280  11.76627
   2   22268.4    449.1    -3168.30580   4.73366 -10.83407  -1.47228
   3   23009.9    434.6    612.47154   2.23961   2.51028  -5.68354
   4   23319.0    428.8    702.94320   1.94642  -3.14199  -5.98797
   5   25229.7    396.4    -226.30819  -6.54593   3.24702  12.76399
   6   25643.8    390.0    135.57632  -0.19916  -1.77950   1.16355
   7   26322.4    379.9    -157.73950  -1.75475   2.26598   2.78423
   8   26704.3    374.5    -173.36209   1.15480  -1.30162  -1.12198
   9   27074.3    369.4      6.69317   0.28953  -0.56791  -0.58236
  10   27573.9    362.7    407.35889   0.30633  -3.73935  -1.85404
  11   28241.2    354.1    -234.68399  -0.95743   3.60605   0.54796
  12   28822.2    347.0    134.50646  -1.13786  -0.56276   2.62505
  13   29238.1    342.0    174.26755  -1.25832   0.14612  -0.21372
  14   29345.7    340.8    -70.56815  -0.32188  -0.53304   3.52306
  15   29695.8    336.7    -28.44138  -1.09856   4.34080  -0.12103
  16   30434.1    328.6    -212.82433  -1.57372   1.36416   0.22540
  17   30919.9    323.4    -165.58744   5.93306  -5.54414 -11.42839
  18   31129.8    321.2    166.71958  -2.17161  -0.95585   4.79123
  19   31279.0    319.7      8.39701   1.18742  -0.34767  -2.15096
  20   31553.4    316.9     37.15712  -1.36177   7.20759   0.27857
  21   31643.0    316.0     37.77575  -0.83652   1.98473   1.57637
  22   31753.8    314.9    -18.76877  -0.22997   0.05873   0.68833
  23   31865.3    313.8    -12.35143  -0.85800   0.59969   1.35908
  24   32131.3    311.2      3.40161   0.26397   0.43426   0.33525
  25   32434.6    308.3     70.42977  -0.63553   1.50254   0.23721
  26   32502.2    307.7     49.63685  -0.59187  -1.58638   0.26826
  27   32613.1    306.6    246.14807   3.07171  -2.70039  -6.84436
  28   32831.9    304.6    -454.43522  -2.79023   3.47104   3.77904
  29   32935.3    303.6     -1.08892   0.74420  -0.91306  -1.49557
  30   33006.0    303.0     39.78586   0.60777  -1.23308  -1.73552
  31   33177.8    301.4    -38.63502   0.11295   2.38004  -1.20098
  32   33227.5    301.0    -292.62509   1.71330  -2.50958  -2.45021
  33   33521.5    298.3    583.70976   2.80852  -1.66099  -6.69930
  34   33635.0    297.3    -129.56186  -1.21547   2.62740   2.05166
  35   33736.7    296.4    -159.09380   1.40672  -3.36669  -1.53222
  36   33799.5    295.9      5.84083  -0.90133  -0.32455   1.58928
  37   33947.8    294.6     42.55962  -0.59408  -0.91582   1.42314
  38   34163.9    292.7    -11.46600  -0.03470   1.01636  -0.45519
  39   34183.9    292.5      0.67862  -0.66847  -0.36323   1.90397
  40   34234.6    292.1    527.09833   1.00321   3.23403  -0.16244
  41   34420.8    290.5    -15.65854  -0.24998   0.65623  -0.18088
  42   34438.4    290.4    -23.43969   0.23724   0.21763   1.43873
  43   34472.3    290.1     28.82075   0.06656   1.41181  -0.32448
  44   34512.9    289.7     79.88372  -0.78070   0.94327   2.43307
  45   34669.0    288.4    -633.90126   4.59102  -2.77810  -7.63959
  46   34717.6    288.0     45.49031  -0.63805   1.45112   0.76361
  47   34773.0    287.6    225.72905   1.46488  -1.24390  -3.72676
  48   34858.1    286.9    595.40119   0.45884  -0.69214  -5.21461
  49   34928.6    286.3    -802.56404  -2.63603   1.59260   1.74389
  50   34949.9    286.1    -102.46279  -1.09078   0.99632  -1.12353
  51   34998.8    285.7     52.05559   0.38447  -1.39711  -1.18758
  52   35094.8    284.9    293.67916  -0.72893  -0.79158  -2.12298
  53   35262.0    283.6    119.47103  -0.79413  -1.10228   2.44440
  54   35415.4    282.4     47.16471  -0.75733   3.54574   0.81725
  55   35567.1    281.2    -572.69332   3.09477  -3.70496  -4.40632
  56   35770.3    279.6    -19.15619  -0.86076   0.91913   1.09523
  57   35890.1    278.6    188.20713  -0.09300   2.08285  -2.61759
  58   36045.7    277.4     93.15157   0.76308  -0.48492  -2.28745
  59   36301.9    275.5     96.13399   1.96187  -0.40989  -4.33804
  60   36302.2    275.5    -124.31679   1.30453  -0.82343  -2.01113
  61   36402.9    274.7    -56.21328  -1.33112   1.59369   2.18180
  62   36418.6    274.6    -119.52593   1.35706  -1.32557  -2.22547
  63   36451.3    274.3     -3.36674  -0.15033   0.26561   0.03926
  64   36614.0    273.1    -142.92188   2.37940  -4.07181  -3.58337
  65   36910.7    270.9     82.09861  -1.97228   1.01755   4.28789
  66   37039.2    270.0     28.15687   0.55105   0.15936  -1.45008
  67   37188.6    268.9      4.94777  -0.33840   1.10989   0.64552
  68   37370.7    267.6     -2.30621  -1.46818   1.42532   2.80841
  69   37501.9    266.7     13.65178   0.49588  -1.05837  -0.81770
  70   37555.2    266.3      5.26541   0.65934  -1.32321  -1.14424
  71   37815.3    264.4     33.32251   0.75201  -2.23291  -0.75736
  72   37976.0    263.3     20.46797   0.50318  -1.96539  -0.64708
  73   38076.2    262.6    -11.93860  -0.62002   0.47539   0.94838
  74   38103.6    262.4      1.47875   0.16096  -0.02215  -0.09314
  75   38208.3    261.7     -1.79408  -0.57021   0.33730   0.59461
  76   38337.3    260.8     79.74603  -1.62320   1.55140   3.59441
  77   38500.4    259.7    114.47260  -0.65451   1.43591   1.95016
  78   38538.4    259.5     59.91305  -0.30160   0.83965   1.07605
  79   38556.8    259.4     53.60507  -0.06925   0.58774  -1.45366
  80   38595.4    259.1     -4.95805  -0.26926   0.40367  -0.03905
  81   38624.9    258.9    -57.83350   1.48518  -2.55767  -2.67902
  82   38772.4    257.9    -135.33809   1.39505  -1.35642  -1.93491
  83   38810.8    257.7    173.26582  -0.13489  -0.97065  -1.38558
  84   38821.7    257.6     47.81681  -0.01586   0.58131   0.83505
  85   38925.4    256.9    -287.92250   1.83764  -2.60063  -1.45794
  86   39005.7    256.4    -34.22145   1.16612  -0.87612  -1.35163
  87   39109.2    255.7     -6.53911  -0.32135   0.25415   0.85569
  88   39234.0    254.9    -10.15339  -0.21489   0.24451  -0.31736
  89   39314.3    254.4      1.81693  -0.00331   0.50972   0.22485
  90   39418.9    253.7    -142.63994  -1.18072   2.02343   0.95240
  91   39477.7    253.3     69.66823   0.09780   0.71415   0.61375
  92   39509.8    253.1     77.96937   0.58509  -0.29872  -2.16321
  93   39549.0    252.9     -5.54412   0.70894  -0.25352   0.77482
  94   39635.5    252.3     25.04659  -1.11632   0.21220   2.05907
  95   39783.3    251.4     72.94748   0.63248  -0.31511  -1.90083
  96   39850.9    250.9     12.63827   0.69313  -0.76039  -0.78748
  97   39907.5    250.6    -56.68599  -0.85582   0.73742   0.70135
  98   40093.7    249.4    -61.50196  -1.93528   1.68336   3.60128
  99   40122.7    249.2    -104.55868  -1.96035   2.75949   3.71860
 100   40150.3    249.1      8.64486   0.13189   0.36564   0.02943
 101   40286.6    248.2     -2.69756  -0.40237   0.46501   0.74802

sTD-DFT done

Total run time:       46.680 sec

           *** ORCA-CIS/TD-DFT FINISHED WITHOUT ERROR ***

-------------------------   --------------------
FINAL SINGLE POINT ENERGY    -15547.517637289180
-------------------------   --------------------


                            ***************************************
                            *     ORCA property calculations      *
                            ***************************************

                                    ---------------------
                                    Active property flags
                                    ---------------------
   (+) Dipole Moment


------------------------------------------------------------------------------
                       ORCA ELECTRIC PROPERTIES CALCULATION
------------------------------------------------------------------------------

Dipole Moment Calculation                       ... on
Quadrupole Moment Calculation                   ... off
Polarizability Calculation                      ... off
GBWName                                         ... xtbopt.gbw
Electron density file                           ... xtbopt.scfp
The origin for moment calculation is the CENTER OF MASS  = (43.270645,  3.207991 15.587660)

-------------
DIPOLE MOMENT
-------------
                                X             Y             Z
Electronic contribution:     57.52808      -9.22588      40.51561
Nuclear contribution   :    -58.00301       9.83983     -37.94216
                        -----------------------------------------
Total Dipole Moment    :     -0.47493       0.61394       2.57344
                        -----------------------------------------
Magnitude (a.u.)       :      2.68795
Magnitude (Debye)      :      6.83224



--------------------
Rotational spectrum 
--------------------
 
Rotational constants in cm-1:     0.000260     0.000023     0.000022 
Rotational constants in MHz :     7.797118     0.692519     0.673650 

 Dipole components along the rotational axes: 
x,y,z [a.u.] :     1.119231    -2.395373     0.484367 
x,y,z [Debye]:     2.844860    -6.088554     1.231162 

 

Timings for individual modules:

Sum of individual times         ...     3300.796 sec (=  55.013 min)
GTO integral calculation        ...       26.769 sec (=   0.446 min)   0.8 %
SCF iterations                  ...     3226.516 sec (=  53.775 min)  97.7 %
CIS module                      ...       47.512 sec (=   0.792 min)   1.4 %
                             ****ORCA TERMINATED NORMALLY****
TOTAL RUN TIME: 0 days 0 hours 55 minutes 3 seconds 421 msec
