      -----------------------------------------------------------      
     |                   =====================                   |     
     |                           x T B                           |     
     |                   =====================                   |     
     |                         S. Grimme                         |     
     |          Mulliken Center for Theoretical Chemistry        |     
     |                    University of Bonn                     |     
      -----------------------------------------------------------      

   * xtb version 6.4.1 (unknown) compiled by 'oda6@login1.crc.pitt.edu' on 2021-06-25

   xtb is free software: you can redistribute it and/or modify it under
   the terms of the GNU Lesser General Public License as published by
   the Free Software Foundation, either version 3 of the License, or
   (at your option) any later version.
   
   xtb is distributed in the hope that it will be useful,
   but WITHOUT ANY WARRANTY; without even the implied warranty of
   MERCHANTABILITY or FITNESS FOR A PARTICULAR PURPOSE.  See the
   GNU Lesser General Public License for more details.
   
   Cite this work as:
   * C. Bannwarth, E. Caldeweyher, S. Ehlert, A. Hansen, P. Pracht,
     J. Seibert, S. Spicher, S. Grimme, WIREs Comput. Mol. Sci., 2020, 11,
     e01493. DOI: 10.1002/wcms.1493
   
   for GFN2-xTB:
   * C. Bannwarth, S. Ehlert and S. Grimme., J. Chem. Theory Comput., 2019,
     15, 1652-1671. DOI: 10.1021/acs.jctc.8b01176
   for GFN1-xTB:
   * S. Grimme, C. Bannwarth, P. Shushkov, J. Chem. Theory Comput., 2017,
     13, 1989-2009. DOI: 10.1021/acs.jctc.7b00118
   for GFN0-xTB:
   * P. Pracht, E. Caldeweyher, S. Ehlert, S. Grimme, ChemRxiv, 2019, preprint.
     DOI: 10.26434/chemrxiv.8326202.v1
   for GFN-FF:
   * S. Spicher and S. Grimme, Angew. Chem. Int. Ed., 2020, 59, 15665-15673.
     DOI: 10.1002/anie.202004239
   
   for DFT-D4:
   * E. Caldeweyher, C. Bannwarth and S. Grimme, J. Chem. Phys., 2017,
     147, 034112. DOI: 10.1063/1.4993215
   * E. Caldeweyher, S. Ehlert, A. Hansen, H. Neugebauer, S. Spicher,
     C. Bannwarth and S. Grimme, J. Chem. Phys., 2019, 150, 154122.
     DOI: 10.1063/1.5090222
   * E. Caldeweyher, J.-M. Mewes, S. Ehlert and S. Grimme, Phys. Chem. Chem. Phys.
     2020, 22, 8499-8512. DOI: 10.1039/D0CP00502A
   
   for sTDA-xTB:
   * S. Grimme and C. Bannwarth, J. Chem. Phys., 2016, 145, 054103.
     DOI: 10.1063/1.4959605
   
   in the mass-spec context:
   * V. Asgeirsson, C. Bauer and S. Grimme, Chem. Sci., 2017, 8, 4879.
     DOI: 10.1039/c7sc00601b
   * J. Koopman and S. Grimme, ACS Omega 2019, 4, 12, 15120-15133.
     DOI: 10.1021/acsomega.9b02011
   
   for metadynamics refer to:
   * S. Grimme, J. Chem. Theory Comput., 2019, 155, 2847-2862
     DOI: 10.1021/acs.jctc.9b00143
   
   for SPH calculations refer to:
   * S. Spicher and S. Grimme, J. Chem. Theory Comput., 2021, 17, 1701-1714
     DOI: 10.1021/acs.jctc.0c01306
   
   with help from (in alphabetical order)
   P. Atkinson, C. Bannwarth, F. Bohle, G. Brandenburg, E. Caldeweyher
   M. Checinski, S. Dohm, S. Ehlert, S. Ehrlich, I. Gerasimov, J. Koopman
   C. Lavigne, S. Lehtola, F. März, M. Müller, F. Musil, H. Neugebauer
   J. Pisarek, C. Plett, P. Pracht, J. Seibert, P. Shushkov, S. Spicher
   M. Stahn, M. Steiner, T. Strunk, J. Stückrath, T. Rose, and J. Unsleber
   
 * started run on 2022/02/11 at 07:59:36.286     

           -------------------------------------------------
          |                Calculation Setup                |
           -------------------------------------------------

          program call               : /ihome/ghutchison/oda6/xtb/xtb-641/bin/xtb ../../GFN2_output/10_78_39.mol --sp --alpb water
          hostname                   : smp-n28
          coordinate file            : ../../GFN2_output/10_78_39.mol
          omp threads                :                     8
          number of atoms            :                   125
          number of electrons        :                   388
          charge                     :                     0
          spin                       :                   0.0
          first test random number   :      0.12348884600054

   ID    Z sym.   atoms
    1    6 C      1-3, 5-17, 19, 21-26, 28, 29, 31, 32, 34-37, 39-41, 43-47,
                  49, 50, 52-55, 57-61, 63-71, 73, 75-81
    2    8 O      4, 62
    3    7 N      18, 20, 33, 38, 51, 56, 72, 74
    4   16 S      27, 30, 42, 48
    5    1 H      82-125

           -------------------------------------------------
          |                 G F N 2 - x T B                 |
           -------------------------------------------------

        Reference                      10.1021/acs.jctc.8b01176
      * Hamiltonian:
        H0-scaling (s, p, d)           1.850000    2.230000    2.230000
        zeta-weighting                 0.500000
      * Dispersion:
        s8                             2.700000
        a1                             0.520000
        a2                             5.000000
        s9                             5.000000
      * Repulsion:
        kExp                           1.500000    1.000000
        rExp                           1.000000
      * Coulomb:
        alpha                          2.000000
        third order                    shell-resolved
        anisotropic                    true
        a3                             3.000000
        a5                             4.000000
        cn-shift                       1.200000
        cn-exp                         4.000000
        max-rad                        5.000000

      * Solvation model:               ALPB
        Solvent                        water
        Parameter file                 internal GFN2-xTB/ALPB
        Dielectric constant                8.0200E+01
        Reference state                gsolv [1 M gas/solution]
        Free energy shift                  1.0808E-03 Eh       6.7819E-01 kcal/mol
        Temperature                        2.9815E+02 K
        Density                            1.0000E+00 kg/L
        Solvent mass                       1.8000E+01 g/mol
        Interaction kernel             P16
        Born radius scaling (c1)           1.4744E+00
        Born radii integrator          GBOBC
        Born offset                        0.0000E+00 a0       0.0000E+00 AA
        H-bond correction              true
        Ion screening                  false
        Surface tension                    1.0000E-05 Eh       1.5569E+01 dyn/cm
        Grid points                               230 per atom

          ...................................................
          :                      SETUP                      :
          :.................................................:
          :  # basis functions                 392          :
          :  # atomic orbitals                 388          :
          :  # shells                          210          :
          :  # electrons                       388          :
          :  max. iterations                   250          :
          :  Hamiltonian                  GFN2-xTB          :
          :  restarted?                      false          :
          :  GBSA solvation                   true          :
          :  PC potential                    false          :
          :  electronic temp.          300.0000000     K    :
          :  accuracy                    1.0000000          :
          :  -> integral cutoff          0.2500000E+02      :
          :  -> integral neglect         0.1000000E-07      :
          :  -> SCF convergence          0.1000000E-05 Eh   :
          :  -> wf. convergence          0.1000000E-03 e    :
          :  Broyden damping             0.4000000          :
          ...................................................

 iter      E             dE          RMSdq      gap      omega  full diag
   1   -213.6089506 -0.213609E+03  0.442E+00    1.07       0.0  T
   2   -213.7870678 -0.178117E+00  0.264E+00    0.89       1.0  T
   3   -213.7228601  0.642077E-01  0.138E+00    0.78       1.0  T
   4   -213.8432208 -0.120361E+00  0.437E-01    0.70       1.0  T
   5   -213.8582591 -0.150384E-01  0.132E-01    0.61       1.0  T
   6   -213.8587831 -0.523937E-03  0.724E-02    0.63       1.0  T
   7   -213.8590350 -0.251967E-03  0.278E-02    0.62       1.0  T
   8   -213.8590589 -0.239005E-04  0.122E-02    0.62       1.0  T
   9   -213.8590630 -0.402673E-05  0.675E-03    0.62       1.3  T
  10   -213.8590639 -0.903825E-06  0.378E-03    0.62       2.4  T
  11   -213.8590645 -0.598745E-06  0.204E-03    0.62       4.4  T
  12   -213.8590646 -0.864337E-07  0.103E-03    0.62       8.7  T
  13   -213.8590646 -0.349715E-07  0.421E-04    0.62      21.2  T
  14   -213.8590646 -0.838048E-08  0.224E-04    0.62      40.0  T

   *** convergence criteria satisfied after 14 iterations ***

         #    Occupation            Energy/Eh            Energy/eV
      -------------------------------------------------------------
         1        2.0000           -0.7465745             -20.3153
       ...           ...                  ...                  ...
       188        2.0000           -0.3968208             -10.7980
       189        2.0000           -0.3914751             -10.6526
       190        2.0000           -0.3865643             -10.5190
       191        2.0000           -0.3812659             -10.3748
       192        2.0000           -0.3715627             -10.1107
       193        2.0000           -0.3671140              -9.9897
       194        2.0000           -0.3542936              -9.6408 (HOMO)
       195        0.0000           -0.3314201              -9.0184 (LUMO)
       196        0.0000           -0.3290643              -8.9543
       197                         -0.3192678              -8.6877
       198                         -0.3151186              -8.5748
       199                         -0.2836346              -7.7181
       ...                                ...                  ...
       388                          1.1528227              31.3699
      -------------------------------------------------------------
                  HL-Gap            0.0228735 Eh            0.6224 eV
             Fermi-level           -0.3428951 Eh           -9.3306 eV

 SCC (total)                   0 d,  0 h,  0 min,  0.318 sec
 SCC setup                      ...        0 min,  0.003 sec (  0.923%)
 Dispersion                     ...        0 min,  0.006 sec (  1.806%)
 classical contributions        ...        0 min,  0.000 sec (  0.046%)
 integral evaluation            ...        0 min,  0.017 sec (  5.273%)
 iterations                     ...        0 min,  0.248 sec ( 78.055%)
 molecular gradient             ...        0 min,  0.043 sec ( 13.469%)
 printout                       ...        0 min,  0.001 sec (  0.400%)

         :::::::::::::::::::::::::::::::::::::::::::::::::::::
         ::                     SUMMARY                     ::
         :::::::::::::::::::::::::::::::::::::::::::::::::::::
         :: total energy            -210.390650700794 Eh    ::
         :: total w/o Gsasa/hb      -210.366500467317 Eh    ::
         :: gradient norm              0.033025398197 Eh/a0 ::
         :: HOMO-LUMO gap              0.622419732435 eV    ::
         ::.................................................::
         :: SCC energy              -213.859064604925 Eh    ::
         :: -> isotropic ES            0.150873582275 Eh    ::
         :: -> anisotropic ES          0.008746056311 Eh    ::
         :: -> anisotropic XC          0.146108353767 Eh    ::
         :: -> dispersion             -0.195846624830 Eh    ::
         :: -> Gsolv                  -0.057446106099 Eh    ::
         ::    -> Gelec               -0.033295872623 Eh    ::
         ::    -> Gsasa               -0.019571205490 Eh    ::
         ::    -> Ghb                 -0.005659787684 Eh    ::
         ::    -> Gshift               0.001080759698 Eh    ::
         :: repulsion energy           3.469654712866 Eh    ::
         :: add. restraining           0.000000000000 Eh    ::
         :: total charge              -0.000000000534 e     ::
         :::::::::::::::::::::::::::::::::::::::::::::::::::::

           -------------------------------------------------
          |                Property Printout                |
           -------------------------------------------------

    * Orbital Energies and Occupations

         #    Occupation            Energy/Eh            Energy/eV
      -------------------------------------------------------------
         1        2.0000           -0.7465745             -20.3153
       ...           ...                  ...                  ...
       182        2.0000           -0.4135803             -11.2541
       183        2.0000           -0.4103445             -11.1660
       184        2.0000           -0.4088313             -11.1249
       185        2.0000           -0.4031260             -10.9696
       186        2.0000           -0.4000790             -10.8867
       187        2.0000           -0.3990202             -10.8579
       188        2.0000           -0.3968208             -10.7980
       189        2.0000           -0.3914751             -10.6526
       190        2.0000           -0.3865643             -10.5190
       191        2.0000           -0.3812659             -10.3748
       192        2.0000           -0.3715627             -10.1107
       193        2.0000           -0.3671140              -9.9897
       194        2.0000           -0.3542936              -9.6408 (HOMO)
       195        0.0000           -0.3314201              -9.0184 (LUMO)
       196        0.0000           -0.3290643              -8.9543
       197                         -0.3192678              -8.6877
       198                         -0.3151186              -8.5748
       199                         -0.2836346              -7.7181
       200                         -0.2685606              -7.3079
       201                         -0.2652411              -7.2176
       202                         -0.2532964              -6.8925
       203                         -0.2513388              -6.8393
       204                         -0.2491538              -6.7798
       205                         -0.2456753              -6.6852
       ...                                ...                  ...
       388                          1.1528227              31.3699
      -------------------------------------------------------------
                  HL-Gap            0.0228735 Eh            0.6224 eV
             Fermi-level           -0.3428951 Eh           -9.3306 eV

     #   Z          covCN         q      C6AA      α(0)
     1   6 C        2.919    -0.016    28.405     8.740
     2   6 C        3.009    -0.046    29.129     8.853
     3   6 C        2.880     0.226    23.257     7.906
     4   8 O        0.966    -0.412    21.866     6.272
     5   6 C        3.040    -0.026    28.620     8.775
     6   6 C        3.041     0.006    27.850     8.656
     7   6 C        2.910    -0.032    28.806     8.801
     8   6 C        2.921    -0.028    28.691     8.784
     9   6 C        2.986     0.019    27.571     8.613
    10   6 C        2.918    -0.035    28.862     8.810
    11   6 C        2.915    -0.026    28.662     8.779
    12   6 C        2.917    -0.026    28.661     8.779
    13   6 C        2.915    -0.033    28.828     8.804
    14   6 C        2.982     0.023    27.494     8.601
    15   6 C        3.022     0.034    27.220     8.558
    16   6 C        2.947    -0.002    28.074     8.690
    17   6 C        1.949     0.130    27.899     8.530
    18   7 N        0.911    -0.287    27.409     7.572
    19   6 C        1.950     0.134    27.811     8.516
    20   7 N        0.911    -0.290    27.482     7.582
    21   6 C        2.993     0.016    27.653     8.626
    22   6 C        3.094     0.008    27.728     8.630
    23   6 C        3.804    -0.060    21.645     6.623
    24   6 C        3.754    -0.108    22.613     6.781
    25   6 C        3.181     0.010    27.364     8.539
    26   6 C        3.108     0.004    27.798     8.638
    27  16 S        2.322    -0.005   141.254    20.003
    28   6 C        3.252     0.033    26.232     8.288
    29   6 C        3.106     0.011    27.639     8.614
    30  16 S        2.168    -0.037   142.582    20.097
    31   6 C        3.080    -0.036    28.813     8.800
    32   6 C        2.962     0.067    26.501     8.444
    33   7 N        1.848    -0.267    27.789     7.813
    34   6 C        2.947     0.085    26.111     8.381
    35   6 C        3.760    -0.133    23.104     6.852
    36   6 C        2.947     0.085    26.113     8.381
    37   6 C        3.760    -0.133    23.102     6.852
    38   7 N        1.848    -0.268    27.802     7.815
    39   6 C        2.962     0.067    26.509     8.445
    40   6 C        3.081    -0.036    28.798     8.798
    41   6 C        3.109     0.007    27.715     8.625
    42  16 S        2.184    -0.027   142.174    20.068
    43   6 C        3.198     0.009    27.287     8.515
    44   6 C        3.089     0.016    27.560     8.605
    45   6 C        3.804    -0.050    21.460     6.595
    46   6 C        3.753    -0.111    22.679     6.791
    47   6 C        2.999     0.019    27.577     8.614
    48  16 S        2.277    -0.030   142.302    20.077
    49   6 C        3.120     0.014    27.528     8.593
    50   6 C        3.252     0.033    26.227     8.287
    51   7 N        2.790    -0.033    21.883     6.948
    52   6 C        3.742    -0.012    20.856     6.515
    53   6 C        3.752    -0.125    22.953     6.832
    54   6 C        3.101     0.034    27.111     8.533
    55   6 C        3.101     0.035    27.092     8.529
    56   7 N        2.791    -0.031    21.839     6.941
    57   6 C        3.742    -0.011    20.842     6.513
    58   6 C        3.752    -0.124    22.937     6.830
    59   6 C        2.951    -0.009    28.238     8.716
    60   6 C        3.006    -0.041    28.992     8.832
    61   6 C        2.868     0.231    23.161     7.889
    62   8 O        0.856    -0.423    22.142     6.309
    63   6 C        3.058    -0.023    28.526     8.759
    64   6 C        2.904    -0.025    28.621     8.772
    65   6 C        3.260     0.014    26.537     8.323
    66   6 C        3.257     0.014    26.581     8.336
    67   6 C        2.904    -0.033    28.830     8.804
    68   6 C        3.047     0.004    27.896     8.663
    69   6 C        3.018     0.036    27.183     8.552
    70   6 C        2.947    -0.002    28.086     8.692
    71   6 C        1.941     0.130    27.909     8.531
    72   7 N        0.911    -0.290    27.470     7.580
    73   6 C        1.942     0.134    27.815     8.517
    74   7 N        0.911    -0.289    27.455     7.578
    75   6 C        4.163    -0.028    20.978     6.505
    76   6 C        4.012    -0.016    20.789     6.477
    77   6 C        2.988    -0.042    29.044     8.840
    78   6 C        2.987    -0.043    29.062     8.843
    79   6 C        4.012    -0.016    20.789     6.477
    80   6 C        3.926    -0.066    21.692     6.619
    81   6 C        4.161    -0.028    20.977     6.505
    82   1 H        0.925     0.071     2.078     2.254
    83   1 H        0.926     0.051     2.313     2.378
    84   1 H        0.926     0.067     2.121     2.278
    85   1 H        0.926     0.057     2.236     2.338
    86   1 H        0.926     0.059     2.216     2.328
    87   1 H        0.926     0.057     2.229     2.335
    88   1 H        0.926     0.063     2.164     2.300
    89   1 H        0.924     0.066     2.128     2.281
    90   1 H        0.924     0.054     2.266     2.354
    91   1 H        0.925     0.037     2.486     2.466
    92   1 H        0.925     0.050     2.320     2.382
    93   1 H        0.925     0.059     2.212     2.326
    94   1 H        0.925     0.070     2.088     2.260
    95   1 H        0.925     0.072     2.067     2.248
    96   1 H        0.925     0.070     2.091     2.261
    97   1 H        0.925     0.070     2.089     2.260
    98   1 H        0.925     0.071     2.072     2.251
    99   1 H        0.925     0.069     2.091     2.261
   100   1 H        0.924     0.035     2.514     2.480
   101   1 H        0.924     0.062     2.172     2.305
   102   1 H        0.925     0.057     2.236     2.338
   103   1 H        0.925     0.054     2.267     2.355
   104   1 H        0.925     0.050     2.318     2.381
   105   1 H        0.925     0.083     1.949     2.183
   106   1 H        0.924     0.077     2.008     2.216
   107   1 H        0.925     0.070     2.083     2.257
   108   1 H        0.925     0.050     2.322     2.383
   109   1 H        0.925     0.051     2.314     2.379
   110   1 H        0.925     0.083     1.953     2.185
   111   1 H        0.924     0.077     2.012     2.218
   112   1 H        0.925     0.051     2.310     2.377
   113   1 H        0.925     0.050     2.318     2.381
   114   1 H        0.925     0.069     2.097     2.264
   115   1 H        0.925     0.065     2.137     2.286
   116   1 H        0.926     0.067     2.122     2.278
   117   1 H        0.926     0.053     2.277     2.360
   118   1 H        0.925     0.060     2.204     2.322
   119   1 H        0.925     0.043     2.409     2.427
   120   1 H        0.926     0.029     2.603     2.523
   121   1 H        0.926     0.032     2.554     2.499
   122   1 H        0.925     0.046     2.376     2.410
   123   1 H        0.925     0.049     2.337     2.390
   124   1 H        0.925     0.050     2.322     2.383
   125   1 H        0.925     0.061     2.182     2.310

 Mol. C6AA /au·bohr⁶  :     256103.429732
 Mol. C8AA /au·bohr⁸  :    6960569.425622
 Mol. α(0) /au        :        802.026865


Wiberg/Mayer (AO) data.
largest (>0.10) Wiberg bond orders for each atom

 ---------------------------------------------------------------------------
     #   Z sym  total        # sym  WBO       # sym  WBO       # sym  WBO
 ---------------------------------------------------------------------------
     1   6 C    3.939 --     2 C    1.466    21 C    1.332    82 H    0.931
     2   6 C    3.950 --     1 C    1.466    15 C    1.154     3 C    1.072
     3   6 C    3.910 --     4 O    1.664     2 C    1.072     5 C    1.037
     4   8 O    2.074 --     3 C    1.664    27 S    0.128
     5   6 C    3.966 --     6 C    1.362    14 C    1.274     3 C    1.037
     6   6 C    3.975 --     5 C    1.362     7 C    1.314    15 C    1.084
     7   6 C    3.983 --     8 C    1.528     6 C    1.314    83 H    0.960
     8   6 C    3.971 --     7 C    1.528     9 C    1.286    84 H    0.965
     9   6 C    3.978 --     8 C    1.286    10 C    1.283    14 C    1.227
    10   6 C    3.984 --    11 C    1.552     9 C    1.283    85 H    0.966
                            13 C    0.115
    11   6 C    3.972 --    10 C    1.552    12 C    1.317    86 H    0.968
    12   6 C    3.985 --    13 C    1.553    11 C    1.317    87 H    0.968
    13   6 C    3.975 --    12 C    1.553    14 C    1.280    88 H    0.963
                            10 C    0.115
    14   6 C    3.984 --    13 C    1.280     5 C    1.274     9 C    1.227
    15   6 C    3.962 --    16 C    1.458     2 C    1.154     6 C    1.084
    16   6 C    3.935 --    15 C    1.458    17 C    1.104    19 C    1.103
    17   6 C    3.940 --    18 N    2.731    16 C    1.104
    18   7 N    2.949 --    17 C    2.731
    19   6 C    3.938 --    20 N    2.742    16 C    1.103
    20   7 N    2.951 --    19 C    2.742
    21   6 C    3.931 --     1 C    1.332    22 C    1.322    27 S    1.073
    22   6 C    3.952 --    25 C    1.370    21 C    1.322    23 C    1.019
    23   6 C    3.992 --    22 C    1.019    24 C    0.991    89 H    0.967
                            90 H    0.963
    24   6 C    3.988 --    23 C    0.991    92 H    0.988    91 H    0.987
                            93 H    0.983
    25   6 C    3.927 --    22 C    1.370    26 C    1.283    30 S    1.078
    26   6 C    3.940 --    25 C    1.283    28 C    1.265    27 S    1.152
    27  16 S    2.706 --    26 C    1.152    21 C    1.073     4 O    0.128
    28   6 C    3.940 --    29 C    1.300    26 C    1.265    56 N    1.149
    29   6 C    3.909 --    28 C    1.300    31 C    1.274    30 S    1.113
    30  16 S    2.503 --    29 C    1.113    25 C    1.078
    31   6 C    3.954 --    29 C    1.274    55 C    1.265    32 C    1.175
    32   6 C    3.974 --    33 N    1.329    39 C    1.241    31 C    1.175
    33   7 N    3.047 --    34 C    1.475    32 C    1.329
    34   6 C    3.955 --    33 N    1.475    36 C    1.255    35 C    1.031
    35   6 C    3.990 --    34 C    1.031    95 H    0.982    94 H    0.962
                            96 H    0.962
    36   6 C    3.955 --    38 N    1.476    34 C    1.255    37 C    1.031
    37   6 C    3.990 --    36 C    1.031    98 H    0.982    97 H    0.962
                            99 H    0.962
    38   7 N    3.047 --    36 C    1.476    39 C    1.329
    39   6 C    3.975 --    38 N    1.329    32 C    1.241    40 C    1.175
    40   6 C    3.953 --    54 C    1.271    41 C    1.268    39 C    1.175
    41   6 C    3.913 --    50 C    1.304    40 C    1.268    42 S    1.114
    42  16 S    2.525 --    41 C    1.114    43 C    1.091
    43   6 C    3.927 --    49 C    1.316    44 C    1.311    42 S    1.091
    44   6 C    3.955 --    47 C    1.402    43 C    1.311    45 C    1.015
    45   6 C    3.993 --    44 C    1.015    46 C    0.999   100 H    0.972
                           101 H    0.955
    46   6 C    3.987 --    45 C    0.999   104 H    0.984   103 H    0.980
                           102 H    0.976
    47   6 C    3.926 --    44 C    1.402    59 C    1.252    48 S    1.065
    48  16 S    2.538 --    49 C    1.132    47 C    1.065
    49   6 C    3.933 --    43 C    1.316    50 C    1.259    48 S    1.132
    50   6 C    3.940 --    41 C    1.304    49 C    1.259    51 N    1.151
    51   7 N    3.540 --    54 C    1.167    50 C    1.151    52 C    0.969
    52   6 C    3.952 --    53 C    1.006    51 N    0.969   106 H    0.966
                           105 H    0.963
    53   6 C    3.987 --    52 C    1.006   108 H    0.987   109 H    0.984
                           107 H    0.980
    54   6 C    3.933 --    40 C    1.271    55 C    1.240    51 N    1.167
    55   6 C    3.931 --    31 C    1.265    54 C    1.240    56 N    1.174
    56   7 N    3.545 --    55 C    1.174    28 C    1.149    57 C    0.970
    57   6 C    3.953 --    58 C    1.006    56 N    0.970   111 H    0.965
                           110 H    0.963
    58   6 C    3.987 --    57 C    1.006   113 H    0.987   112 H    0.983
                           114 H    0.980
    59   6 C    3.940 --    60 C    1.525    47 C    1.252   115 H    0.943
    60   6 C    3.956 --    59 C    1.525    69 C    1.149    61 C    1.029
    61   6 C    3.916 --    62 O    1.723    63 C    1.030    60 C    1.029
    62   8 O    2.015 --    61 C    1.723
    63   6 C    3.973 --    64 C    1.382    68 C    1.303    61 C    1.030
    64   6 C    3.980 --    65 C    1.439    63 C    1.382   116 H    0.963
    65   6 C    3.952 --    64 C    1.439    66 C    1.323    81 C    0.998
    66   6 C    3.964 --    67 C    1.449    65 C    1.323    75 C    0.998
    67   6 C    3.978 --    66 C    1.449    68 C    1.364   117 H    0.959
    68   6 C    3.977 --    67 C    1.364    63 C    1.303    69 C    1.093
    69   6 C    3.966 --    70 C    1.456    60 C    1.149    68 C    1.093
    70   6 C    3.945 --    69 C    1.456    73 C    1.106    71 C    1.105
    71   6 C    3.940 --    72 N    2.740    70 C    1.105
    72   7 N    2.948 --    71 C    2.740
    73   6 C    3.939 --    74 N    2.743    70 C    1.106
    74   7 N    2.952 --    73 C    2.743
    75   6 C    3.983 --    66 C    0.998    81 C    0.977   118 H    0.957
                            76 C    0.946
    76   6 C    3.988 --    77 C    1.010    80 C    0.985   119 H    0.972
                            75 C    0.946
    77   6 C    3.987 --    78 C    1.924    76 C    1.010   120 H    0.972
    78   6 C    3.987 --    77 C    1.924    79 C    1.010   121 H    0.971
    79   6 C    3.987 --    78 C    1.010    80 C    0.985   122 H    0.971
                            81 C    0.945
    80   6 C    3.991 --    79 C    0.985    76 C    0.985   124 H    0.977
                           123 H    0.976
    81   6 C    3.982 --    65 C    0.998    75 C    0.977   125 H    0.957
                            79 C    0.945
    82   1 H    0.994 --     1 C    0.931
    83   1 H    0.996 --     7 C    0.960
    84   1 H    0.994 --     8 C    0.965
    85   1 H    0.996 --    10 C    0.966
    86   1 H    0.996 --    11 C    0.968
    87   1 H    0.996 --    12 C    0.968
    88   1 H    0.996 --    13 C    0.963
    89   1 H    0.995 --    23 C    0.967
    90   1 H    0.996 --    23 C    0.963
    91   1 H    0.999 --    24 C    0.987
    92   1 H    0.997 --    24 C    0.988
    93   1 H    0.995 --    24 C    0.983
    94   1 H    0.992 --    35 C    0.962
    95   1 H    0.995 --    35 C    0.982
    96   1 H    0.992 --    35 C    0.962
    97   1 H    0.992 --    37 C    0.962
    98   1 H    0.995 --    37 C    0.982
    99   1 H    0.992 --    37 C    0.962
   100   1 H    0.998 --    45 C    0.972
   101   1 H    0.994 --    45 C    0.955
   102   1 H    0.996 --    46 C    0.976
   103   1 H    0.997 --    46 C    0.980
   104   1 H    0.996 --    46 C    0.984
   105   1 H    0.992 --    52 C    0.963
   106   1 H    0.992 --    52 C    0.966
   107   1 H    0.994 --    53 C    0.980
   108   1 H    0.997 --    53 C    0.987
   109   1 H    0.997 --    53 C    0.984
   110   1 H    0.992 --    57 C    0.963
   111   1 H    0.992 --    57 C    0.965
   112   1 H    0.997 --    58 C    0.983
   113   1 H    0.997 --    58 C    0.987
   114   1 H    0.995 --    58 C    0.980
   115   1 H    0.992 --    59 C    0.943
   116   1 H    0.995 --    64 C    0.963
   117   1 H    0.997 --    67 C    0.959
   118   1 H    0.995 --    75 C    0.957
   119   1 H    0.998 --    76 C    0.972
   120   1 H    0.999 --    77 C    0.972
   121   1 H    0.999 --    78 C    0.971
   122   1 H    0.998 --    79 C    0.971
   123   1 H    0.995 --    80 C    0.976
   124   1 H    0.997 --    80 C    0.977
   125   1 H    0.994 --    81 C    0.957
 ---------------------------------------------------------------------------

Topologies differ in bond orders
Writing corrected topology to xtbtopo.mol

molecular dipole:
                 x           y           z       tot (Debye)
 q only:       -2.759      -0.588      -1.558
   full:       -2.876      -0.610      -1.799       8.762
molecular quadrupole (traceless):
                xx          xy          yy          xz          yz          zz
 q only:       49.368     -84.682    -117.970     -20.695      45.706      68.602
  q+dip:       54.919     -87.895    -129.262     -22.611      48.826      74.343
   full:       50.889     -93.454    -133.913     -20.003      41.926      83.024


           -------------------------------------------------
          | TOTAL ENERGY             -210.390650700794 Eh   |
          | GRADIENT NORM               0.033025398197 Eh/α |
          | HOMO-LUMO GAP               0.622419732435 eV   |
           -------------------------------------------------

------------------------------------------------------------------------
 * finished run on 2022/02/11 at 07:59:36.667     
------------------------------------------------------------------------
 total:
 * wall-time:     0 d,  0 h,  0 min,  0.381 sec
 *  cpu-time:     0 d,  0 h,  0 min,  2.971 sec
 * ratio c/w:     7.788 speedup
 SCF:
 * wall-time:     0 d,  0 h,  0 min,  0.320 sec
 *  cpu-time:     0 d,  0 h,  0 min,  2.552 sec
 * ratio c/w:     7.974 speedup

