      -----------------------------------------------------------      
     |                   =====================                   |     
     |                           x T B                           |     
     |                   =====================                   |     
     |                         S. Grimme                         |     
     |          Mulliken Center for Theoretical Chemistry        |     
     |                    University of Bonn                     |     
      -----------------------------------------------------------      

   * xtb version 6.4.1 (unknown) compiled by 'oda6@login1.crc.pitt.edu' on 2021-06-25

   xtb is free software: you can redistribute it and/or modify it under
   the terms of the GNU Lesser General Public License as published by
   the Free Software Foundation, either version 3 of the License, or
   (at your option) any later version.
   
   xtb is distributed in the hope that it will be useful,
   but WITHOUT ANY WARRANTY; without even the implied warranty of
   MERCHANTABILITY or FITNESS FOR A PARTICULAR PURPOSE.  See the
   GNU Lesser General Public License for more details.
   
   Cite this work as:
   * C. Bannwarth, E. Caldeweyher, S. Ehlert, A. Hansen, P. Pracht,
     J. Seibert, S. Spicher, S. Grimme, WIREs Comput. Mol. Sci., 2020, 11,
     e01493. DOI: 10.1002/wcms.1493
   
   for GFN2-xTB:
   * C. Bannwarth, S. Ehlert and S. Grimme., J. Chem. Theory Comput., 2019,
     15, 1652-1671. DOI: 10.1021/acs.jctc.8b01176
   for GFN1-xTB:
   * S. Grimme, C. Bannwarth, P. Shushkov, J. Chem. Theory Comput., 2017,
     13, 1989-2009. DOI: 10.1021/acs.jctc.7b00118
   for GFN0-xTB:
   * P. Pracht, E. Caldeweyher, S. Ehlert, S. Grimme, ChemRxiv, 2019, preprint.
     DOI: 10.26434/chemrxiv.8326202.v1
   for GFN-FF:
   * S. Spicher and S. Grimme, Angew. Chem. Int. Ed., 2020, 59, 15665-15673.
     DOI: 10.1002/anie.202004239
   
   for DFT-D4:
   * E. Caldeweyher, C. Bannwarth and S. Grimme, J. Chem. Phys., 2017,
     147, 034112. DOI: 10.1063/1.4993215
   * E. Caldeweyher, S. Ehlert, A. Hansen, H. Neugebauer, S. Spicher,
     C. Bannwarth and S. Grimme, J. Chem. Phys., 2019, 150, 154122.
     DOI: 10.1063/1.5090222
   * E. Caldeweyher, J.-M. Mewes, S. Ehlert and S. Grimme, Phys. Chem. Chem. Phys.
     2020, 22, 8499-8512. DOI: 10.1039/D0CP00502A
   
   for sTDA-xTB:
   * S. Grimme and C. Bannwarth, J. Chem. Phys., 2016, 145, 054103.
     DOI: 10.1063/1.4959605
   
   in the mass-spec context:
   * V. Asgeirsson, C. Bauer and S. Grimme, Chem. Sci., 2017, 8, 4879.
     DOI: 10.1039/c7sc00601b
   * J. Koopman and S. Grimme, ACS Omega 2019, 4, 12, 15120-15133.
     DOI: 10.1021/acsomega.9b02011
   
   for metadynamics refer to:
   * S. Grimme, J. Chem. Theory Comput., 2019, 155, 2847-2862
     DOI: 10.1021/acs.jctc.9b00143
   
   for SPH calculations refer to:
   * S. Spicher and S. Grimme, J. Chem. Theory Comput., 2021, 17, 1701-1714
     DOI: 10.1021/acs.jctc.0c01306
   
   with help from (in alphabetical order)
   P. Atkinson, C. Bannwarth, F. Bohle, G. Brandenburg, E. Caldeweyher
   M. Checinski, S. Dohm, S. Ehlert, S. Ehrlich, I. Gerasimov, J. Koopman
   C. Lavigne, S. Lehtola, F. März, M. Müller, F. Musil, H. Neugebauer
   J. Pisarek, C. Plett, P. Pracht, J. Seibert, P. Shushkov, S. Spicher
   M. Stahn, M. Steiner, T. Strunk, J. Stückrath, T. Rose, and J. Unsleber
   
 * started run on 2022/02/11 at 03:41:16.846     

           -------------------------------------------------
          |                Calculation Setup                |
           -------------------------------------------------

          program call               : /ihome/ghutchison/oda6/xtb/xtb-641/bin/xtb ../../GFN2_output/13_100_0.mol --sp --alpb water
          hostname                   : smp-n28
          coordinate file            : ../../GFN2_output/13_100_0.mol
          omp threads                :                     8
          number of atoms            :                   105
          number of electrons        :                   348
          charge                     :                     0
          spin                       :                   0.0
          first test random number   :      0.95620569646241

   ID    Z sym.   atoms
    1    7 N      1, 24, 26, 44, 47, 70, 72
    2    6 C      2-6, 8-18, 20-23, 27, 28, 30-40, 42, 43, 45, 46, 48, 49,
                  51-57, 59-61, 63, 65-69, 71
    3   16 S      7, 19, 25, 29, 41, 50
    4    8 O      58
    5    9 F      62, 64
    6    1 H      73-105

           -------------------------------------------------
          |                 G F N 2 - x T B                 |
           -------------------------------------------------

        Reference                      10.1021/acs.jctc.8b01176
      * Hamiltonian:
        H0-scaling (s, p, d)           1.850000    2.230000    2.230000
        zeta-weighting                 0.500000
      * Dispersion:
        s8                             2.700000
        a1                             0.520000
        a2                             5.000000
        s9                             5.000000
      * Repulsion:
        kExp                           1.500000    1.000000
        rExp                           1.000000
      * Coulomb:
        alpha                          2.000000
        third order                    shell-resolved
        anisotropic                    true
        a3                             3.000000
        a5                             4.000000
        cn-shift                       1.200000
        cn-exp                         4.000000
        max-rad                        5.000000

      * Solvation model:               ALPB
        Solvent                        water
        Parameter file                 internal GFN2-xTB/ALPB
        Dielectric constant                8.0200E+01
        Reference state                gsolv [1 M gas/solution]
        Free energy shift                  1.0808E-03 Eh       6.7819E-01 kcal/mol
        Temperature                        2.9815E+02 K
        Density                            1.0000E+00 kg/L
        Solvent mass                       1.8000E+01 g/mol
        Interaction kernel             P16
        Born radius scaling (c1)           1.4744E+00
        Born radii integrator          GBOBC
        Born offset                        0.0000E+00 a0       0.0000E+00 AA
        H-bond correction              true
        Ion screening                  false
        Surface tension                    1.0000E-05 Eh       1.5569E+01 dyn/cm
        Grid points                               230 per atom

          ...................................................
          :                      SETUP                      :
          :.................................................:
          :  # basis functions                 357          :
          :  # atomic orbitals                 351          :
          :  # shells                          183          :
          :  # electrons                       348          :
          :  max. iterations                   250          :
          :  Hamiltonian                  GFN2-xTB          :
          :  restarted?                      false          :
          :  GBSA solvation                   true          :
          :  PC potential                    false          :
          :  electronic temp.          300.0000000     K    :
          :  accuracy                    1.0000000          :
          :  -> integral cutoff          0.2500000E+02      :
          :  -> integral neglect         0.1000000E-07      :
          :  -> SCF convergence          0.1000000E-05 Eh   :
          :  -> wf. convergence          0.1000000E-03 e    :
          :  Broyden damping             0.4000000          :
          ...................................................

 iter      E             dE          RMSdq      gap      omega  full diag
   1   -192.9356640 -0.192936E+03  0.447E+00    0.95       0.0  T
   2   -193.1088181 -0.173154E+00  0.269E+00    0.84       1.0  T
   3   -193.0667703  0.420478E-01  0.140E+00    0.86       1.0  T
   4   -193.1641032 -0.973329E-01  0.464E-01    0.87       1.0  T
   5   -193.1768636 -0.127603E-01  0.164E-01    0.80       1.0  T
   6   -193.1778753 -0.101177E-02  0.819E-02    0.85       1.0  T
   7   -193.1781274 -0.252081E-03  0.321E-02    0.83       1.0  T
   8   -193.1781534 -0.259667E-04  0.151E-02    0.84       1.0  T
   9   -193.1781604 -0.704540E-05  0.776E-03    0.84       1.3  T
  10   -193.1781616 -0.119885E-05  0.393E-03    0.84       2.5  T
  11   -193.1781621 -0.449263E-06  0.211E-03    0.84       4.6  T
  12   -193.1781622 -0.845793E-07  0.104E-03    0.84       9.4  T
  13   -193.1781622 -0.224676E-07  0.405E-04    0.84      24.1  T
  14   -193.1781622 -0.554672E-08  0.197E-04    0.84      49.5  T

   *** convergence criteria satisfied after 14 iterations ***

         #    Occupation            Energy/Eh            Energy/eV
      -------------------------------------------------------------
         1        2.0000           -0.8575395             -23.3348
       ...           ...                  ...                  ...
       168        2.0000           -0.4050060             -11.0208
       169        2.0000           -0.4004860             -10.8978
       170        2.0000           -0.3997386             -10.8774
       171        2.0000           -0.3887412             -10.5782
       172        2.0000           -0.3870908             -10.5333
       173        2.0000           -0.3787635             -10.3067
       174        2.0000           -0.3695531             -10.0561 (HOMO)
       175        0.0000           -0.3387946              -9.2191 (LUMO)
       176                         -0.3274513              -8.9104
       177                         -0.3071236              -8.3573
       178                         -0.2998184              -8.1585
       179                         -0.2825435              -7.6884
       ...                                ...                  ...
       351                          1.1761600              32.0049
      -------------------------------------------------------------
                  HL-Gap            0.0307584 Eh            0.8370 eV
             Fermi-level           -0.3541738 Eh           -9.6376 eV

 SCC (total)                   0 d,  0 h,  0 min,  0.266 sec
 SCC setup                      ...        0 min,  0.002 sec (  0.853%)
 Dispersion                     ...        0 min,  0.004 sec (  1.544%)
 classical contributions        ...        0 min,  0.000 sec (  0.056%)
 integral evaluation            ...        0 min,  0.014 sec (  5.242%)
 iterations                     ...        0 min,  0.209 sec ( 78.468%)
 molecular gradient             ...        0 min,  0.036 sec ( 13.434%)
 printout                       ...        0 min,  0.001 sec (  0.371%)

         :::::::::::::::::::::::::::::::::::::::::::::::::::::
         ::                     SUMMARY                     ::
         :::::::::::::::::::::::::::::::::::::::::::::::::::::
         :: total energy            -190.235252262653 Eh    ::
         :: total w/o Gsasa/hb      -190.221565678186 Eh    ::
         :: gradient norm              0.033864917151 Eh/a0 ::
         :: HOMO-LUMO gap              0.836979339881 eV    ::
         ::.................................................::
         :: SCC energy              -193.178162199051 Eh    ::
         :: -> isotropic ES            0.132259945106 Eh    ::
         :: -> anisotropic ES          0.010508648587 Eh    ::
         :: -> anisotropic XC          0.107953344483 Eh    ::
         :: -> dispersion             -0.177388751325 Eh    ::
         :: -> Gsolv                  -0.043856813435 Eh    ::
         ::    -> Gelec               -0.030170228968 Eh    ::
         ::    -> Gsasa               -0.009510732635 Eh    ::
         ::    -> Ghb                 -0.005256611530 Eh    ::
         ::    -> Gshift               0.001080759698 Eh    ::
         :: repulsion energy           2.941394408862 Eh    ::
         :: add. restraining           0.000000000000 Eh    ::
         :: total charge               0.000000000010 e     ::
         :::::::::::::::::::::::::::::::::::::::::::::::::::::

           -------------------------------------------------
          |                Property Printout                |
           -------------------------------------------------

    * Orbital Energies and Occupations

         #    Occupation            Energy/Eh            Energy/eV
      -------------------------------------------------------------
         1        2.0000           -0.8575395             -23.3348
       ...           ...                  ...                  ...
       162        2.0000           -0.4189347             -11.3998
       163        2.0000           -0.4179137             -11.3720
       164        2.0000           -0.4168665             -11.3435
       165        2.0000           -0.4104848             -11.1699
       166        2.0000           -0.4092535             -11.1364
       167        2.0000           -0.4064354             -11.0597
       168        2.0000           -0.4050060             -11.0208
       169        2.0000           -0.4004860             -10.8978
       170        2.0000           -0.3997386             -10.8774
       171        2.0000           -0.3887412             -10.5782
       172        2.0000           -0.3870908             -10.5333
       173        2.0000           -0.3787635             -10.3067
       174        2.0000           -0.3695531             -10.0561 (HOMO)
       175        0.0000           -0.3387946              -9.2191 (LUMO)
       176                         -0.3274513              -8.9104
       177                         -0.3071236              -8.3573
       178                         -0.2998184              -8.1585
       179                         -0.2825435              -7.6884
       180                         -0.2651697              -7.2156
       181                         -0.2578484              -7.0164
       182                         -0.2521783              -6.8621
       183                         -0.2486341              -6.7657
       184                         -0.2426869              -6.6038
       185                         -0.2420856              -6.5875
       ...                                ...                  ...
       351                          1.1761600              32.0049
      -------------------------------------------------------------
                  HL-Gap            0.0307584 Eh            0.8370 eV
             Fermi-level           -0.3541738 Eh           -9.6376 eV

     #   Z          covCN         q      C6AA      α(0)
     1   7 N        0.911    -0.292    27.527     7.588
     2   6 C        1.942     0.119    28.159     8.570
     3   6 C        2.988     0.018    27.598     8.617
     4   6 C        3.093    -0.032    28.681     8.778
     5   6 C        3.093    -0.051    29.138     8.847
     6   6 C        3.027     0.031    27.276     8.567
     7  16 S        2.389     0.013   140.533    19.952
     8   6 C        3.037     0.010    27.759     8.642
     9   6 C        3.108    -0.002    27.940     8.660
    10   6 C        2.979     0.004    27.927     8.669
    11   6 C        2.926    -0.036    28.902     8.816
    12   6 C        2.919    -0.037    28.922     8.819
    13   6 C        2.918    -0.035    28.880     8.813
    14   6 C        2.926    -0.041    29.021     8.835
    15   6 C        2.972     0.011    27.767     8.644
    16   6 C        3.806    -0.061    21.670     6.627
    17   6 C        3.754    -0.103    22.531     6.769
    18   6 C        3.202     0.013    27.148     8.489
    19  16 S        2.176    -0.052   143.229    20.143
    20   6 C        3.107     0.002    27.833     8.644
    21   6 C        3.074    -0.037    28.840     8.805
    22   6 C        3.337     0.069    24.108     7.774
    23   6 C        3.337     0.069    24.100     7.771
    24   7 N        1.853    -0.298    28.576     7.923
    25  16 S        2.681     0.308   129.120    19.125
    26   7 N        1.853    -0.299    28.596     7.926
    27   6 C        3.073    -0.038    28.867     8.809
    28   6 C        3.106     0.009    27.678     8.620
    29  16 S        2.176    -0.023   141.994    20.056
    30   6 C        3.178     0.015    27.267     8.526
    31   6 C        3.107     0.017    27.490     8.591
    32   6 C        2.980     0.004    27.920     8.668
    33   6 C        2.970     0.017    27.636     8.623
    34   6 C        3.806    -0.066    21.758     6.640
    35   6 C        3.753    -0.104    22.554     6.772
    36   6 C        2.926    -0.040    28.992     8.830
    37   6 C        2.918    -0.032    28.797     8.800
    38   6 C        2.919    -0.035    28.876     8.812
    39   6 C        2.927    -0.033    28.814     8.803
    40   6 C        2.995     0.019    27.577     8.614
    41  16 S        2.236    -0.034   142.449    20.088
    42   6 C        3.120     0.021    27.374     8.569
    43   6 C        3.250     0.034    26.219     8.289
    44   7 N        2.791    -0.026    21.741     6.925
    45   6 C        3.099     0.038    27.029     8.520
    46   6 C        3.099     0.031    27.191     8.545
    47   7 N        2.792    -0.027    21.759     6.928
    48   6 C        3.252     0.034    26.210     8.285
    49   6 C        3.117     0.006    27.717     8.623
    50  16 S        2.310    -0.027   142.164    20.068
    51   6 C        3.742    -0.012    20.867     6.517
    52   6 C        3.752    -0.125    22.955     6.832
    53   6 C        3.741    -0.012    20.866     6.517
    54   6 C        3.752    -0.127    22.998     6.839
    55   6 C        2.926    -0.007    28.186     8.706
    56   6 C        3.013    -0.040    28.985     8.831
    57   6 C        2.871     0.237    23.063     7.872
    58   8 O        0.856    -0.414    21.954     6.282
    59   6 C        3.048    -0.016    28.357     8.734
    60   6 C        2.912    -0.039    28.961     8.825
    61   6 C        2.782     0.168    24.364     8.085
    62   9 F        0.787    -0.218    11.421     3.992
    63   6 C        2.782     0.170    24.320     8.078
    64   9 F        0.787    -0.216    11.401     3.988
    65   6 C        2.913    -0.045    29.117     8.848
    66   6 C        3.038     0.014    27.672     8.628
    67   6 C        3.024     0.043    27.021     8.527
    68   6 C        2.948     0.008    27.834     8.653
    69   6 C        1.927     0.132    27.854     8.523
    70   7 N        0.911    -0.273    27.047     7.522
    71   6 C        1.932     0.135    27.782     8.512
    72   7 N        0.911    -0.280    27.228     7.547
    73   1 H        0.926     0.065     2.144     2.290
    74   1 H        0.926     0.061     2.186     2.312
    75   1 H        0.926     0.036     2.502     2.473
    76   1 H        0.926     0.041     2.431     2.438
    77   1 H        0.926     0.042     2.425     2.435
    78   1 H        0.926     0.043     2.410     2.428
    79   1 H        0.924     0.045     2.386     2.416
    80   1 H        0.924     0.036     2.503     2.474
    81   1 H        0.925     0.045     2.378     2.411
    82   1 H        0.925     0.041     2.437     2.441
    83   1 H        0.925     0.033     2.546     2.495
    84   1 H        0.924     0.048     2.344     2.394
    85   1 H        0.924     0.050     2.314     2.379
    86   1 H        0.925     0.049     2.337     2.391
    87   1 H        0.925     0.041     2.440     2.443
    88   1 H        0.925     0.030     2.583     2.513
    89   1 H        0.926     0.050     2.317     2.380
    90   1 H        0.926     0.048     2.342     2.393
    91   1 H        0.926     0.045     2.387     2.416
    92   1 H        0.926     0.035     2.511     2.478
    93   1 H        0.924     0.081     1.964     2.192
    94   1 H        0.925     0.082     1.955     2.186
    95   1 H        0.925     0.053     2.277     2.360
    96   1 H        0.925     0.049     2.337     2.391
    97   1 H        0.925     0.071     2.072     2.251
    98   1 H        0.924     0.077     2.011     2.218
    99   1 H        0.925     0.087     1.910     2.162
   100   1 H        0.925     0.053     2.285     2.364
   101   1 H        0.925     0.073     2.048     2.238
   102   1 H        0.925     0.053     2.280     2.361
   103   1 H        0.925     0.083     1.946     2.182
   104   1 H        0.926     0.113     1.668     2.020
   105   1 H        0.926     0.103     1.756     2.072

 Mol. C6AA /au·bohr⁶  :     208283.223715
 Mol. C8AA /au·bohr⁸  :    5947454.672737
 Mol. α(0) /au        :        729.069223


Wiberg/Mayer (AO) data.
largest (>0.10) Wiberg bond orders for each atom

 ---------------------------------------------------------------------------
     #   Z sym  total        # sym  WBO       # sym  WBO       # sym  WBO
 ---------------------------------------------------------------------------
     1   7 N    2.968 --     2 C    2.737
     2   6 C    3.946 --     1 N    2.737     3 C    1.159
     3   6 C    3.923 --     4 C    1.456     2 C    1.159     7 S    1.113
     4   6 C    3.986 --     3 C    1.456     5 C    1.359    73 H    0.962
     5   6 C    3.969 --     6 C    1.451     4 C    1.359    74 H    0.956
     6   6 C    3.953 --     5 C    1.451     8 C    1.172     7 S    1.157
     7  16 S    2.616 --     6 C    1.157     3 C    1.113
     8   6 C    3.922 --     9 C    1.444     6 C    1.172    50 S    1.094
     9   6 C    3.972 --     8 C    1.444    18 C    1.267    10 C    1.013
    10   6 C    3.986 --    11 C    1.401    15 C    1.366     9 C    1.013
                            13 C    0.107
    11   6 C    3.988 --    12 C    1.442    10 C    1.401    75 H    0.970
                            14 C    0.108
    12   6 C    3.990 --    11 C    1.442    13 C    1.435    76 H    0.970
                            15 C    0.107
    13   6 C    3.989 --    14 C    1.442    12 C    1.435    77 H    0.970
                            10 C    0.107
    14   6 C    3.990 --    13 C    1.442    15 C    1.417    78 H    0.967
                            11 C    0.108
    15   6 C    3.986 --    14 C    1.417    10 C    1.366    16 C    1.014
                            12 C    0.107
    16   6 C    3.996 --    15 C    1.014    17 C    1.000    79 H    0.974
                            80 H    0.969
    17   6 C    3.995 --    16 C    1.000    82 H    0.988    83 H    0.986
                            81 H    0.985
    18   6 C    3.925 --    49 C    1.346     9 C    1.267    19 S    1.092
    19  16 S    2.509 --    20 C    1.111    18 C    1.092
    20   6 C    3.921 --    48 C    1.313    21 C    1.264    19 S    1.111
    21   6 C    3.954 --    46 C    1.275    20 C    1.264    22 C    1.174
    22   6 C    3.970 --    26 N    1.425    21 C    1.174    23 C    1.159
                            25 S    0.106
    23   6 C    3.970 --    24 N    1.426    27 C    1.173    22 C    1.159
                            25 S    0.106
    24   7 N    3.060 --    23 C    1.426    25 S    1.381    26 N    0.144
    25  16 S    3.089 --    26 N    1.382    24 N    1.381    22 C    0.106
                            23 C    0.106
    26   7 N    3.061 --    22 C    1.425    25 S    1.382    24 N    0.144
    27   6 C    3.955 --    28 C    1.274    45 C    1.265    23 C    1.173
    28   6 C    3.913 --    43 C    1.288    27 C    1.274    29 S    1.121
    29  16 S    2.525 --    28 C    1.121    30 C    1.086
    30   6 C    3.928 --    31 C    1.326    42 C    1.297    29 S    1.086
    31   6 C    3.961 --    40 C    1.339    30 C    1.326    32 C    1.035
    32   6 C    3.983 --    39 C    1.383    33 C    1.360    31 C    1.035
                            37 C    0.102
    33   6 C    3.980 --    36 C    1.417    32 C    1.360    34 C    1.014
                            38 C    0.105
    34   6 C    3.995 --    33 C    1.014    35 C    1.000    85 H    0.974
                            84 H    0.963
    35   6 C    3.995 --    34 C    1.000    87 H    0.988    88 H    0.986
                            86 H    0.985
    36   6 C    3.989 --    37 C    1.442    33 C    1.417    89 H    0.966
                            39 C    0.107
    37   6 C    3.983 --    36 C    1.442    38 C    1.431    90 H    0.970
                            32 C    0.102
    38   6 C    3.989 --    39 C    1.448    37 C    1.431    91 H    0.969
                            33 C    0.105
    39   6 C    3.986 --    38 C    1.448    32 C    1.383    92 H    0.969
                            36 C    0.107
    40   6 C    3.926 --    31 C    1.339    55 C    1.303    41 S    1.066
    41  16 S    2.548 --    42 C    1.129    40 C    1.066
    42   6 C    3.933 --    30 C    1.297    43 C    1.275    41 S    1.129
    43   6 C    3.942 --    28 C    1.288    42 C    1.275    44 N    1.151
    44   7 N    3.548 --    45 C    1.180    43 C    1.151    53 C    0.967
    45   6 C    3.930 --    27 C    1.265    46 C    1.228    44 N    1.180
    46   6 C    3.941 --    21 C    1.275    45 C    1.228    47 N    1.170
    47   7 N    3.547 --    46 C    1.170    48 C    1.160    51 C    0.968
    48   6 C    3.938 --    20 C    1.313    49 C    1.239    47 N    1.160
    49   6 C    3.932 --    18 C    1.346    48 C    1.239    50 S    1.122
    50  16 S    2.555 --    49 C    1.122     8 C    1.094
    51   6 C    3.950 --    52 C    1.005    47 N    0.968    93 H    0.964
                            94 H    0.964
    52   6 C    3.986 --    51 C    1.005    96 H    0.987    95 H    0.983
                            97 H    0.980
    53   6 C    3.949 --    54 C    1.005    44 N    0.967    98 H    0.965
                            99 H    0.963
    54   6 C    3.985 --    53 C    1.005   102 H    0.986   100 H    0.983
                           101 H    0.979
    55   6 C    3.935 --    56 C    1.479    40 C    1.303   103 H    0.942
    56   6 C    3.950 --    55 C    1.479    67 C    1.161    57 C    1.041
    57   6 C    3.914 --    58 O    1.739    56 C    1.041    59 C    1.008
    58   8 O    2.013 --    57 C    1.739
    59   6 C    3.974 --    60 C    1.422    66 C    1.300    57 C    1.008
    60   6 C    3.971 --    59 C    1.422    61 C    1.383   104 H    0.955
    61   6 C    3.868 --    60 C    1.383    63 C    1.342    62 F    0.966
    62   9 F    1.096 --    61 C    0.966
    63   6 C    3.875 --    65 C    1.387    61 C    1.342    64 F    0.968
    64   9 F    1.100 --    63 C    0.968
    65   6 C    3.967 --    66 C    1.407    63 C    1.387   105 H    0.954
    66   6 C    3.982 --    65 C    1.407    59 C    1.300    67 C    1.072
    67   6 C    3.965 --    68 C    1.456    56 C    1.161    66 C    1.072
    68   6 C    3.961 --    67 C    1.456    69 C    1.108    71 C    1.102
    69   6 C    3.943 --    70 N    2.753    68 C    1.108
    70   7 N    2.956 --    69 C    2.753
    71   6 C    3.944 --    72 N    2.752    68 C    1.102
    72   7 N    2.966 --    71 C    2.752
    73   1 H    0.995 --     4 C    0.962
    74   1 H    0.995 --     5 C    0.956
    75   1 H    0.998 --    11 C    0.970
    76   1 H    0.997 --    12 C    0.970
    77   1 H    0.997 --    13 C    0.970
    78   1 H    0.997 --    14 C    0.967
    79   1 H    0.997 --    16 C    0.974
    80   1 H    0.998 --    16 C    0.969
    81   1 H    0.997 --    17 C    0.985
    82   1 H    0.998 --    17 C    0.988
    83   1 H    0.999 --    17 C    0.986
    84   1 H    0.997 --    34 C    0.963
    85   1 H    0.997 --    34 C    0.974
    86   1 H    0.997 --    35 C    0.985
    87   1 H    0.998 --    35 C    0.988
    88   1 H    0.999 --    35 C    0.986
    89   1 H    0.996 --    36 C    0.966
    90   1 H    0.997 --    37 C    0.970
    91   1 H    0.996 --    38 C    0.969
    92   1 H    0.998 --    39 C    0.969
    93   1 H    0.991 --    51 C    0.964
    94   1 H    0.992 --    51 C    0.964
    95   1 H    0.997 --    52 C    0.983
    96   1 H    0.998 --    52 C    0.987
    97   1 H    0.994 --    52 C    0.980
    98   1 H    0.992 --    53 C    0.965
    99   1 H    0.992 --    53 C    0.963
   100   1 H    0.997 --    54 C    0.983
   101   1 H    0.994 --    54 C    0.979
   102   1 H    0.997 --    54 C    0.986
   103   1 H    0.991 --    55 C    0.942
   104   1 H    0.986 --    60 C    0.955
   105   1 H    0.989 --    65 C    0.954
 ---------------------------------------------------------------------------

Topologies differ in bond orders
Writing corrected topology to xtbtopo.mol

molecular dipole:
                 x           y           z       tot (Debye)
 q only:        0.672       1.197       3.553
   full:        0.280       1.295       3.683       9.949
molecular quadrupole (traceless):
                xx          xy          yy          xz          yz          zz
 q only:      -22.950       2.165      20.109     -18.734     -45.548       2.842
  q+dip:      -20.548      19.559      16.066       2.350     -47.332       4.483
   full:      -23.245      22.427      16.646       3.025     -53.047       6.599


           -------------------------------------------------
          | TOTAL ENERGY             -190.235252262653 Eh   |
          | GRADIENT NORM               0.033864917151 Eh/α |
          | HOMO-LUMO GAP               0.836979339881 eV   |
           -------------------------------------------------

------------------------------------------------------------------------
 * finished run on 2022/02/11 at 03:41:17.174     
------------------------------------------------------------------------
 total:
 * wall-time:     0 d,  0 h,  0 min,  0.329 sec
 *  cpu-time:     0 d,  0 h,  0 min,  2.528 sec
 * ratio c/w:     7.695 speedup
 SCF:
 * wall-time:     0 d,  0 h,  0 min,  0.268 sec
 *  cpu-time:     0 d,  0 h,  0 min,  2.139 sec
 * ratio c/w:     7.971 speedup

