      -----------------------------------------------------------      
     |                   =====================                   |     
     |                           x T B                           |     
     |                   =====================                   |     
     |                         S. Grimme                         |     
     |          Mulliken Center for Theoretical Chemistry        |     
     |                    University of Bonn                     |     
      -----------------------------------------------------------      

   * xtb version 6.4.1 (unknown) compiled by 'oda6@login1.crc.pitt.edu' on 2021-06-25

   xtb is free software: you can redistribute it and/or modify it under
   the terms of the GNU Lesser General Public License as published by
   the Free Software Foundation, either version 3 of the License, or
   (at your option) any later version.
   
   xtb is distributed in the hope that it will be useful,
   but WITHOUT ANY WARRANTY; without even the implied warranty of
   MERCHANTABILITY or FITNESS FOR A PARTICULAR PURPOSE.  See the
   GNU Lesser General Public License for more details.
   
   Cite this work as:
   * C. Bannwarth, E. Caldeweyher, S. Ehlert, A. Hansen, P. Pracht,
     J. Seibert, S. Spicher, S. Grimme, WIREs Comput. Mol. Sci., 2020, 11,
     e01493. DOI: 10.1002/wcms.1493
   
   for GFN2-xTB:
   * C. Bannwarth, S. Ehlert and S. Grimme., J. Chem. Theory Comput., 2019,
     15, 1652-1671. DOI: 10.1021/acs.jctc.8b01176
   for GFN1-xTB:
   * S. Grimme, C. Bannwarth, P. Shushkov, J. Chem. Theory Comput., 2017,
     13, 1989-2009. DOI: 10.1021/acs.jctc.7b00118
   for GFN0-xTB:
   * P. Pracht, E. Caldeweyher, S. Ehlert, S. Grimme, ChemRxiv, 2019, preprint.
     DOI: 10.26434/chemrxiv.8326202.v1
   for GFN-FF:
   * S. Spicher and S. Grimme, Angew. Chem. Int. Ed., 2020, 59, 15665-15673.
     DOI: 10.1002/anie.202004239
   
   for DFT-D4:
   * E. Caldeweyher, C. Bannwarth and S. Grimme, J. Chem. Phys., 2017,
     147, 034112. DOI: 10.1063/1.4993215
   * E. Caldeweyher, S. Ehlert, A. Hansen, H. Neugebauer, S. Spicher,
     C. Bannwarth and S. Grimme, J. Chem. Phys., 2019, 150, 154122.
     DOI: 10.1063/1.5090222
   * E. Caldeweyher, J.-M. Mewes, S. Ehlert and S. Grimme, Phys. Chem. Chem. Phys.
     2020, 22, 8499-8512. DOI: 10.1039/D0CP00502A
   
   for sTDA-xTB:
   * S. Grimme and C. Bannwarth, J. Chem. Phys., 2016, 145, 054103.
     DOI: 10.1063/1.4959605
   
   in the mass-spec context:
   * V. Asgeirsson, C. Bauer and S. Grimme, Chem. Sci., 2017, 8, 4879.
     DOI: 10.1039/c7sc00601b
   * J. Koopman and S. Grimme, ACS Omega 2019, 4, 12, 15120-15133.
     DOI: 10.1021/acsomega.9b02011
   
   for metadynamics refer to:
   * S. Grimme, J. Chem. Theory Comput., 2019, 155, 2847-2862
     DOI: 10.1021/acs.jctc.9b00143
   
   for SPH calculations refer to:
   * S. Spicher and S. Grimme, J. Chem. Theory Comput., 2021, 17, 1701-1714
     DOI: 10.1021/acs.jctc.0c01306
   
   with help from (in alphabetical order)
   P. Atkinson, C. Bannwarth, F. Bohle, G. Brandenburg, E. Caldeweyher
   M. Checinski, S. Dohm, S. Ehlert, S. Ehrlich, I. Gerasimov, J. Koopman
   C. Lavigne, S. Lehtola, F. März, M. Müller, F. Musil, H. Neugebauer
   J. Pisarek, C. Plett, P. Pracht, J. Seibert, P. Shushkov, S. Spicher
   M. Stahn, M. Steiner, T. Strunk, J. Stückrath, T. Rose, and J. Unsleber
   
 * started run on 2022/02/11 at 03:51:11.085     

           -------------------------------------------------
          |                Calculation Setup                |
           -------------------------------------------------

          program call               : /ihome/ghutchison/oda6/xtb/xtb-641/bin/xtb ../../GFN2_output/15_126_0.mol --sp --alpb water
          hostname                   : smp-n28
          coordinate file            : ../../GFN2_output/15_126_0.mol
          omp threads                :                     8
          number of atoms            :                    88
          number of electrons        :                   314
          charge                     :                     0
          spin                       :                   0.0
          first test random number   :      0.38876261890159

   ID    Z sym.   atoms
    1    6 C      1-3, 5-14, 16, 18-20, 22-25, 29-31, 33-36, 38, 39, 41-44,
                  46, 47, 49-51, 53-55, 57, 59-63, 65
    2    8 O      4, 52
    3    7 N      15, 17, 26, 28, 32, 37, 64, 66
    4   16 S      21, 27, 45
    5   34 Se     40, 48
    6    9 F      56, 58
    7    1 H      67-88

           -------------------------------------------------
          |                 G F N 2 - x T B                 |
           -------------------------------------------------

        Reference                      10.1021/acs.jctc.8b01176
      * Hamiltonian:
        H0-scaling (s, p, d)           1.850000    2.230000    2.230000
        zeta-weighting                 0.500000
      * Dispersion:
        s8                             2.700000
        a1                             0.520000
        a2                             5.000000
        s9                             5.000000
      * Repulsion:
        kExp                           1.500000    1.000000
        rExp                           1.000000
      * Coulomb:
        alpha                          2.000000
        third order                    shell-resolved
        anisotropic                    true
        a3                             3.000000
        a5                             4.000000
        cn-shift                       1.200000
        cn-exp                         4.000000
        max-rad                        5.000000

      * Solvation model:               ALPB
        Solvent                        water
        Parameter file                 internal GFN2-xTB/ALPB
        Dielectric constant                8.0200E+01
        Reference state                gsolv [1 M gas/solution]
        Free energy shift                  1.0808E-03 Eh       6.7819E-01 kcal/mol
        Temperature                        2.9815E+02 K
        Density                            1.0000E+00 kg/L
        Solvent mass                       1.8000E+01 g/mol
        Interaction kernel             P16
        Born radius scaling (c1)           1.4744E+00
        Born radii integrator          GBOBC
        Born offset                        0.0000E+00 a0       0.0000E+00 AA
        H-bond correction              true
        Ion screening                  false
        Surface tension                    1.0000E-05 Eh       1.5569E+01 dyn/cm
        Grid points                               230 per atom

          ...................................................
          :                      SETUP                      :
          :.................................................:
          :  # basis functions                 316          :
          :  # atomic orbitals                 311          :
          :  # shells                          159          :
          :  # electrons                       314          :
          :  max. iterations                   250          :
          :  Hamiltonian                  GFN2-xTB          :
          :  restarted?                      false          :
          :  GBSA solvation                   true          :
          :  PC potential                    false          :
          :  electronic temp.          300.0000000     K    :
          :  accuracy                    1.0000000          :
          :  -> integral cutoff          0.2500000E+02      :
          :  -> integral neglect         0.1000000E-07      :
          :  -> SCF convergence          0.1000000E-05 Eh   :
          :  -> wf. convergence          0.1000000E-03 e    :
          :  Broyden damping             0.4000000          :
          ...................................................

 iter      E             dE          RMSdq      gap      omega  full diag
   1   -175.5189303 -0.175519E+03  0.493E+00    1.04       0.0  T
   2   -175.7146527 -0.195722E+00  0.302E+00    0.94       1.0  T
   3   -175.6842506  0.304021E-01  0.160E+00    0.90       1.0  T
   4   -175.7861565 -0.101906E+00  0.553E-01    0.93       1.0  T
   5   -175.8009183 -0.147617E-01  0.195E-01    0.86       1.0  T
   6   -175.8019527 -0.103440E-02  0.105E-01    0.90       1.0  T
   7   -175.8022405 -0.287860E-03  0.464E-02    0.89       1.0  T
   8   -175.8022689 -0.284254E-04  0.264E-02    0.89       1.0  T
   9   -175.8022758 -0.687657E-05  0.175E-02    0.89       1.0  T
  10   -175.8022795 -0.366242E-05  0.817E-03    0.89       1.3  T
  11   -175.8022809 -0.141114E-05  0.410E-03    0.89       2.6  T
  12   -175.8022812 -0.332047E-06  0.183E-03    0.89       5.8  T
  13   -175.8022813 -0.993301E-07  0.679E-04    0.89      15.7  T
  14   -175.8022813 -0.732217E-08  0.397E-04    0.89      26.8  T

   *** convergence criteria satisfied after 14 iterations ***

         #    Occupation            Energy/Eh            Energy/eV
      -------------------------------------------------------------
         1        2.0000           -0.8591334             -23.3782
       ...           ...                  ...                  ...
       151        2.0000           -0.4093969             -11.1403
       152        2.0000           -0.4071425             -11.0789
       153        2.0000           -0.4014320             -10.9235
       154        2.0000           -0.3958137             -10.7706
       155        2.0000           -0.3856863             -10.4951
       156        2.0000           -0.3784329             -10.2977
       157        2.0000           -0.3737804             -10.1711 (HOMO)
       158                         -0.3410988              -9.2818 (LUMO)
       159                         -0.3327056              -9.0534
       160                         -0.3286782              -8.9438
       161                         -0.3196656              -8.6985
       162                         -0.3039022              -8.2696
       ...                                ...                  ...
       311                          1.1518136              31.3424
      -------------------------------------------------------------
                  HL-Gap            0.0326816 Eh            0.8893 eV
             Fermi-level           -0.3574361 Eh           -9.7263 eV

 SCC (total)                   0 d,  0 h,  0 min,  0.210 sec
 SCC setup                      ...        0 min,  0.003 sec (  1.396%)
 Dispersion                     ...        0 min,  0.003 sec (  1.550%)
 classical contributions        ...        0 min,  0.000 sec (  0.128%)
 integral evaluation            ...        0 min,  0.011 sec (  5.326%)
 iterations                     ...        0 min,  0.166 sec ( 79.391%)
 molecular gradient             ...        0 min,  0.025 sec ( 11.791%)
 printout                       ...        0 min,  0.001 sec (  0.379%)

         :::::::::::::::::::::::::::::::::::::::::::::::::::::
         ::                     SUMMARY                     ::
         :::::::::::::::::::::::::::::::::::::::::::::::::::::
         :: total energy            -173.172678609463 Eh    ::
         :: total w/o Gsasa/hb      -173.152789719567 Eh    ::
         :: gradient norm              0.038124914055 Eh/a0 ::
         :: HOMO-LUMO gap              0.889311505316 eV    ::
         ::.................................................::
         :: SCC energy              -175.802281328691 Eh    ::
         :: -> isotropic ES            0.173407616802 Eh    ::
         :: -> anisotropic ES         -0.004363385796 Eh    ::
         :: -> anisotropic XC          0.104320407844 Eh    ::
         :: -> dispersion             -0.145482114352 Eh    ::
         :: -> Gsolv                  -0.061507578063 Eh    ::
         ::    -> Gelec               -0.041618688167 Eh    ::
         ::    -> Gsasa               -0.015265396842 Eh    ::
         ::    -> Ghb                 -0.005704252753 Eh    ::
         ::    -> Gshift               0.001080759698 Eh    ::
         :: repulsion energy           2.631463411148 Eh    ::
         :: add. restraining           0.000000000000 Eh    ::
         :: total charge               0.000000000497 e     ::
         :::::::::::::::::::::::::::::::::::::::::::::::::::::

           -------------------------------------------------
          |                Property Printout                |
           -------------------------------------------------

    * Orbital Energies and Occupations

         #    Occupation            Energy/Eh            Energy/eV
      -------------------------------------------------------------
         1        2.0000           -0.8591334             -23.3782
       ...           ...                  ...                  ...
       145        2.0000           -0.4280284             -11.6472
       146        2.0000           -0.4235326             -11.5249
       147        2.0000           -0.4203524             -11.4384
       148        2.0000           -0.4197027             -11.4207
       149        2.0000           -0.4171032             -11.3500
       150        2.0000           -0.4118797             -11.2078
       151        2.0000           -0.4093969             -11.1403
       152        2.0000           -0.4071425             -11.0789
       153        2.0000           -0.4014320             -10.9235
       154        2.0000           -0.3958137             -10.7706
       155        2.0000           -0.3856863             -10.4951
       156        2.0000           -0.3784329             -10.2977
       157        2.0000           -0.3737804             -10.1711 (HOMO)
       158                         -0.3410988              -9.2818 (LUMO)
       159                         -0.3327056              -9.0534
       160                         -0.3286782              -8.9438
       161                         -0.3196656              -8.6985
       162                         -0.3039022              -8.2696
       163                         -0.2840486              -7.7294
       164                         -0.2715134              -7.3883
       165                         -0.2587151              -7.0400
       166                         -0.2572391              -6.9998
       167                         -0.2519367              -6.8555
       168                         -0.2478371              -6.7440
       ...                                ...                  ...
       311                          1.1518136              31.3424
      -------------------------------------------------------------
                  HL-Gap            0.0326816 Eh            0.8893 eV
             Fermi-level           -0.3574361 Eh           -9.7263 eV

     #   Z          covCN         q      C6AA      α(0)
     1   6 C        2.916    -0.009    28.235     8.713
     2   6 C        3.009    -0.039    28.959     8.827
     3   6 C        2.879     0.224    23.290     7.912
     4   8 O        1.067    -0.358    20.758     6.114
     5   6 C        3.043    -0.017    28.388     8.739
     6   6 C        2.918    -0.027    28.668     8.780
     7   6 C        2.967     0.040    27.100     8.539
     8   6 C        3.758    -0.137    23.180     6.864
     9   6 C        2.926    -0.033    28.810     8.802
    10   6 C        2.912    -0.025    28.632     8.774
    11   6 C        3.039     0.000    27.982     8.676
    12   6 C        3.020     0.037    27.153     8.547
    13   6 C        2.947    -0.001    28.048     8.686
    14   6 C        1.944     0.132    27.854     8.523
    15   7 N        0.911    -0.294    27.570     7.594
    16   6 C        1.946     0.134    27.805     8.516
    17   7 N        0.911    -0.286    27.374     7.567
    18   6 C        2.970     0.007    27.860     8.658
    19   6 C        3.059    -0.042    28.990     8.830
    20   6 C        3.162     0.026    27.099     8.509
    21  16 S        2.168    -0.064   143.716    20.177
    22   6 C        3.089     0.013    27.628     8.616
    23   6 C        3.086    -0.036    28.801     8.797
    24   6 C        3.341     0.070    24.000     7.744
    25   6 C        3.342     0.070    23.979     7.738
    26   7 N        1.854    -0.298    28.565     7.922
    27  16 S        2.688     0.306   129.208    19.131
    28   7 N        1.855    -0.299    28.594     7.926
    29   6 C        3.086    -0.037    28.821     8.800
    30   6 C        3.095     0.013    27.608     8.612
    31   6 C        3.246     0.034    26.259     8.300
    32   7 N        2.800    -0.003    21.316     6.857
    33   6 C        3.743    -0.017    20.954     6.530
    34   6 C        3.751    -0.137    23.196     6.868
    35   6 C        3.068     0.038    27.086     8.534
    36   6 C        3.070     0.036    27.118     8.539
    37   7 N        2.796    -0.013    21.502     6.887
    38   6 C        3.266     0.036    25.993     8.229
    39   6 C        3.088    -0.021    28.437     8.741
    40  34 Se       2.436     0.041   234.379    26.676
    41   6 C        3.748    -0.020    20.990     6.535
    42   6 C        3.752    -0.126    22.981     6.836
    43   6 C        3.092    -0.006    28.062     8.683
    44   6 C        3.174     0.025    27.050     8.494
    45  16 S        2.172    -0.033   142.424    20.086
    46   6 C        3.039    -0.039    28.931     8.822
    47   6 C        2.974     0.003    27.956     8.673
    48  34 Se       2.280     0.064   233.615    26.633
    49   6 C        2.956    -0.008    28.213     8.712
    50   6 C        3.001    -0.041    29.016     8.836
    51   6 C        2.866     0.236    23.082     7.875
    52   8 O        0.856    -0.416    22.011     6.290
    53   6 C        3.048    -0.016    28.366     8.735
    54   6 C        2.913    -0.039    28.969     8.826
    55   6 C        2.783     0.168    24.361     8.084
    56   9 F        0.787    -0.217    11.414     3.991
    57   6 C        2.782     0.170    24.338     8.080
    58   9 F        0.787    -0.217    11.414     3.991
    59   6 C        2.914    -0.046    29.136     8.851
    60   6 C        3.032     0.012    27.720     8.636
    61   6 C        3.020     0.039    27.108     8.540
    62   6 C        2.947     0.008    27.849     8.655
    63   6 C        1.951     0.134    27.804     8.515
    64   7 N        0.911    -0.275    27.095     7.528
    65   6 C        1.948     0.134    27.817     8.517
    66   7 N        0.911    -0.269    26.972     7.511
    67   1 H        0.925     0.059     2.213     2.326
    68   1 H        0.926     0.076     2.016     2.220
    69   1 H        0.925     0.074     2.039     2.233
    70   1 H        0.925     0.067     2.114     2.274
    71   1 H        0.924     0.085     1.933     2.174
    72   1 H        0.926     0.070     2.088     2.260
    73   1 H        0.926     0.052     2.292     2.367
    74   1 H        0.926     0.061     2.190     2.314
    75   1 H        0.923     0.086     1.919     2.167
    76   1 H        0.924     0.091     1.868     2.137
    77   1 H        0.925     0.070     2.085     2.258
    78   1 H        0.925     0.084     1.936     2.176
    79   1 H        0.925     0.073     2.048     2.238
    80   1 H        0.924     0.089     1.887     2.148
    81   1 H        0.925     0.105     1.737     2.061
    82   1 H        0.925     0.057     2.237     2.339
    83   1 H        0.925     0.050     2.314     2.379
    84   1 H        0.925     0.079     1.991     2.207
    85   1 H        0.926     0.098     1.802     2.099
    86   1 H        0.925     0.073     2.056     2.242
    87   1 H        0.926     0.114     1.664     2.017
    88   1 H        0.926     0.099     1.798     2.097

 Mol. C6AA /au·bohr⁶  :     165513.138434
 Mol. C8AA /au·bohr⁸  :    4995388.004175
 Mol. α(0) /au        :        651.467580


Wiberg/Mayer (AO) data.
largest (>0.10) Wiberg bond orders for each atom

 ---------------------------------------------------------------------------
     #   Z sym  total        # sym  WBO       # sym  WBO       # sym  WBO
 ---------------------------------------------------------------------------
     1   6 C    3.941 --     2 C    1.472    18 C    1.321    67 H    0.939
     2   6 C    3.953 --     1 C    1.472    12 C    1.140     3 C    1.091
     3   6 C    3.907 --     4 O    1.639     2 C    1.091     5 C    1.035
     4   8 O    2.178 --     3 C    1.639    40 Se   0.271
     5   6 C    3.973 --     6 C    1.434    11 C    1.274     3 C    1.035
     6   6 C    3.974 --     5 C    1.434     7 C    1.372    68 H    0.962
     7   6 C    3.961 --     9 C    1.401     6 C    1.372     8 C    1.038
     8   6 C    3.986 --     7 C    1.038    70 H    0.979    69 H    0.972
                            71 H    0.952
     9   6 C    3.971 --    10 C    1.432     7 C    1.401    72 H    0.965
    10   6 C    3.976 --     9 C    1.432    11 C    1.402    73 H    0.962
    11   6 C    3.975 --    10 C    1.402     5 C    1.274    12 C    1.091
    12   6 C    3.966 --    13 C    1.467     2 C    1.140    11 C    1.091
    13   6 C    3.943 --    12 C    1.467    14 C    1.104    16 C    1.100
    14   6 C    3.939 --    15 N    2.736    13 C    1.104
    15   7 N    2.949 --    14 C    2.736
    16   6 C    3.939 --    17 N    2.748    13 C    1.100
    17   7 N    2.956 --    16 C    2.748
    18   6 C    3.943 --    19 C    1.362     1 C    1.321    40 Se   1.083
    19   6 C    3.959 --    20 C    1.401    18 C    1.362    74 H    0.959
                            40 Se   0.104
    20   6 C    3.925 --    19 C    1.401    39 C    1.281    21 S    1.075
    21  16 S    2.497 --    22 C    1.112    20 C    1.075
    22   6 C    3.912 --    38 C    1.292    23 C    1.285    21 S    1.112
    23   6 C    3.949 --    22 C    1.285    36 C    1.256    24 C    1.171
    24   6 C    3.969 --    28 N    1.423    23 C    1.171    25 C    1.167
                            27 S    0.106
    25   6 C    3.969 --    26 N    1.424    29 C    1.170    24 C    1.167
                            27 S    0.106
    26   7 N    3.059 --    25 C    1.424    27 S    1.381    28 N    0.144
    27  16 S    3.098 --    28 N    1.383    26 N    1.381    24 C    0.106
                            25 C    0.106
    28   7 N    3.059 --    24 C    1.423    27 S    1.383    26 N    0.144
    29   6 C    3.951 --    30 C    1.290    35 C    1.250    25 C    1.170
    30   6 C    3.914 --    29 C    1.290    31 C    1.276    45 S    1.120
    31   6 C    3.936 --    30 C    1.276    43 C    1.273    32 N    1.164
    32   7 N    3.580 --    35 C    1.194    31 C    1.164    33 C    0.972
    33   6 C    3.945 --    34 C    1.005    32 N    0.972    76 H    0.958
                            75 H    0.948
    34   6 C    3.977 --    33 C    1.005    78 H    0.978    79 H    0.977
                            77 H    0.961
    35   6 C    3.928 --    29 C    1.250    36 C    1.224    32 N    1.194
    36   6 C    3.930 --    23 C    1.256    35 C    1.224    37 N    1.184
    37   7 N    3.563 --    36 C    1.184    38 C    1.163    41 C    0.969
    38   6 C    3.934 --    22 C    1.292    39 C    1.261    37 N    1.163
    39   6 C    3.945 --    20 C    1.281    38 C    1.261    40 Se   1.164
    40  34 Se   2.950 --    39 C    1.164    18 C    1.083     4 O    0.271
                            19 C    0.104
    41   6 C    3.943 --    42 C    1.003    37 N    0.969    81 H    0.949
                            80 H    0.943
    42   6 C    3.983 --    41 C    1.003    82 H    0.984    83 H    0.978
                            84 H    0.978
    43   6 C    3.936 --    31 C    1.273    44 C    1.268    48 Se   1.175
    44   6 C    3.928 --    46 C    1.394    43 C    1.268    45 S    1.084
    45  16 S    2.519 --    30 C    1.120    44 C    1.084
    46   6 C    3.949 --    44 C    1.394    47 C    1.382    85 H    0.935
    47   6 C    3.939 --    46 C    1.382    49 C    1.332    48 Se   1.055
    48  34 Se   2.693 --    43 C    1.175    47 C    1.055
    49   6 C    3.928 --    50 C    1.458    47 C    1.332    86 H    0.936
    50   6 C    3.951 --    49 C    1.458    61 C    1.156    51 C    1.063
    51   6 C    3.913 --    52 O    1.719    50 C    1.063    53 C    1.013
    52   8 O    2.018 --    51 C    1.719
    53   6 C    3.977 --    54 C    1.419    60 C    1.305    51 C    1.013
    54   6 C    3.970 --    53 C    1.419    55 C    1.385    87 H    0.955
    55   6 C    3.868 --    54 C    1.385    57 C    1.340    56 F    0.967
    56   9 F    1.097 --    55 C    0.967
    57   6 C    3.874 --    59 C    1.390    55 C    1.340    58 F    0.968
    58   9 F    1.099 --    57 C    0.968
    59   6 C    3.967 --    60 C    1.401    57 C    1.390    88 H    0.952
    60   6 C    3.982 --    59 C    1.401    53 C    1.305    61 C    1.078
    61   6 C    3.964 --    62 C    1.470    50 C    1.156    60 C    1.078
    62   6 C    3.941 --    61 C    1.470    65 C    1.101    63 C    1.099
    63   6 C    3.940 --    64 N    2.752    62 C    1.099
    64   7 N    2.958 --    63 C    2.752
    65   6 C    3.942 --    66 N    2.739    62 C    1.101
    66   7 N    2.954 --    65 C    2.739
    67   1 H    0.996 --     1 C    0.939
    68   1 H    0.994 --     6 C    0.962
    69   1 H    0.993 --     8 C    0.972
    70   1 H    0.994 --     8 C    0.979
    71   1 H    0.988 --     8 C    0.952
    72   1 H    0.995 --     9 C    0.965
    73   1 H    0.997 --    10 C    0.962
    74   1 H    0.996 --    19 C    0.959
    75   1 H    0.990 --    33 C    0.948
    76   1 H    0.990 --    33 C    0.958
    77   1 H    0.995 --    34 C    0.961
    78   1 H    0.992 --    34 C    0.978
    79   1 H    0.994 --    34 C    0.977
    80   1 H    0.990 --    41 C    0.943
    81   1 H    0.988 --    41 C    0.949
    82   1 H    0.997 --    42 C    0.984
    83   1 H    0.997 --    42 C    0.978
    84   1 H    0.993 --    42 C    0.978
    85   1 H    0.990 --    46 C    0.935
    86   1 H    0.994 --    49 C    0.936
    87   1 H    0.987 --    54 C    0.955
    88   1 H    0.990 --    59 C    0.952
 ---------------------------------------------------------------------------

Topologies differ in bond orders
Writing corrected topology to xtbtopo.mol

molecular dipole:
                 x           y           z       tot (Debye)
 q only:       -0.443      -5.139      -1.434
   full:       -0.409      -4.119      -1.200      10.954
molecular quadrupole (traceless):
                xx          xy          yy          xz          yz          zz
 q only:       -2.659     -25.070     131.103    -185.002     -29.468    -128.445
  q+dip:       -7.320     -11.217     126.626    -178.486     -12.154    -119.307
   full:       -1.300      -6.716     121.385    -188.931     -16.981    -120.085


           -------------------------------------------------
          | TOTAL ENERGY             -173.172678609463 Eh   |
          | GRADIENT NORM               0.038124914055 Eh/α |
          | HOMO-LUMO GAP               0.889311505316 eV   |
           -------------------------------------------------

------------------------------------------------------------------------
 * finished run on 2022/02/11 at 03:51:11.345     
------------------------------------------------------------------------
 total:
 * wall-time:     0 d,  0 h,  0 min,  0.260 sec
 *  cpu-time:     0 d,  0 h,  0 min,  1.988 sec
 * ratio c/w:     7.656 speedup
 SCF:
 * wall-time:     0 d,  0 h,  0 min,  0.211 sec
 *  cpu-time:     0 d,  0 h,  0 min,  1.676 sec
 * ratio c/w:     7.928 speedup

