      -----------------------------------------------------------      
     |                   =====================                   |     
     |                           x T B                           |     
     |                   =====================                   |     
     |                         S. Grimme                         |     
     |          Mulliken Center for Theoretical Chemistry        |     
     |                    University of Bonn                     |     
      -----------------------------------------------------------      

   * xtb version 6.4.1 (unknown) compiled by 'oda6@login1.crc.pitt.edu' on 2021-06-25

   xtb is free software: you can redistribute it and/or modify it under
   the terms of the GNU Lesser General Public License as published by
   the Free Software Foundation, either version 3 of the License, or
   (at your option) any later version.
   
   xtb is distributed in the hope that it will be useful,
   but WITHOUT ANY WARRANTY; without even the implied warranty of
   MERCHANTABILITY or FITNESS FOR A PARTICULAR PURPOSE.  See the
   GNU Lesser General Public License for more details.
   
   Cite this work as:
   * C. Bannwarth, E. Caldeweyher, S. Ehlert, A. Hansen, P. Pracht,
     J. Seibert, S. Spicher, S. Grimme, WIREs Comput. Mol. Sci., 2020, 11,
     e01493. DOI: 10.1002/wcms.1493
   
   for GFN2-xTB:
   * C. Bannwarth, S. Ehlert and S. Grimme., J. Chem. Theory Comput., 2019,
     15, 1652-1671. DOI: 10.1021/acs.jctc.8b01176
   for GFN1-xTB:
   * S. Grimme, C. Bannwarth, P. Shushkov, J. Chem. Theory Comput., 2017,
     13, 1989-2009. DOI: 10.1021/acs.jctc.7b00118
   for GFN0-xTB:
   * P. Pracht, E. Caldeweyher, S. Ehlert, S. Grimme, ChemRxiv, 2019, preprint.
     DOI: 10.26434/chemrxiv.8326202.v1
   for GFN-FF:
   * S. Spicher and S. Grimme, Angew. Chem. Int. Ed., 2020, 59, 15665-15673.
     DOI: 10.1002/anie.202004239
   
   for DFT-D4:
   * E. Caldeweyher, C. Bannwarth and S. Grimme, J. Chem. Phys., 2017,
     147, 034112. DOI: 10.1063/1.4993215
   * E. Caldeweyher, S. Ehlert, A. Hansen, H. Neugebauer, S. Spicher,
     C. Bannwarth and S. Grimme, J. Chem. Phys., 2019, 150, 154122.
     DOI: 10.1063/1.5090222
   * E. Caldeweyher, J.-M. Mewes, S. Ehlert and S. Grimme, Phys. Chem. Chem. Phys.
     2020, 22, 8499-8512. DOI: 10.1039/D0CP00502A
   
   for sTDA-xTB:
   * S. Grimme and C. Bannwarth, J. Chem. Phys., 2016, 145, 054103.
     DOI: 10.1063/1.4959605
   
   in the mass-spec context:
   * V. Asgeirsson, C. Bauer and S. Grimme, Chem. Sci., 2017, 8, 4879.
     DOI: 10.1039/c7sc00601b
   * J. Koopman and S. Grimme, ACS Omega 2019, 4, 12, 15120-15133.
     DOI: 10.1021/acsomega.9b02011
   
   for metadynamics refer to:
   * S. Grimme, J. Chem. Theory Comput., 2019, 155, 2847-2862
     DOI: 10.1021/acs.jctc.9b00143
   
   for SPH calculations refer to:
   * S. Spicher and S. Grimme, J. Chem. Theory Comput., 2021, 17, 1701-1714
     DOI: 10.1021/acs.jctc.0c01306
   
   with help from (in alphabetical order)
   P. Atkinson, C. Bannwarth, F. Bohle, G. Brandenburg, E. Caldeweyher
   M. Checinski, S. Dohm, S. Ehlert, S. Ehrlich, I. Gerasimov, J. Koopman
   C. Lavigne, S. Lehtola, F. März, M. Müller, F. Musil, H. Neugebauer
   J. Pisarek, C. Plett, P. Pracht, J. Seibert, P. Shushkov, S. Spicher
   M. Stahn, M. Steiner, T. Strunk, J. Stückrath, T. Rose, and J. Unsleber
   
 * started run on 2022/01/21 at 13:25:59.054     

           -------------------------------------------------
          |                Calculation Setup                |
           -------------------------------------------------

          program call               : /ihome/ghutchison/oda6/xtb/xtb-641/bin/xtb ../../GFN2_output/19_105_19.mol --sp --alpb water
          hostname                   : smp-n48
          coordinate file            : ../../GFN2_output/19_105_19.mol
          omp threads                :                     8
          number of atoms            :                   112
          number of electrons        :                   330
          charge                     :                     0
          spin                       :                   0.0
          first test random number   :      0.27132741970142

   ID    Z sym.   atoms
    1    6 C      1-6, 8-10, 12, 15, 17-53, 55-57, 59-61, 63, 66-68
    2    7 N      7, 11, 13, 58, 62, 64
    3    8 O      14, 65
    4   16 S      16, 54
    5    1 H      69-112

           -------------------------------------------------
          |                 G F N 2 - x T B                 |
           -------------------------------------------------

        Reference                      10.1021/acs.jctc.8b01176
      * Hamiltonian:
        H0-scaling (s, p, d)           1.850000    2.230000    2.230000
        zeta-weighting                 0.500000
      * Dispersion:
        s8                             2.700000
        a1                             0.520000
        a2                             5.000000
        s9                             5.000000
      * Repulsion:
        kExp                           1.500000    1.000000
        rExp                           1.000000
      * Coulomb:
        alpha                          2.000000
        third order                    shell-resolved
        anisotropic                    true
        a3                             3.000000
        a5                             4.000000
        cn-shift                       1.200000
        cn-exp                         4.000000
        max-rad                        5.000000

      * Solvation model:               ALPB
        Solvent                        water
        Parameter file                 internal GFN2-xTB/ALPB
        Dielectric constant                8.0200E+01
        Reference state                gsolv [1 M gas/solution]
        Free energy shift                  1.0808E-03 Eh       6.7819E-01 kcal/mol
        Temperature                        2.9815E+02 K
        Density                            1.0000E+00 kg/L
        Solvent mass                       1.8000E+01 g/mol
        Interaction kernel             P16
        Born radius scaling (c1)           1.4744E+00
        Born radii integrator          GBOBC
        Born offset                        0.0000E+00 a0       0.0000E+00 AA
        H-bond correction              true
        Ion screening                  false
        Surface tension                    1.0000E-05 Eh       1.5569E+01 dyn/cm
        Grid points                               230 per atom

          ...................................................
          :                      SETUP                      :
          :.................................................:
          :  # basis functions                 328          :
          :  # atomic orbitals                 326          :
          :  # shells                          182          :
          :  # electrons                       330          :
          :  max. iterations                   250          :
          :  Hamiltonian                  GFN2-xTB          :
          :  restarted?                      false          :
          :  GBSA solvation                   true          :
          :  PC potential                    false          :
          :  electronic temp.          300.0000000     K    :
          :  accuracy                    1.0000000          :
          :  -> integral cutoff          0.2500000E+02      :
          :  -> integral neglect         0.1000000E-07      :
          :  -> SCF convergence          0.1000000E-05 Eh   :
          :  -> wf. convergence          0.1000000E-03 e    :
          :  Broyden damping             0.4000000          :
          ...................................................

 iter      E             dE          RMSdq      gap      omega  full diag
   1   -181.6871309 -0.181687E+03  0.444E+00    1.24       0.0  T
   2   -181.7875599 -0.100429E+00  0.274E+00    1.12       1.0  T
   3   -181.6717845  0.115775E+00  0.158E+00    1.29       1.0  T
   4   -181.8597668 -0.187982E+00  0.351E-01    1.16       1.0  T
   5   -181.8661189 -0.635208E-02  0.128E-01    1.13       1.0  T
   6   -181.8663694 -0.250533E-03  0.612E-02    1.14       1.0  T
   7   -181.8664562 -0.867497E-04  0.236E-02    1.13       1.0  T
   8   -181.8664881 -0.318953E-04  0.910E-03    1.14       1.0  T
   9   -181.8664918 -0.374343E-05  0.479E-03    1.14       2.0  T
  10   -181.8664925 -0.697512E-06  0.228E-03    1.14       4.1  T
  11   -181.8664926 -0.140906E-06  0.993E-04    1.14       9.5  T
  12   -181.8664927 -0.298221E-07  0.470E-04    1.14      20.1  T

   *** convergence criteria satisfied after 12 iterations ***

         #    Occupation            Energy/Eh            Energy/eV
      -------------------------------------------------------------
         1        2.0000           -0.7621817             -20.7400
       ...           ...                  ...                  ...
       159        2.0000           -0.4098048             -11.1514
       160        2.0000           -0.4097799             -11.1507
       161        2.0000           -0.4052846             -11.0284
       162        2.0000           -0.4001561             -10.8888
       163        2.0000           -0.3971974             -10.8083
       164        2.0000           -0.3858757             -10.5002
       165        2.0000           -0.3698267             -10.0635 (HOMO)
       166                         -0.3280256              -8.9260 (LUMO)
       167                         -0.3245410              -8.8312
       168                         -0.2812423              -7.6530
       169                         -0.2762235              -7.5164
       170                         -0.2683498              -7.3022
       ...                                ...                  ...
       326                          1.1633774              31.6571
      -------------------------------------------------------------
                  HL-Gap            0.0418011 Eh            1.1375 eV
             Fermi-level           -0.3489381 Eh           -9.4951 eV

 SCC (total)                   0 d,  0 h,  0 min,  0.215 sec
 SCC setup                      ...        0 min,  0.002 sec (  1.096%)
 Dispersion                     ...        0 min,  0.004 sec (  2.055%)
 classical contributions        ...        0 min,  0.000 sec (  0.070%)
 integral evaluation            ...        0 min,  0.012 sec (  5.478%)
 iterations                     ...        0 min,  0.159 sec ( 74.004%)
 molecular gradient             ...        0 min,  0.036 sec ( 16.838%)
 printout                       ...        0 min,  0.001 sec (  0.419%)

         :::::::::::::::::::::::::::::::::::::::::::::::::::::
         ::                     SUMMARY                     ::
         :::::::::::::::::::::::::::::::::::::::::::::::::::::
         :: total energy            -178.755874665083 Eh    ::
         :: total w/o Gsasa/hb      -178.722771632565 Eh    ::
         :: gradient norm              0.052608797877 Eh/a0 ::
         :: HOMO-LUMO gap              1.137466530321 eV    ::
         ::.................................................::
         :: SCC energy              -181.866492672968 Eh    ::
         :: -> isotropic ES            0.145842413282 Eh    ::
         :: -> anisotropic ES          0.022226713571 Eh    ::
         :: -> anisotropic XC          0.148959498465 Eh    ::
         :: -> dispersion             -0.159787742821 Eh    ::
         :: -> Gsolv                  -0.083331811140 Eh    ::
         ::    -> Gelec               -0.050228778622 Eh    ::
         ::    -> Gsasa               -0.028782735143 Eh    ::
         ::    -> Ghb                 -0.005401057072 Eh    ::
         ::    -> Gshift               0.001080759698 Eh    ::
         :: repulsion energy           3.109746760612 Eh    ::
         :: add. restraining           0.000000000000 Eh    ::
         :: total charge              -0.000000000014 e     ::
         :::::::::::::::::::::::::::::::::::::::::::::::::::::

           -------------------------------------------------
          |                Property Printout                |
           -------------------------------------------------

    * Orbital Energies and Occupations

         #    Occupation            Energy/Eh            Energy/eV
      -------------------------------------------------------------
         1        2.0000           -0.7621817             -20.7400
       ...           ...                  ...                  ...
       153        2.0000           -0.4212683             -11.4633
       154        2.0000           -0.4197317             -11.4215
       155        2.0000           -0.4176311             -11.3643
       156        2.0000           -0.4162258             -11.3261
       157        2.0000           -0.4157146             -11.3122
       158        2.0000           -0.4145326             -11.2800
       159        2.0000           -0.4098048             -11.1514
       160        2.0000           -0.4097799             -11.1507
       161        2.0000           -0.4052846             -11.0284
       162        2.0000           -0.4001561             -10.8888
       163        2.0000           -0.3971974             -10.8083
       164        2.0000           -0.3858757             -10.5002
       165        2.0000           -0.3698267             -10.0635 (HOMO)
       166                         -0.3280256              -8.9260 (LUMO)
       167                         -0.3245410              -8.8312
       168                         -0.2812423              -7.6530
       169                         -0.2762235              -7.5164
       170                         -0.2683498              -7.3022
       171                         -0.2572015              -6.9988
       172                         -0.2457564              -6.6874
       173                         -0.2456934              -6.6857
       174                         -0.2396153              -6.5203
       175                         -0.2353213              -6.4034
       176                         -0.2329751              -6.3396
       ...                                ...                  ...
       326                          1.1633774              31.6571
      -------------------------------------------------------------
                  HL-Gap            0.0418011 Eh            1.1375 eV
             Fermi-level           -0.3489381 Eh           -9.4951 eV

     #   Z          covCN         q      C6AA      α(0)
     1   6 C        3.754    -0.129    23.043     6.845
     2   6 C        3.881     0.154    18.066     6.043
     3   6 C        3.754    -0.129    23.039     6.844
     4   6 C        3.046     0.017    27.585     8.614
     5   6 C        2.989    -0.035    28.871     8.814
     6   6 C        1.898     0.121    28.137     8.567
     7   7 N        0.911    -0.288    27.427     7.574
     8   6 C        2.976     0.178    24.178     8.066
     9   6 C        2.945    -0.047    29.168     8.858
    10   6 C        1.919     0.121    28.113     8.563
    11   7 N        0.911    -0.304    27.829     7.630
    12   6 C        1.923     0.131    27.885     8.528
    13   7 N        0.911    -0.303    27.798     7.625
    14   8 O        1.710    -0.257    18.263     5.770
    15   6 C        2.993     0.009    27.818     8.652
    16  16 S        2.268     0.014   140.488    19.949
    17   6 C        3.078     0.031    27.226     8.555
    18   6 C        3.043    -0.001    28.001     8.679
    19   6 C        3.081     0.002    27.891     8.658
    20   6 C        3.938     0.027    20.062     6.365
    21   6 C        3.232    -0.008    27.354     8.490
    22   6 C        3.064    -0.038    28.868     8.811
    23   6 C        3.758    -0.113    22.714     6.795
    24   6 C        3.759    -0.112    22.683     6.790
    25   6 C        2.910    -0.038    28.935     8.821
    26   6 C        3.042     0.009    27.786     8.646
    27   6 C        3.043     0.001    27.976     8.675
    28   6 C        3.062     0.001    27.949     8.669
    29   6 C        3.937     0.021    20.152     6.379
    30   6 C        3.760    -0.109    22.630     6.782
    31   6 C        3.757    -0.113    22.722     6.796
    32   6 C        3.063     0.003    27.884     8.659
    33   6 C        2.908    -0.037    28.914     8.817
    34   6 C        2.910    -0.039    28.962     8.825
    35   6 C        3.043     0.001    27.975     8.675
    36   6 C        3.042     0.009    27.787     8.646
    37   6 C        3.063     0.003    27.885     8.659
    38   6 C        3.937     0.021    20.151     6.379
    39   6 C        3.062     0.001    27.950     8.670
    40   6 C        2.910    -0.039    28.961     8.824
    41   6 C        3.757    -0.113    22.721     6.796
    42   6 C        3.760    -0.109    22.630     6.782
    43   6 C        2.908    -0.037    28.913     8.817
    44   6 C        3.043    -0.001    28.002     8.679
    45   6 C        3.078     0.031    27.226     8.555
    46   6 C        3.233    -0.007    27.349     8.489
    47   6 C        3.938     0.027    20.062     6.365
    48   6 C        3.082     0.002    27.891     8.658
    49   6 C        2.910    -0.038    28.935     8.820
    50   6 C        3.758    -0.113    22.713     6.795
    51   6 C        3.759    -0.112    22.684     6.790
    52   6 C        3.064    -0.038    28.869     8.811
    53   6 C        2.993     0.009    27.819     8.652
    54  16 S        2.269     0.014   140.484    19.949
    55   6 C        3.046     0.017    27.585     8.614
    56   6 C        2.989    -0.035    28.872     8.814
    57   6 C        1.898     0.121    28.138     8.567
    58   7 N        0.911    -0.288    27.424     7.574
    59   6 C        2.976     0.178    24.178     8.066
    60   6 C        2.945    -0.047    29.166     8.858
    61   6 C        1.919     0.121    28.114     8.563
    62   7 N        0.911    -0.304    27.829     7.630
    63   6 C        1.923     0.131    27.885     8.528
    64   7 N        0.911    -0.303    27.799     7.626
    65   8 O        1.710    -0.257    18.265     5.770
    66   6 C        3.881     0.154    18.066     6.043
    67   6 C        3.754    -0.129    23.043     6.845
    68   6 C        3.755    -0.129    23.040     6.844
    69   1 H        0.925     0.086     1.914     2.164
    70   1 H        0.925     0.081     1.964     2.191
    71   1 H        0.925     0.057     2.235     2.338
    72   1 H        0.925     0.081     1.973     2.197
    73   1 H        0.925     0.089     1.889     2.150
    74   1 H        0.925     0.055     2.261     2.351
    75   1 H        0.926     0.052     2.293     2.368
    76   1 H        0.925     0.050     2.321     2.382
    77   1 H        0.925     0.043     2.411     2.428
    78   1 H        0.925     0.060     2.197     2.318
    79   1 H        0.925     0.060     2.198     2.318
    80   1 H        0.925     0.052     2.293     2.368
    81   1 H        0.925     0.046     2.367     2.406
    82   1 H        0.926     0.054     2.271     2.357
    83   1 H        0.925     0.043     2.411     2.428
    84   1 H        0.925     0.053     2.287     2.365
    85   1 H        0.925     0.052     2.300     2.372
    86   1 H        0.925     0.040     2.445     2.445
    87   1 H        0.925     0.051     2.307     2.375
    88   1 H        0.925     0.052     2.299     2.371
    89   1 H        0.926     0.056     2.250     2.346
    90   1 H        0.926     0.047     2.356     2.400
    91   1 H        0.926     0.047     2.357     2.401
    92   1 H        0.925     0.052     2.299     2.371
    93   1 H        0.925     0.051     2.307     2.375
    94   1 H        0.925     0.040     2.446     2.446
    95   1 H        0.925     0.052     2.300     2.372
    96   1 H        0.925     0.043     2.410     2.428
    97   1 H        0.925     0.053     2.287     2.365
    98   1 H        0.926     0.056     2.251     2.346
    99   1 H        0.926     0.054     2.271     2.356
   100   1 H        0.925     0.060     2.197     2.318
   101   1 H        0.925     0.050     2.321     2.382
   102   1 H        0.925     0.043     2.413     2.429
   103   1 H        0.925     0.052     2.293     2.368
   104   1 H        0.925     0.060     2.197     2.318
   105   1 H        0.925     0.046     2.366     2.405
   106   1 H        0.926     0.052     2.292     2.368
   107   1 H        0.925     0.055     2.257     2.350
   108   1 H        0.925     0.081     1.973     2.197
   109   1 H        0.925     0.089     1.886     2.147
   110   1 H        0.925     0.082     1.963     2.191
   111   1 H        0.925     0.086     1.920     2.167
   112   1 H        0.925     0.057     2.237     2.339

 Mol. C6AA /au·bohr⁶  :     179937.442339
 Mol. C8AA /au·bohr⁸  :    4690295.797811
 Mol. α(0) /au        :        665.180569


Wiberg/Mayer (AO) data.
largest (>0.10) Wiberg bond orders for each atom

 ---------------------------------------------------------------------------
     #   Z sym  total        # sym  WBO       # sym  WBO       # sym  WBO
 ---------------------------------------------------------------------------
     1   6 C    3.971 --    71 H    0.984    70 H    0.977    69 H    0.972
                             2 C    0.970
     2   6 C    3.912 --     4 C    0.988     1 C    0.970     3 C    0.967
                            14 O    0.913
     3   6 C    3.971 --    74 H    0.985    72 H    0.977    73 H    0.970
                             2 C    0.967
     4   6 C    3.950 --     5 C    1.407    15 C    1.286     2 C    0.988
     5   6 C    3.947 --     4 C    1.407     6 C    1.135     8 C    1.133
     6   6 C    3.943 --     7 N    2.744     5 C    1.135
     7   7 N    2.958 --     6 C    2.744
     8   6 C    3.929 --     9 C    1.394    14 O    1.145     5 C    1.133
     9   6 C    3.922 --     8 C    1.394    10 C    1.122    12 C    1.112
    10   6 C    3.944 --    11 N    2.742     9 C    1.122
    11   7 N    2.971 --    10 C    2.742
    12   6 C    3.943 --    13 N    2.751     9 C    1.112
    13   7 N    2.960 --    12 C    2.751
    14   8 O    2.304 --     8 C    1.145     2 C    0.913
    15   6 C    3.932 --    22 C    1.368     4 C    1.286    16 S    1.084
    16  16 S    2.603 --    17 C    1.195    15 C    1.084
    17   6 C    3.918 --    21 C    1.348    16 S    1.195    18 C    1.163
    18   6 C    3.967 --    33 C    1.336    19 C    1.275    17 C    1.163
    19   6 C    3.961 --    25 C    1.472    18 C    1.275    20 C    0.983
    20   6 C    3.989 --    21 C    0.986    19 C    0.983    23 C    0.978
                            24 C    0.967
    21   6 C    3.966 --    22 C    1.417    17 C    1.348    20 C    0.986
    22   6 C    3.967 --    21 C    1.417    15 C    1.368    75 H    0.954
    23   6 C    3.991 --    77 H    0.987    76 H    0.983    78 H    0.981
                            20 C    0.978
    24   6 C    3.989 --    81 H    0.986    80 H    0.983    79 H    0.982
                            20 C    0.967
    25   6 C    3.982 --    19 C    1.472    26 C    1.354    82 H    0.962
    26   6 C    3.941 --    25 C    1.354    32 C    1.298    27 C    1.108
    27   6 C    3.960 --    40 C    1.357    28 C    1.306    26 C    1.108
    28   6 C    3.969 --    34 C    1.464    27 C    1.306    29 C    0.985
    29   6 C    3.990 --    32 C    0.986    31 C    0.986    28 C    0.985
                            30 C    0.964
    30   6 C    3.991 --    83 H    0.987    85 H    0.983    84 H    0.983
                            29 C    0.964
    31   6 C    3.993 --    86 H    0.987    29 C    0.986    87 H    0.982
                            88 H    0.982
    32   6 C    3.972 --    33 C    1.475    26 C    1.298    29 C    0.986
    33   6 C    3.971 --    32 C    1.475    18 C    1.336    89 H    0.963
    34   6 C    3.978 --    28 C    1.464    35 C    1.357    90 H    0.963
    35   6 C    3.960 --    34 C    1.357    39 C    1.306    36 C    1.108
    36   6 C    3.941 --    49 C    1.354    37 C    1.298    35 C    1.108
    37   6 C    3.972 --    43 C    1.475    36 C    1.298    38 C    0.986
    38   6 C    3.990 --    37 C    0.986    41 C    0.986    39 C    0.985
                            42 C    0.964
    39   6 C    3.969 --    40 C    1.464    35 C    1.306    38 C    0.985
    40   6 C    3.978 --    39 C    1.464    27 C    1.357    91 H    0.963
    41   6 C    3.993 --    94 H    0.987    38 C    0.986    93 H    0.982
                            92 H    0.982
    42   6 C    3.991 --    96 H    0.987    95 H    0.983    97 H    0.983
                            38 C    0.964
    43   6 C    3.971 --    37 C    1.475    44 C    1.336    98 H    0.963
    44   6 C    3.967 --    43 C    1.336    48 C    1.275    45 C    1.162
    45   6 C    3.918 --    46 C    1.348    54 S    1.195    44 C    1.162
    46   6 C    3.966 --    52 C    1.417    45 C    1.348    47 C    0.986
    47   6 C    3.989 --    46 C    0.986    48 C    0.983    50 C    0.978
                            51 C    0.967
    48   6 C    3.961 --    49 C    1.472    44 C    1.275    47 C    0.983
    49   6 C    3.982 --    48 C    1.472    36 C    1.354    99 H    0.962
    50   6 C    3.991 --   102 H    0.987   101 H    0.983   100 H    0.981
                            47 C    0.978
    51   6 C    3.989 --   105 H    0.986   103 H    0.983   104 H    0.982
                            47 C    0.967
    52   6 C    3.967 --    46 C    1.417    53 C    1.368   106 H    0.954
    53   6 C    3.932 --    52 C    1.368    55 C    1.286    54 S    1.083
    54  16 S    2.603 --    45 C    1.195    53 C    1.083
    55   6 C    3.950 --    56 C    1.407    53 C    1.286    66 C    0.989
    56   6 C    3.947 --    55 C    1.407    57 C    1.135    59 C    1.133
    57   6 C    3.943 --    58 N    2.744    56 C    1.135
    58   7 N    2.958 --    57 C    2.744
    59   6 C    3.929 --    60 C    1.394    65 O    1.145    56 C    1.133
    60   6 C    3.922 --    59 C    1.394    61 C    1.122    63 C    1.112
    61   6 C    3.944 --    62 N    2.742    60 C    1.122
    62   7 N    2.971 --    61 C    2.742
    63   6 C    3.943 --    64 N    2.751    60 C    1.112
    64   7 N    2.960 --    63 C    2.751
    65   8 O    2.304 --    59 C    1.145    66 C    0.913
    66   6 C    3.912 --    55 C    0.989    68 C    0.970    67 C    0.967
                            65 O    0.913
    67   6 C    3.971 --   107 H    0.985   108 H    0.977   109 H    0.970
                            66 C    0.967
    68   6 C    3.971 --   112 H    0.984   110 H    0.977   111 H    0.972
                            66 C    0.970
    69   1 H    0.992 --     1 C    0.972
    70   1 H    0.992 --     1 C    0.977
    71   1 H    0.997 --     1 C    0.984
    72   1 H    0.992 --     3 C    0.977
    73   1 H    0.991 --     3 C    0.970
    74   1 H    0.997 --     3 C    0.985
    75   1 H    0.997 --    22 C    0.954
    76   1 H    0.997 --    23 C    0.983
    77   1 H    0.998 --    23 C    0.987
    78   1 H    0.995 --    23 C    0.981
    79   1 H    0.995 --    24 C    0.982
    80   1 H    0.996 --    24 C    0.983
    81   1 H    0.998 --    24 C    0.986
    82   1 H    0.996 --    25 C    0.962
    83   1 H    0.998 --    30 C    0.987
    84   1 H    0.996 --    30 C    0.983
    85   1 H    0.996 --    30 C    0.983
    86   1 H    0.998 --    31 C    0.987
    87   1 H    0.997 --    31 C    0.982
    88   1 H    0.997 --    31 C    0.982
    89   1 H    0.996 --    33 C    0.963
    90   1 H    0.997 --    34 C    0.963
    91   1 H    0.997 --    40 C    0.963
    92   1 H    0.997 --    41 C    0.982
    93   1 H    0.997 --    41 C    0.982
    94   1 H    0.998 --    41 C    0.987
    95   1 H    0.996 --    42 C    0.983
    96   1 H    0.998 --    42 C    0.987
    97   1 H    0.996 --    42 C    0.983
    98   1 H    0.996 --    43 C    0.963
    99   1 H    0.996 --    49 C    0.962
   100   1 H    0.995 --    50 C    0.981
   101   1 H    0.997 --    50 C    0.983
   102   1 H    0.998 --    50 C    0.987
   103   1 H    0.996 --    51 C    0.983
   104   1 H    0.995 --    51 C    0.982
   105   1 H    0.998 --    51 C    0.986
   106   1 H    0.997 --    52 C    0.954
   107   1 H    0.997 --    67 C    0.985
   108   1 H    0.992 --    67 C    0.977
   109   1 H    0.991 --    67 C    0.970
   110   1 H    0.992 --    68 C    0.977
   111   1 H    0.992 --    68 C    0.972
   112   1 H    0.997 --    68 C    0.984
 ---------------------------------------------------------------------------

Topologies differ in bond orders
Writing corrected topology to xtbtopo.mol

molecular dipole:
                 x           y           z       tot (Debye)
 q only:        0.687     -11.489      -5.470
   full:        0.680     -11.540      -5.486      32.522
molecular quadrupole (traceless):
                xx          xy          yy          xz          yz          zz
 q only:     -144.152     -73.439      29.304     151.271     -43.206     114.848
  q+dip:     -145.167     -68.937      22.190     144.112     -53.579     122.977
   full:     -147.543     -65.816      27.373     136.547     -49.114     120.169


           -------------------------------------------------
          | TOTAL ENERGY             -178.755874665083 Eh   |
          | GRADIENT NORM               0.052608797877 Eh/α |
          | HOMO-LUMO GAP               1.137466530321 eV   |
           -------------------------------------------------

------------------------------------------------------------------------
 * finished run on 2022/01/21 at 13:25:59.350     
------------------------------------------------------------------------
 total:
 * wall-time:     0 d,  0 h,  0 min,  0.296 sec
 *  cpu-time:     0 d,  0 h,  0 min,  2.255 sec
 * ratio c/w:     7.605 speedup
 SCF:
 * wall-time:     0 d,  0 h,  0 min,  0.216 sec
 *  cpu-time:     0 d,  0 h,  0 min,  1.721 sec
 * ratio c/w:     7.958 speedup

