      -----------------------------------------------------------      
     |                   =====================                   |     
     |                           x T B                           |     
     |                   =====================                   |     
     |                         S. Grimme                         |     
     |          Mulliken Center for Theoretical Chemistry        |     
     |                    University of Bonn                     |     
      -----------------------------------------------------------      

   * xtb version 6.4.1 (unknown) compiled by 'oda6@login1.crc.pitt.edu' on 2021-06-25

   xtb is free software: you can redistribute it and/or modify it under
   the terms of the GNU Lesser General Public License as published by
   the Free Software Foundation, either version 3 of the License, or
   (at your option) any later version.
   
   xtb is distributed in the hope that it will be useful,
   but WITHOUT ANY WARRANTY; without even the implied warranty of
   MERCHANTABILITY or FITNESS FOR A PARTICULAR PURPOSE.  See the
   GNU Lesser General Public License for more details.
   
   Cite this work as:
   * C. Bannwarth, E. Caldeweyher, S. Ehlert, A. Hansen, P. Pracht,
     J. Seibert, S. Spicher, S. Grimme, WIREs Comput. Mol. Sci., 2020, 11,
     e01493. DOI: 10.1002/wcms.1493
   
   for GFN2-xTB:
   * C. Bannwarth, S. Ehlert and S. Grimme., J. Chem. Theory Comput., 2019,
     15, 1652-1671. DOI: 10.1021/acs.jctc.8b01176
   for GFN1-xTB:
   * S. Grimme, C. Bannwarth, P. Shushkov, J. Chem. Theory Comput., 2017,
     13, 1989-2009. DOI: 10.1021/acs.jctc.7b00118
   for GFN0-xTB:
   * P. Pracht, E. Caldeweyher, S. Ehlert, S. Grimme, ChemRxiv, 2019, preprint.
     DOI: 10.26434/chemrxiv.8326202.v1
   for GFN-FF:
   * S. Spicher and S. Grimme, Angew. Chem. Int. Ed., 2020, 59, 15665-15673.
     DOI: 10.1002/anie.202004239
   
   for DFT-D4:
   * E. Caldeweyher, C. Bannwarth and S. Grimme, J. Chem. Phys., 2017,
     147, 034112. DOI: 10.1063/1.4993215
   * E. Caldeweyher, S. Ehlert, A. Hansen, H. Neugebauer, S. Spicher,
     C. Bannwarth and S. Grimme, J. Chem. Phys., 2019, 150, 154122.
     DOI: 10.1063/1.5090222
   * E. Caldeweyher, J.-M. Mewes, S. Ehlert and S. Grimme, Phys. Chem. Chem. Phys.
     2020, 22, 8499-8512. DOI: 10.1039/D0CP00502A
   
   for sTDA-xTB:
   * S. Grimme and C. Bannwarth, J. Chem. Phys., 2016, 145, 054103.
     DOI: 10.1063/1.4959605
   
   in the mass-spec context:
   * V. Asgeirsson, C. Bauer and S. Grimme, Chem. Sci., 2017, 8, 4879.
     DOI: 10.1039/c7sc00601b
   * J. Koopman and S. Grimme, ACS Omega 2019, 4, 12, 15120-15133.
     DOI: 10.1021/acsomega.9b02011
   
   for metadynamics refer to:
   * S. Grimme, J. Chem. Theory Comput., 2019, 155, 2847-2862
     DOI: 10.1021/acs.jctc.9b00143
   
   for SPH calculations refer to:
   * S. Spicher and S. Grimme, J. Chem. Theory Comput., 2021, 17, 1701-1714
     DOI: 10.1021/acs.jctc.0c01306
   
   with help from (in alphabetical order)
   P. Atkinson, C. Bannwarth, F. Bohle, G. Brandenburg, E. Caldeweyher
   M. Checinski, S. Dohm, S. Ehlert, S. Ehrlich, I. Gerasimov, J. Koopman
   C. Lavigne, S. Lehtola, F. März, M. Müller, F. Musil, H. Neugebauer
   J. Pisarek, C. Plett, P. Pracht, J. Seibert, P. Shushkov, S. Spicher
   M. Stahn, M. Steiner, T. Strunk, J. Stückrath, T. Rose, and J. Unsleber
   
 * started run on 2022/02/11 at 01:03:25.696     

           -------------------------------------------------
          |                Calculation Setup                |
           -------------------------------------------------

          program call               : /ihome/ghutchison/oda6/xtb/xtb-641/bin/xtb ../../GFN2_output/25_115_39.mol --sp --alpb water
          hostname                   : smp-n28
          coordinate file            : ../../GFN2_output/25_115_39.mol
          omp threads                :                     8
          number of atoms            :                   104
          number of electrons        :                   348
          charge                     :                     0
          spin                       :                   0.0
          first test random number   :      0.97460737584234

   ID    Z sym.   atoms
    1    6 C      1-3, 5-7, 9-14, 16, 18-23, 25, 26, 28, 29, 33-35, 37-39,
                  41, 42, 44-47, 49-53, 55-63, 65, 67-73
    2    8 O      4, 54
    3   17 Cl     8
    4    7 N      15, 17, 30, 32, 43, 48, 64, 66
    5   16 S      24, 27, 31, 36, 40
    6    1 H      74-104

           -------------------------------------------------
          |                 G F N 2 - x T B                 |
           -------------------------------------------------

        Reference                      10.1021/acs.jctc.8b01176
      * Hamiltonian:
        H0-scaling (s, p, d)           1.850000    2.230000    2.230000
        zeta-weighting                 0.500000
      * Dispersion:
        s8                             2.700000
        a1                             0.520000
        a2                             5.000000
        s9                             5.000000
      * Repulsion:
        kExp                           1.500000    1.000000
        rExp                           1.000000
      * Coulomb:
        alpha                          2.000000
        third order                    shell-resolved
        anisotropic                    true
        a3                             3.000000
        a5                             4.000000
        cn-shift                       1.200000
        cn-exp                         4.000000
        max-rad                        5.000000

      * Solvation model:               ALPB
        Solvent                        water
        Parameter file                 internal GFN2-xTB/ALPB
        Dielectric constant                8.0200E+01
        Reference state                gsolv [1 M gas/solution]
        Free energy shift                  1.0808E-03 Eh       6.7819E-01 kcal/mol
        Temperature                        2.9815E+02 K
        Density                            1.0000E+00 kg/L
        Solvent mass                       1.8000E+01 g/mol
        Interaction kernel             P16
        Born radius scaling (c1)           1.4744E+00
        Born radii integrator          GBOBC
        Born offset                        0.0000E+00 a0       0.0000E+00 AA
        H-bond correction              true
        Ion screening                  false
        Surface tension                    1.0000E-05 Eh       1.5569E+01 dyn/cm
        Grid points                               230 per atom

          ...................................................
          :                      SETUP                      :
          :.................................................:
          :  # basis functions                 359          :
          :  # atomic orbitals                 353          :
          :  # shells                          183          :
          :  # electrons                       348          :
          :  max. iterations                   250          :
          :  Hamiltonian                  GFN2-xTB          :
          :  restarted?                      false          :
          :  GBSA solvation                   true          :
          :  PC potential                    false          :
          :  electronic temp.          300.0000000     K    :
          :  accuracy                    1.0000000          :
          :  -> integral cutoff          0.2500000E+02      :
          :  -> integral neglect         0.1000000E-07      :
          :  -> SCF convergence          0.1000000E-05 Eh   :
          :  -> wf. convergence          0.1000000E-03 e    :
          :  Broyden damping             0.4000000          :
          ...................................................

 iter      E             dE          RMSdq      gap      omega  full diag
   1   -192.8118492 -0.192812E+03  0.457E+00    1.23       0.0  T
   2   -193.0107658 -0.198917E+00  0.276E+00    1.01       1.0  T
   3   -192.9771504  0.336154E-01  0.146E+00    1.07       1.0  T
   4   -193.0788055 -0.101655E+00  0.496E-01    1.05       1.0  T
   5   -193.0934693 -0.146638E-01  0.158E-01    0.99       1.0  T
   6   -193.0945356 -0.106634E-02  0.843E-02    1.03       1.0  T
   7   -193.0947703 -0.234736E-03  0.332E-02    1.03       1.0  T
   8   -193.0947891 -0.187635E-04  0.194E-02    1.03       1.0  T
   9   -193.0947981 -0.903428E-05  0.134E-02    1.03       1.0  T
  10   -193.0948031 -0.499816E-05  0.914E-03    1.03       1.1  T
  11   -193.0948058 -0.261767E-05  0.639E-03    1.03       1.5  T
  12   -193.0948075 -0.174816E-05  0.359E-03    1.03       2.7  T
  13   -193.0948081 -0.592447E-06  0.211E-03    1.03       4.6  T
  14   -193.0948082 -0.131280E-06  0.123E-03    1.03       8.0  T
  15   -193.0948083 -0.513862E-07  0.548E-04    1.03      17.9  T
  16   -193.0948083 -0.811457E-08  0.315E-04    1.03      31.1  T

   *** convergence criteria satisfied after 16 iterations ***

         #    Occupation            Energy/Eh            Energy/eV
      -------------------------------------------------------------
         1        2.0000           -1.0747200             -29.2446
       ...           ...                  ...                  ...
       168        2.0000           -0.4069458             -11.0736
       169        2.0000           -0.4040878             -10.9958
       170        2.0000           -0.3928540             -10.6901
       171        2.0000           -0.3916325             -10.6569
       172        2.0000           -0.3845874             -10.4652
       173        2.0000           -0.3762612             -10.2386
       174        2.0000           -0.3718286             -10.1180 (HOMO)
       175                         -0.3341070              -9.0915 (LUMO)
       176                         -0.3308937              -9.0041
       177                         -0.3226033              -8.7785
       178                         -0.3185553              -8.6683
       179                         -0.3014179              -8.2020
       ...                                ...                  ...
       353                          1.1513614              31.3301
      -------------------------------------------------------------
                  HL-Gap            0.0377216 Eh            1.0265 eV
             Fermi-level           -0.3529792 Eh           -9.6051 eV

 SCC (total)                   0 d,  0 h,  0 min,  0.286 sec
 SCC setup                      ...        0 min,  0.002 sec (  0.768%)
 Dispersion                     ...        0 min,  0.004 sec (  1.351%)
 classical contributions        ...        0 min,  0.000 sec (  0.045%)
 integral evaluation            ...        0 min,  0.013 sec (  4.691%)
 iterations                     ...        0 min,  0.232 sec ( 81.198%)
 molecular gradient             ...        0 min,  0.033 sec ( 11.592%)
 printout                       ...        0 min,  0.001 sec (  0.326%)

         :::::::::::::::::::::::::::::::::::::::::::::::::::::
         ::                     SUMMARY                     ::
         :::::::::::::::::::::::::::::::::::::::::::::::::::::
         :: total energy            -190.119953634387 Eh    ::
         :: total w/o Gsasa/hb      -190.099090069051 Eh    ::
         :: gradient norm              0.030934423416 Eh/a0 ::
         :: HOMO-LUMO gap              1.026456892778 eV    ::
         ::.................................................::
         :: SCC energy              -193.094808285872 Eh    ::
         :: -> isotropic ES            0.150519163769 Eh    ::
         :: -> anisotropic ES          0.002226639999 Eh    ::
         :: -> anisotropic XC          0.126043107820 Eh    ::
         :: -> dispersion             -0.170734408365 Eh    ::
         :: -> Gsolv                  -0.055922019404 Eh    ::
         ::    -> Gelec               -0.035058454068 Eh    ::
         ::    -> Gsasa               -0.017171892165 Eh    ::
         ::    -> Ghb                 -0.004772432870 Eh    ::
         ::    -> Gshift               0.001080759698 Eh    ::
         :: repulsion energy           2.976698030927 Eh    ::
         :: add. restraining           0.000000000000 Eh    ::
         :: total charge              -0.000000000117 e     ::
         :::::::::::::::::::::::::::::::::::::::::::::::::::::

           -------------------------------------------------
          |                Property Printout                |
           -------------------------------------------------

    * Orbital Energies and Occupations

         #    Occupation            Energy/Eh            Energy/eV
      -------------------------------------------------------------
         1        2.0000           -1.0747200             -29.2446
       ...           ...                  ...                  ...
       162        2.0000           -0.4191066             -11.4045
       163        2.0000           -0.4184751             -11.3873
       164        2.0000           -0.4150127             -11.2931
       165        2.0000           -0.4117244             -11.2036
       166        2.0000           -0.4106436             -11.1742
       167        2.0000           -0.4095856             -11.1454
       168        2.0000           -0.4069458             -11.0736
       169        2.0000           -0.4040878             -10.9958
       170        2.0000           -0.3928540             -10.6901
       171        2.0000           -0.3916325             -10.6569
       172        2.0000           -0.3845874             -10.4652
       173        2.0000           -0.3762612             -10.2386
       174        2.0000           -0.3718286             -10.1180 (HOMO)
       175                         -0.3341070              -9.0915 (LUMO)
       176                         -0.3308937              -9.0041
       177                         -0.3226033              -8.7785
       178                         -0.3185553              -8.6683
       179                         -0.3014179              -8.2020
       180                         -0.2738134              -7.4508
       181                         -0.2672887              -7.2733
       182                         -0.2530634              -6.8862
       183                         -0.2518274              -6.8526
       184                         -0.2488662              -6.7720
       185                         -0.2423143              -6.5937
       ...                                ...                  ...
       353                          1.1513614              31.3301
      -------------------------------------------------------------
                  HL-Gap            0.0377216 Eh            1.0265 eV
             Fermi-level           -0.3529792 Eh           -9.6051 eV

     #   Z          covCN         q      C6AA      α(0)
     1   6 C        2.920    -0.012    28.316     8.726
     2   6 C        3.008    -0.042    29.034     8.839
     3   6 C        2.873     0.230    23.184     7.893
     4   8 O        0.963    -0.398    21.587     6.232
     5   6 C        3.049    -0.013    28.278     8.721
     6   6 C        2.949    -0.028    28.702     8.787
     7   6 C        2.890     0.112    25.537     8.285
     8  17 Cl       0.969    -0.169   104.461    15.636
     9   6 C        2.957    -0.034    28.840     8.808
    10   6 C        2.915    -0.022    28.555     8.763
    11   6 C        3.034     0.006    27.844     8.655
    12   6 C        3.020     0.037    27.144     8.546
    13   6 C        2.947     0.002    27.981     8.676
    14   6 C        1.945     0.132    27.863     8.524
    15   7 N        0.911    -0.282    27.288     7.555
    16   6 C        1.947     0.134    27.817     8.517
    17   7 N        0.911    -0.283    27.299     7.557
    18   6 C        2.992     0.017    27.618     8.621
    19   6 C        3.093     0.011    27.655     8.619
    20   6 C        3.804    -0.061    21.669     6.627
    21   6 C        3.754    -0.109    22.643     6.785
    22   6 C        3.180     0.014    27.280     8.526
    23   6 C        3.106     0.005    27.768     8.634
    24  16 S        2.320     0.014   140.482    19.949
    25   6 C        3.254     0.031    26.242     8.287
    26   6 C        3.093     0.009    27.711     8.628
    27  16 S        2.165    -0.043   142.818    20.114
    28   6 C        3.092    -0.039    28.855     8.804
    29   6 C        3.343     0.069    23.976     7.736
    30   7 N        1.855    -0.298    28.585     7.924
    31  16 S        2.689     0.302   129.342    19.141
    32   7 N        1.855    -0.301    28.639     7.932
    33   6 C        3.343     0.069    23.979     7.737
    34   6 C        3.092    -0.039    28.847     8.803
    35   6 C        3.092     0.010    27.695     8.626
    36  16 S        2.163    -0.052   143.217    20.142
    37   6 C        3.169     0.023    27.134     8.511
    38   6 C        3.065    -0.047    29.104     8.846
    39   6 C        2.989     0.023    27.476     8.598
    40  16 S        2.352     0.031   139.811    19.901
    41   6 C        3.114     0.003    27.806     8.638
    42   6 C        3.253     0.031    26.251     8.289
    43   7 N        2.802    -0.004    21.342     6.861
    44   6 C        3.746    -0.020    20.994     6.536
    45   6 C        3.752    -0.129    23.044     6.846
    46   6 C        3.061     0.034    27.183     8.550
    47   6 C        3.061     0.035    27.167     8.547
    48   7 N        2.803    -0.005    21.346     6.862
    49   6 C        3.746    -0.020    20.994     6.536
    50   6 C        3.752    -0.128    23.029     6.843
    51   6 C        2.918    -0.014    28.354     8.732
    52   6 C        3.005    -0.040    28.990     8.832
    53   6 C        2.876     0.228    23.229     7.901
    54   8 O        0.985    -0.403    21.673     6.245
    55   6 C        3.060    -0.022    28.484     8.752
    56   6 C        2.904    -0.025    28.619     8.772
    57   6 C        3.261     0.015    26.506     8.317
    58   6 C        3.257     0.015    26.569     8.334
    59   6 C        2.904    -0.033    28.813     8.802
    60   6 C        3.049     0.004    27.898     8.663
    61   6 C        3.020     0.037    27.154     8.548
    62   6 C        2.947    -0.000    28.031     8.684
    63   6 C        1.948     0.132    27.855     8.523
    64   7 N        0.911    -0.290    27.479     7.582
    65   6 C        1.949     0.135    27.786     8.513
    66   7 N        0.911    -0.286    27.366     7.566
    67   6 C        4.163    -0.028    20.982     6.506
    68   6 C        4.012    -0.016    20.787     6.477
    69   6 C        2.987    -0.042    29.046     8.841
    70   6 C        2.987    -0.043    29.065     8.844
    71   6 C        4.012    -0.017    20.792     6.478
    72   6 C        3.926    -0.066    21.695     6.619
    73   6 C        4.161    -0.028    20.981     6.506
    74   1 H        0.925     0.077     2.006     2.215
    75   1 H        0.926     0.093     1.850     2.127
    76   1 H        0.926     0.093     1.851     2.128
    77   1 H        0.926     0.075     2.030     2.228
    78   1 H        0.924     0.059     2.209     2.324
    79   1 H        0.924     0.067     2.122     2.278
    80   1 H        0.925     0.040     2.448     2.447
    81   1 H        0.925     0.059     2.206     2.323
    82   1 H        0.925     0.050     2.316     2.380
    83   1 H        0.926     0.072     2.059     2.244
    84   1 H        0.925     0.094     1.840     2.121
    85   1 H        0.924     0.081     1.972     2.196
    86   1 H        0.925     0.075     2.029     2.228
    87   1 H        0.925     0.057     2.231     2.336
    88   1 H        0.925     0.058     2.221     2.331
    89   1 H        0.924     0.081     1.971     2.195
    90   1 H        0.925     0.093     1.846     2.124
    91   1 H        0.925     0.057     2.230     2.335
    92   1 H        0.925     0.057     2.230     2.335
    93   1 H        0.925     0.074     2.038     2.233
    94   1 H        0.925     0.066     2.125     2.280
    95   1 H        0.926     0.073     2.057     2.243
    96   1 H        0.926     0.054     2.268     2.355
    97   1 H        0.925     0.060     2.196     2.317
    98   1 H        0.925     0.043     2.413     2.429
    99   1 H        0.926     0.028     2.610     2.526
   100   1 H        0.926     0.033     2.545     2.495
   101   1 H        0.925     0.047     2.358     2.402
   102   1 H        0.925     0.050     2.319     2.381
   103   1 H        0.925     0.049     2.337     2.391
   104   1 H        0.925     0.063     2.160     2.298

 Mol. C6AA /au·bohr⁶  :     208357.506410
 Mol. C8AA /au·bohr⁸  :    5947773.437652
 Mol. α(0) /au        :        725.000024


Wiberg/Mayer (AO) data.
largest (>0.10) Wiberg bond orders for each atom

 ---------------------------------------------------------------------------
     #   Z sym  total        # sym  WBO       # sym  WBO       # sym  WBO
 ---------------------------------------------------------------------------
     1   6 C    3.940 --     2 C    1.449    18 C    1.347    74 H    0.930
     2   6 C    3.952 --     1 C    1.449    12 C    1.154     3 C    1.084
     3   6 C    3.912 --     4 O    1.681     2 C    1.084     5 C    1.018
     4   8 O    2.084 --     3 C    1.681    24 S    0.127
     5   6 C    3.975 --     6 C    1.429    11 C    1.292     3 C    1.018
     6   6 C    3.974 --     5 C    1.429     7 C    1.379    75 H    0.960
     7   6 C    3.897 --     9 C    1.399     6 C    1.379     8 Cl   0.983
     8  17 Cl   1.117 --     7 C    0.983
     9   6 C    3.972 --    10 C    1.431     7 C    1.399    76 H    0.962
    10   6 C    3.973 --     9 C    1.431    11 C    1.399    77 H    0.958
    11   6 C    3.980 --    10 C    1.399     5 C    1.292    12 C    1.084
    12   6 C    3.964 --    13 C    1.462     2 C    1.154    11 C    1.084
    13   6 C    3.940 --    12 C    1.462    14 C    1.105    16 C    1.102
    14   6 C    3.941 --    15 N    2.734    13 C    1.105
    15   7 N    2.952 --    14 C    2.734
    16   6 C    3.939 --    17 N    2.747    13 C    1.102
    17   7 N    2.954 --    16 C    2.747
    18   6 C    3.931 --     1 C    1.347    19 C    1.310    24 S    1.071
    19   6 C    3.954 --    22 C    1.378    18 C    1.310    20 C    1.020
    20   6 C    3.991 --    19 C    1.020    21 C    0.989    79 H    0.967
                            78 H    0.961
    21   6 C    3.987 --    20 C    0.989    82 H    0.988    80 H    0.987
                            81 H    0.983
    22   6 C    3.927 --    19 C    1.378    23 C    1.278    27 S    1.075
    23   6 C    3.941 --    22 C    1.278    25 C    1.259    24 S    1.162
    24  16 S    2.722 --    23 C    1.162    18 C    1.071     4 O    0.127
    25   6 C    3.940 --    26 C    1.287    23 C    1.259    48 N    1.169
    26   6 C    3.914 --    28 C    1.294    25 C    1.287    27 S    1.111
    27  16 S    2.496 --    26 C    1.111    22 C    1.075
    28   6 C    3.952 --    26 C    1.294    47 C    1.249    29 C    1.171
    29   6 C    3.970 --    30 N    1.424    28 C    1.171    33 C    1.168
                            31 S    0.106
    30   7 N    3.057 --    29 C    1.424    31 S    1.379    32 N    0.144
    31  16 S    3.093 --    32 N    1.380    30 N    1.379    33 C    0.106
                            29 C    0.106
    32   7 N    3.058 --    33 C    1.424    31 S    1.380    30 N    0.144
    33   6 C    3.970 --    32 N    1.424    34 C    1.171    29 C    1.168
                            31 S    0.106
    34   6 C    3.952 --    35 C    1.293    46 C    1.250    33 C    1.171
    35   6 C    3.913 --    34 C    1.293    42 C    1.290    36 S    1.106
    36  16 S    2.488 --    35 C    1.106    37 C    1.078
    37   6 C    3.928 --    38 C    1.403    41 C    1.277    36 S    1.078
    38   6 C    3.957 --    37 C    1.403    39 C    1.363    83 H    0.959
    39   6 C    3.936 --    38 C    1.363    51 C    1.306    40 S    1.088
    40  16 S    2.747 --    41 C    1.163    39 C    1.088    54 O    0.139
    41   6 C    3.940 --    37 C    1.277    42 C    1.256    40 S    1.163
    42   6 C    3.941 --    35 C    1.290    41 C    1.256    43 N    1.171
    43   7 N    3.587 --    46 C    1.196    42 C    1.171    44 C    0.972
    44   6 C    3.944 --    45 C    1.004    43 N    0.972    85 H    0.960
                            84 H    0.954
    45   6 C    3.982 --    44 C    1.004    87 H    0.981    86 H    0.980
                            88 H    0.978
    46   6 C    3.928 --    34 C    1.250    47 C    1.216    43 N    1.196
    47   6 C    3.928 --    28 C    1.249    46 C    1.216    48 N    1.199
    48   7 N    3.587 --    47 C    1.199    25 C    1.169    49 C    0.972
    49   6 C    3.945 --    50 C    1.004    48 N    0.972    89 H    0.960
                            90 H    0.954
    50   6 C    3.982 --    49 C    1.004    92 H    0.982    93 H    0.980
                            91 H    0.979
    51   6 C    3.940 --    52 C    1.489    39 C    1.306    94 H    0.939
    52   6 C    3.952 --    51 C    1.489    61 C    1.142    53 C    1.069
    53   6 C    3.910 --    54 O    1.672    52 C    1.069    55 C    1.037
    54   8 O    2.086 --    53 C    1.672    40 S    0.139
    55   6 C    3.970 --    56 C    1.380    60 C    1.301    53 C    1.037
    56   6 C    3.978 --    57 C    1.438    55 C    1.380    95 H    0.962
    57   6 C    3.952 --    56 C    1.438    58 C    1.324    73 C    0.998
    58   6 C    3.963 --    59 C    1.445    57 C    1.324    67 C    0.999
    59   6 C    3.977 --    58 C    1.445    60 C    1.368    96 H    0.958
    60   6 C    3.975 --    59 C    1.368    55 C    1.301    61 C    1.091
    61   6 C    3.965 --    62 C    1.466    52 C    1.142    60 C    1.091
    62   6 C    3.943 --    61 C    1.466    63 C    1.103    65 C    1.101
    63   6 C    3.939 --    64 N    2.736    62 C    1.103
    64   7 N    2.950 --    63 C    2.736
    65   6 C    3.939 --    66 N    2.746    62 C    1.101
    66   7 N    2.955 --    65 C    2.746
    67   6 C    3.983 --    58 C    0.999    73 C    0.977    97 H    0.957
                            68 C    0.946
    68   6 C    3.988 --    69 C    1.010    72 C    0.985    98 H    0.972
                            67 C    0.946
    69   6 C    3.987 --    70 C    1.924    68 C    1.010    99 H    0.972
    70   6 C    3.987 --    69 C    1.924    71 C    1.010   100 H    0.971
    71   6 C    3.987 --    70 C    1.010    72 C    0.985   101 H    0.971
                            73 C    0.945
    72   6 C    3.991 --    68 C    0.985    71 C    0.985   102 H    0.977
                           103 H    0.976
    73   6 C    3.982 --    57 C    0.998    67 C    0.977   104 H    0.956
                            71 C    0.945
    74   1 H    0.993 --     1 C    0.930
    75   1 H    0.991 --     6 C    0.960
    76   1 H    0.991 --     9 C    0.962
    77   1 H    0.994 --    10 C    0.958
    78   1 H    0.995 --    20 C    0.961
    79   1 H    0.994 --    20 C    0.967
    80   1 H    0.998 --    21 C    0.987
    81   1 H    0.995 --    21 C    0.983
    82   1 H    0.997 --    21 C    0.988
    83   1 H    0.994 --    38 C    0.959
    84   1 H    0.990 --    44 C    0.954
    85   1 H    0.991 --    44 C    0.960
    86   1 H    0.993 --    45 C    0.980
    87   1 H    0.997 --    45 C    0.981
    88   1 H    0.996 --    45 C    0.978
    89   1 H    0.991 --    49 C    0.960
    90   1 H    0.990 --    49 C    0.954
    91   1 H    0.997 --    50 C    0.979
    92   1 H    0.997 --    50 C    0.982
    93   1 H    0.993 --    50 C    0.980
    94   1 H    0.995 --    51 C    0.939
    95   1 H    0.994 --    56 C    0.962
    96   1 H    0.997 --    59 C    0.958
    97   1 H    0.995 --    67 C    0.957
    98   1 H    0.998 --    68 C    0.972
    99   1 H    0.999 --    69 C    0.972
   100   1 H    0.999 --    70 C    0.971
   101   1 H    0.998 --    71 C    0.971
   102   1 H    0.997 --    72 C    0.977
   103   1 H    0.995 --    72 C    0.976
   104   1 H    0.994 --    73 C    0.956
 ---------------------------------------------------------------------------

Topologies differ in bond orders
Writing corrected topology to xtbtopo.mol

molecular dipole:
                 x           y           z       tot (Debye)
 q only:        3.195      -0.940       1.750
   full:        3.841      -1.241       1.877      11.316
molecular quadrupole (traceless):
                xx          xy          yy          xz          yz          zz
 q only:       96.022      -0.267       0.383      -0.873    -117.044     -96.405
  q+dip:       88.685      12.298       0.361      12.752    -122.716     -89.046
   full:       86.710      19.856       6.098       7.931    -132.810     -92.808


           -------------------------------------------------
          | TOTAL ENERGY             -190.119953634387 Eh   |
          | GRADIENT NORM               0.030934423416 Eh/α |
          | HOMO-LUMO GAP               1.026456892778 eV   |
           -------------------------------------------------

------------------------------------------------------------------------
 * finished run on 2022/02/11 at 01:03:26.039     
------------------------------------------------------------------------
 total:
 * wall-time:     0 d,  0 h,  0 min,  0.344 sec
 *  cpu-time:     0 d,  0 h,  0 min,  2.672 sec
 * ratio c/w:     7.775 speedup
 SCF:
 * wall-time:     0 d,  0 h,  0 min,  0.288 sec
 *  cpu-time:     0 d,  0 h,  0 min,  2.295 sec
 * ratio c/w:     7.978 speedup

