      -----------------------------------------------------------      
     |                   =====================                   |     
     |                           x T B                           |     
     |                   =====================                   |     
     |                         S. Grimme                         |     
     |          Mulliken Center for Theoretical Chemistry        |     
     |                    University of Bonn                     |     
      -----------------------------------------------------------      

   * xtb version 6.4.1 (unknown) compiled by 'oda6@login1.crc.pitt.edu' on 2021-06-25

   xtb is free software: you can redistribute it and/or modify it under
   the terms of the GNU Lesser General Public License as published by
   the Free Software Foundation, either version 3 of the License, or
   (at your option) any later version.
   
   xtb is distributed in the hope that it will be useful,
   but WITHOUT ANY WARRANTY; without even the implied warranty of
   MERCHANTABILITY or FITNESS FOR A PARTICULAR PURPOSE.  See the
   GNU Lesser General Public License for more details.
   
   Cite this work as:
   * C. Bannwarth, E. Caldeweyher, S. Ehlert, A. Hansen, P. Pracht,
     J. Seibert, S. Spicher, S. Grimme, WIREs Comput. Mol. Sci., 2020, 11,
     e01493. DOI: 10.1002/wcms.1493
   
   for GFN2-xTB:
   * C. Bannwarth, S. Ehlert and S. Grimme., J. Chem. Theory Comput., 2019,
     15, 1652-1671. DOI: 10.1021/acs.jctc.8b01176
   for GFN1-xTB:
   * S. Grimme, C. Bannwarth, P. Shushkov, J. Chem. Theory Comput., 2017,
     13, 1989-2009. DOI: 10.1021/acs.jctc.7b00118
   for GFN0-xTB:
   * P. Pracht, E. Caldeweyher, S. Ehlert, S. Grimme, ChemRxiv, 2019, preprint.
     DOI: 10.26434/chemrxiv.8326202.v1
   for GFN-FF:
   * S. Spicher and S. Grimme, Angew. Chem. Int. Ed., 2020, 59, 15665-15673.
     DOI: 10.1002/anie.202004239
   
   for DFT-D4:
   * E. Caldeweyher, C. Bannwarth and S. Grimme, J. Chem. Phys., 2017,
     147, 034112. DOI: 10.1063/1.4993215
   * E. Caldeweyher, S. Ehlert, A. Hansen, H. Neugebauer, S. Spicher,
     C. Bannwarth and S. Grimme, J. Chem. Phys., 2019, 150, 154122.
     DOI: 10.1063/1.5090222
   * E. Caldeweyher, J.-M. Mewes, S. Ehlert and S. Grimme, Phys. Chem. Chem. Phys.
     2020, 22, 8499-8512. DOI: 10.1039/D0CP00502A
   
   for sTDA-xTB:
   * S. Grimme and C. Bannwarth, J. Chem. Phys., 2016, 145, 054103.
     DOI: 10.1063/1.4959605
   
   in the mass-spec context:
   * V. Asgeirsson, C. Bauer and S. Grimme, Chem. Sci., 2017, 8, 4879.
     DOI: 10.1039/c7sc00601b
   * J. Koopman and S. Grimme, ACS Omega 2019, 4, 12, 15120-15133.
     DOI: 10.1021/acsomega.9b02011
   
   for metadynamics refer to:
   * S. Grimme, J. Chem. Theory Comput., 2019, 155, 2847-2862
     DOI: 10.1021/acs.jctc.9b00143
   
   for SPH calculations refer to:
   * S. Spicher and S. Grimme, J. Chem. Theory Comput., 2021, 17, 1701-1714
     DOI: 10.1021/acs.jctc.0c01306
   
   with help from (in alphabetical order)
   P. Atkinson, C. Bannwarth, F. Bohle, G. Brandenburg, E. Caldeweyher
   M. Checinski, S. Dohm, S. Ehlert, S. Ehrlich, I. Gerasimov, J. Koopman
   C. Lavigne, S. Lehtola, F. März, M. Müller, F. Musil, H. Neugebauer
   J. Pisarek, C. Plett, P. Pracht, J. Seibert, P. Shushkov, S. Spicher
   M. Stahn, M. Steiner, T. Strunk, J. Stückrath, T. Rose, and J. Unsleber
   
 * started run on 2022/02/10 at 19:25:48.144     

           -------------------------------------------------
          |                Calculation Setup                |
           -------------------------------------------------

          program call               : /ihome/ghutchison/oda6/xtb/xtb-641/bin/xtb ../../GFN2_output/27_100_25.mol --sp --alpb water
          hostname                   : smp-n32
          coordinate file            : ../../GFN2_output/27_100_25.mol
          omp threads                :                     8
          number of atoms            :                   117
          number of electrons        :                   388
          charge                     :                     0
          spin                       :                   0.0
          first test random number   :      0.53579577502917

   ID    Z sym.   atoms
    1    6 C      1-3, 5, 6, 8-14, 16, 18-28, 30-33, 37, 38, 40-50, 52, 53,
                  55, 56, 58, 59, 61-67, 69-71, 73-78, 80
    2    8 O      4, 68
    3    9 F      7
    4    7 N      15, 17, 34, 36, 54, 57, 79, 81
    5   16 S      29, 35, 39, 51, 60
    6   17 Cl     72
    7    1 H      82-117

           -------------------------------------------------
          |                 G F N 2 - x T B                 |
           -------------------------------------------------

        Reference                      10.1021/acs.jctc.8b01176
      * Hamiltonian:
        H0-scaling (s, p, d)           1.850000    2.230000    2.230000
        zeta-weighting                 0.500000
      * Dispersion:
        s8                             2.700000
        a1                             0.520000
        a2                             5.000000
        s9                             5.000000
      * Repulsion:
        kExp                           1.500000    1.000000
        rExp                           1.000000
      * Coulomb:
        alpha                          2.000000
        third order                    shell-resolved
        anisotropic                    true
        a3                             3.000000
        a5                             4.000000
        cn-shift                       1.200000
        cn-exp                         4.000000
        max-rad                        5.000000

      * Solvation model:               ALPB
        Solvent                        water
        Parameter file                 internal GFN2-xTB/ALPB
        Dielectric constant                8.0200E+01
        Reference state                gsolv [1 M gas/solution]
        Free energy shift                  1.0808E-03 Eh       6.7819E-01 kcal/mol
        Temperature                        2.9815E+02 K
        Density                            1.0000E+00 kg/L
        Solvent mass                       1.8000E+01 g/mol
        Interaction kernel             P16
        Born radius scaling (c1)           1.4744E+00
        Born radii integrator          GBOBC
        Born offset                        0.0000E+00 a0       0.0000E+00 AA
        H-bond correction              true
        Ion screening                  false
        Surface tension                    1.0000E-05 Eh       1.5569E+01 dyn/cm
        Grid points                               230 per atom

          ...................................................
          :                      SETUP                      :
          :.................................................:
          :  # basis functions                 396          :
          :  # atomic orbitals                 390          :
          :  # shells                          204          :
          :  # electrons                       388          :
          :  max. iterations                   250          :
          :  Hamiltonian                  GFN2-xTB          :
          :  restarted?                      false          :
          :  GBSA solvation                   true          :
          :  PC potential                    false          :
          :  electronic temp.          300.0000000     K    :
          :  accuracy                    1.0000000          :
          :  -> integral cutoff          0.2500000E+02      :
          :  -> integral neglect         0.1000000E-07      :
          :  -> SCF convergence          0.1000000E-05 Eh   :
          :  -> wf. convergence          0.1000000E-03 e    :
          :  Broyden damping             0.4000000          :
          ...................................................

 iter      E             dE          RMSdq      gap      omega  full diag
   1   -215.5221656 -0.215522E+03  0.480E+00    1.10       0.0  T
   2   -215.7206691 -0.198503E+00  0.290E+00    1.00       1.0  T
   3   -215.6531197  0.675493E-01  0.151E+00    1.00       1.0  T
   4   -215.7897211 -0.136601E+00  0.483E-01    1.02       1.0  T
   5   -215.8055182 -0.157970E-01  0.157E-01    0.97       1.0  T
   6   -215.8065582 -0.104000E-02  0.843E-02    1.00       1.0  T
   7   -215.8068015 -0.243269E-03  0.341E-02    1.00       1.0  T
   8   -215.8068298 -0.283385E-04  0.190E-02    1.00       1.0  T
   9   -215.8068403 -0.104525E-04  0.131E-02    1.00       1.0  T
  10   -215.8068454 -0.518105E-05  0.887E-03    0.99       1.0  T
  11   -215.8068483 -0.285333E-05  0.617E-03    0.99       1.5  T
  12   -215.8068501 -0.182371E-05  0.346E-03    0.99       2.7  T
  13   -215.8068507 -0.613919E-06  0.209E-03    0.99       4.4  T
  14   -215.8068509 -0.144464E-06  0.123E-03    0.99       7.5  T
  15   -215.8068509 -0.647297E-07  0.572E-04    0.99      16.2  T
  16   -215.8068510 -0.137633E-07  0.289E-04    0.99      32.0  T

   *** convergence criteria satisfied after 16 iterations ***

         #    Occupation            Energy/Eh            Energy/eV
      -------------------------------------------------------------
         1        2.0000           -1.0747595             -29.2457
       ...           ...                  ...                  ...
       188        2.0000           -0.4030607             -10.9678
       189        2.0000           -0.3991541             -10.8615
       190        2.0000           -0.3978623             -10.8264
       191        2.0000           -0.3913490             -10.6491
       192        2.0000           -0.3865076             -10.5174
       193        2.0000           -0.3788896             -10.3101
       194        2.0000           -0.3737628             -10.1706 (HOMO)
       195                         -0.3372342              -9.1766 (LUMO)
       196                         -0.3327262              -9.0539
       197                         -0.3241395              -8.8203
       198                         -0.3208779              -8.7315
       199                         -0.3033870              -8.2556
       ...                                ...                  ...
       390                          1.1518324              31.3430
      -------------------------------------------------------------
                  HL-Gap            0.0365285 Eh            0.9940 eV
             Fermi-level           -0.3555005 Eh           -9.6737 eV

 SCC (total)                   0 d,  0 h,  0 min,  0.340 sec
 SCC setup                      ...        0 min,  0.003 sec (  0.743%)
 Dispersion                     ...        0 min,  0.004 sec (  1.288%)
 classical contributions        ...        0 min,  0.000 sec (  0.046%)
 integral evaluation            ...        0 min,  0.016 sec (  4.622%)
 iterations                     ...        0 min,  0.274 sec ( 80.423%)
 molecular gradient             ...        0 min,  0.042 sec ( 12.484%)
 printout                       ...        0 min,  0.001 sec (  0.370%)

         :::::::::::::::::::::::::::::::::::::::::::::::::::::
         ::                     SUMMARY                     ::
         :::::::::::::::::::::::::::::::::::::::::::::::::::::
         :: total energy            -212.425961929865 Eh    ::
         :: total w/o Gsasa/hb      -212.405001469142 Eh    ::
         :: gradient norm              0.034382775119 Eh/a0 ::
         :: HOMO-LUMO gap              0.993992290018 eV    ::
         ::.................................................::
         :: SCC energy              -215.806850952803 Eh    ::
         :: -> isotropic ES            0.166012938694 Eh    ::
         :: -> anisotropic ES          0.005332702603 Eh    ::
         :: -> anisotropic XC          0.134947785955 Eh    ::
         :: -> dispersion             -0.201485341600 Eh    ::
         :: -> Gsolv                  -0.056876775977 Eh    ::
         ::    -> Gelec               -0.035916315254 Eh    ::
         ::    -> Gsasa               -0.016554777510 Eh    ::
         ::    -> Ghb                 -0.005486442910 Eh    ::
         ::    -> Gshift               0.001080759698 Eh    ::
         :: repulsion energy           3.379678971013 Eh    ::
         :: add. restraining           0.000000000000 Eh    ::
         :: total charge              -0.000000000037 e     ::
         :::::::::::::::::::::::::::::::::::::::::::::::::::::

           -------------------------------------------------
          |                Property Printout                |
           -------------------------------------------------

    * Orbital Energies and Occupations

         #    Occupation            Energy/Eh            Energy/eV
      -------------------------------------------------------------
         1        2.0000           -1.0747595             -29.2457
       ...           ...                  ...                  ...
       182        2.0000           -0.4169976             -11.3471
       183        2.0000           -0.4140840             -11.2678
       184        2.0000           -0.4113854             -11.1944
       185        2.0000           -0.4109701             -11.1831
       186        2.0000           -0.4080552             -11.1037
       187        2.0000           -0.4063458             -11.0572
       188        2.0000           -0.4030607             -10.9678
       189        2.0000           -0.3991541             -10.8615
       190        2.0000           -0.3978623             -10.8264
       191        2.0000           -0.3913490             -10.6491
       192        2.0000           -0.3865076             -10.5174
       193        2.0000           -0.3788896             -10.3101
       194        2.0000           -0.3737628             -10.1706 (HOMO)
       195                         -0.3372342              -9.1766 (LUMO)
       196                         -0.3327262              -9.0539
       197                         -0.3241395              -8.8203
       198                         -0.3208779              -8.7315
       199                         -0.3033870              -8.2556
       200                         -0.2770884              -7.5400
       201                         -0.2716200              -7.3912
       202                         -0.2547920              -6.9332
       203                         -0.2525337              -6.8718
       204                         -0.2513681              -6.8401
       205                         -0.2485755              -6.7641
       ...                                ...                  ...
       390                          1.1518324              31.3430
      -------------------------------------------------------------
                  HL-Gap            0.0365285 Eh            0.9940 eV
             Fermi-level           -0.3555005 Eh           -9.6737 eV

     #   Z          covCN         q      C6AA      α(0)
     1   6 C        2.956    -0.008    28.210     8.712
     2   6 C        3.008    -0.041    28.993     8.833
     3   6 C        2.867     0.233    23.129     7.883
     4   8 O        0.856    -0.414    21.958     6.283
     5   6 C        3.040    -0.039    28.924     8.821
     6   6 C        2.777     0.186    24.021     8.027
     7   9 F        0.787    -0.232    11.575     4.019
     8   6 C        2.917    -0.047    29.171     8.857
     9   6 C        2.923    -0.022    28.561     8.764
    10   6 C        2.912    -0.030    28.741     8.791
    11   6 C        3.035     0.011    27.746     8.640
    12   6 C        3.019     0.037    27.145     8.546
    13   6 C        2.947     0.004    27.941     8.670
    14   6 C        1.942     0.132    27.863     8.524
    15   7 N        0.911    -0.280    27.240     7.548
    16   6 C        1.943     0.134    27.809     8.516
    17   7 N        0.911    -0.278    27.187     7.541
    18   6 C        2.995     0.021    27.532     8.607
    19   6 C        3.096     0.017    27.507     8.596
    20   6 C        2.977     0.009    27.813     8.651
    21   6 C        2.928    -0.040    28.996     8.831
    22   6 C        2.918    -0.040    29.005     8.832
    23   6 C        2.918    -0.036    28.892     8.814
    24   6 C        2.928    -0.037    28.915     8.819
    25   6 C        2.968     0.027    27.393     8.585
    26   6 C        3.807    -0.058    21.605     6.617
    27   6 C        3.752    -0.109    22.645     6.786
    28   6 C        3.184     0.012    27.296     8.527
    29  16 S        2.180    -0.020   141.887    20.048
    30   6 C        3.105     0.008    27.704     8.624
    31   6 C        3.074    -0.035    28.798     8.799
    32   6 C        3.337     0.069    24.090     7.770
    33   6 C        3.336     0.069    24.106     7.775
    34   7 N        1.854    -0.296    28.524     7.916
    35  16 S        2.680     0.312   128.960    19.113
    36   7 N        1.853    -0.296    28.520     7.915
    37   6 C        3.073    -0.036    28.807     8.800
    38   6 C        3.102     0.011    27.644     8.616
    39  16 S        2.161    -0.038   142.637    20.101
    40   6 C        3.172     0.016    27.263     8.529
    41   6 C        3.107     0.010    27.650     8.616
    42   6 C        2.979     0.001    27.997     8.679
    43   6 C        2.973     0.014    27.700     8.633
    44   6 C        3.806    -0.059    21.639     6.622
    45   6 C        3.754    -0.105    22.559     6.773
    46   6 C        2.926    -0.032    28.805     8.802
    47   6 C        2.919    -0.031    28.769     8.796
    48   6 C        2.919    -0.036    28.900     8.816
    49   6 C        2.926    -0.036    28.894     8.815
    50   6 C        2.992     0.018    27.594     8.617
    51  16 S        2.313     0.021   140.196    19.928
    52   6 C        3.107     0.006    27.753     8.631
    53   6 C        3.253     0.035    26.174     8.277
    54   7 N        2.792    -0.018    21.601     6.903
    55   6 C        3.100     0.037    27.060     8.525
    56   6 C        3.100     0.037    27.052     8.523
    57   7 N        2.791    -0.020    21.642     6.909
    58   6 C        3.254     0.035    26.159     8.273
    59   6 C        3.118     0.017    27.451     8.581
    60  16 S        2.271    -0.005   141.262    20.004
    61   6 C        3.742    -0.016    20.932     6.527
    62   6 C        3.752    -0.127    22.993     6.838
    63   6 C        3.742    -0.015    20.920     6.526
    64   6 C        3.752    -0.127    22.989     6.837
    65   6 C        2.918    -0.010    28.256     8.717
    66   6 C        3.009    -0.041    29.005     8.834
    67   6 C        2.873     0.231    23.171     7.891
    68   8 O        0.964    -0.397    21.567     6.229
    69   6 C        3.049    -0.012    28.272     8.720
    70   6 C        2.949    -0.028    28.694     8.786
    71   6 C        2.890     0.112    25.528     8.284
    72  17 Cl       0.969    -0.168   104.430    15.634
    73   6 C        2.958    -0.033    28.830     8.807
    74   6 C        2.915    -0.022    28.547     8.761
    75   6 C        3.035     0.007    27.833     8.653
    76   6 C        3.020     0.037    27.139     8.545
    77   6 C        2.947     0.004    27.931     8.668
    78   6 C        1.947     0.134    27.804     8.515
    79   7 N        0.911    -0.280    27.219     7.546
    80   6 C        1.945     0.130    27.905     8.531
    81   7 N        0.911    -0.278    27.168     7.539
    82   1 H        0.925     0.072     2.059     2.244
    83   1 H        0.926     0.097     1.812     2.105
    84   1 H        0.926     0.095     1.832     2.117
    85   1 H        0.926     0.074     2.039     2.233
    86   1 H        0.925     0.028     2.617     2.530
    87   1 H        0.926     0.041     2.434     2.440
    88   1 H        0.926     0.045     2.384     2.415
    89   1 H        0.926     0.048     2.345     2.394
    90   1 H        0.925     0.039     2.464     2.455
    91   1 H        0.924     0.055     2.265     2.353
    92   1 H        0.925     0.047     2.354     2.399
    93   1 H        0.925     0.042     2.425     2.435
    94   1 H        0.925     0.044     2.401     2.423
    95   1 H        0.924     0.030     2.580     2.512
    96   1 H        0.924     0.044     2.403     2.424
    97   1 H        0.925     0.046     2.371     2.408
    98   1 H        0.925     0.035     2.514     2.479
    99   1 H        0.925     0.044     2.397     2.421
   100   1 H        0.926     0.048     2.351     2.398
   101   1 H        0.926     0.045     2.378     2.412
   102   1 H        0.926     0.044     2.392     2.418
   103   1 H        0.926     0.038     2.474     2.460
   104   1 H        0.924     0.084     1.936     2.176
   105   1 H        0.925     0.089     1.890     2.150
   106   1 H        0.925     0.051     2.306     2.375
   107   1 H        0.925     0.052     2.299     2.371
   108   1 H        0.925     0.074     2.044     2.235
   109   1 H        0.925     0.088     1.899     2.155
   110   1 H        0.924     0.084     1.937     2.176
   111   1 H        0.925     0.053     2.285     2.364
   112   1 H        0.925     0.073     2.056     2.242
   113   1 H        0.925     0.052     2.297     2.370
   114   1 H        0.925     0.070     2.091     2.261
   115   1 H        0.926     0.093     1.848     2.126
   116   1 H        0.926     0.094     1.840     2.121
   117   1 H        0.926     0.076     2.018     2.222

 Mol. C6AA /au·bohr⁶  :     257344.271581
 Mol. C8AA /au·bohr⁸  :    7251035.744607
 Mol. α(0) /au        :        809.575206


Wiberg/Mayer (AO) data.
largest (>0.10) Wiberg bond orders for each atom

 ---------------------------------------------------------------------------
     #   Z sym  total        # sym  WBO       # sym  WBO       # sym  WBO
 ---------------------------------------------------------------------------
     1   6 C    3.941 --     2 C    1.481    18 C    1.298    82 H    0.942
     2   6 C    3.956 --     1 C    1.481    12 C    1.165     3 C    1.045
     3   6 C    3.920 --     4 O    1.728     2 C    1.045     5 C    1.019
     4   8 O    2.026 --     3 C    1.728
     5   6 C    3.976 --     6 C    1.382    11 C    1.291     3 C    1.019
     6   6 C    3.873 --     5 C    1.382     8 C    1.370     7 F    0.958
     7   9 F    1.093 --     6 C    0.958
     8   6 C    3.964 --     9 C    1.448     6 C    1.370    83 H    0.961
     9   6 C    3.973 --     8 C    1.448    10 C    1.415    84 H    0.963
    10   6 C    3.973 --     9 C    1.415    11 C    1.414    85 H    0.959
    11   6 C    3.981 --    10 C    1.414     5 C    1.291    12 C    1.077
    12   6 C    3.967 --    13 C    1.460     2 C    1.165    11 C    1.077
    13   6 C    3.943 --    12 C    1.460    14 C    1.104    16 C    1.103
    14   6 C    3.942 --    15 N    2.742    13 C    1.104
    15   7 N    2.951 --    14 C    2.742
    16   6 C    3.940 --    17 N    2.748    13 C    1.103
    17   7 N    2.954 --    16 C    2.748
    18   6 C    3.927 --    19 C    1.347     1 C    1.298    60 S    1.069
    19   6 C    3.955 --    18 C    1.347    28 C    1.318    20 C    1.040
    20   6 C    3.985 --    21 C    1.377    25 C    1.358    19 C    1.040
    21   6 C    3.988 --    22 C    1.460    20 C    1.377    86 H    0.969
                            24 C    0.107
    22   6 C    3.988 --    21 C    1.460    23 C    1.413    87 H    0.969
                            25 C    0.101
    23   6 C    3.985 --    24 C    1.460    22 C    1.413    88 H    0.970
    24   6 C    3.988 --    23 C    1.460    25 C    1.398    89 H    0.965
                            21 C    0.107
    25   6 C    3.981 --    24 C    1.398    20 C    1.358    26 C    1.015
                            22 C    0.101
    26   6 C    3.995 --    25 C    1.015    27 C    1.004    90 H    0.973
                            91 H    0.960
    27   6 C    3.993 --    26 C    1.004    92 H    0.985    94 H    0.985
                            93 H    0.984
    28   6 C    3.928 --    19 C    1.318    59 C    1.301    29 S    1.088
    29  16 S    2.528 --    30 C    1.119    28 C    1.088
    30   6 C    3.915 --    58 C    1.294    31 C    1.272    29 S    1.119
    31   6 C    3.953 --    30 C    1.272    56 C    1.269    32 C    1.171
    32   6 C    3.970 --    36 N    1.427    31 C    1.171    33 C    1.161
                            35 S    0.106
    33   6 C    3.969 --    34 N    1.427    37 C    1.171    32 C    1.161
                            35 S    0.106
    34   7 N    3.062 --    33 C    1.427    35 S    1.382    36 N    0.143
    35  16 S    3.090 --    36 N    1.382    34 N    1.382    32 C    0.106
                            33 C    0.106
    36   7 N    3.061 --    32 C    1.427    35 S    1.382    34 N    0.143
    37   6 C    3.954 --    38 C    1.278    55 C    1.263    33 C    1.171
    38   6 C    3.912 --    53 C    1.293    37 C    1.278    39 S    1.116
    39  16 S    2.504 --    38 C    1.116    40 C    1.079
    40   6 C    3.927 --    41 C    1.365    52 C    1.278    39 S    1.079
    41   6 C    3.956 --    40 C    1.365    50 C    1.304    42 C    1.022
    42   6 C    3.984 --    49 C    1.392    43 C    1.365    41 C    1.022
                            47 C    0.105
    43   6 C    3.985 --    46 C    1.414    42 C    1.365    44 C    1.013
                            48 C    0.106
    44   6 C    3.997 --    43 C    1.013    45 C    1.000    96 H    0.974
                            95 H    0.970
    45   6 C    3.995 --    44 C    1.000    99 H    0.988    98 H    0.987
                            97 H    0.985
    46   6 C    3.989 --    47 C    1.445    43 C    1.414   100 H    0.966
                            49 C    0.109
    47   6 C    3.987 --    46 C    1.445    48 C    1.432   101 H    0.970
                            42 C    0.105
    48   6 C    3.989 --    49 C    1.446    47 C    1.432   102 H    0.969
                            43 C    0.106
    49   6 C    3.987 --    48 C    1.446    42 C    1.392   103 H    0.970
                            46 C    0.109
    50   6 C    3.931 --    65 C    1.336    41 C    1.304    51 S    1.078
    51  16 S    2.719 --    52 C    1.159    50 C    1.078    68 O    0.127
    52   6 C    3.941 --    40 C    1.278    53 C    1.264    51 S    1.159
    53   6 C    3.940 --    38 C    1.293    52 C    1.264    54 N    1.156
    54   7 N    3.555 --    55 C    1.185    53 C    1.156    63 C    0.967
    55   6 C    3.933 --    37 C    1.263    56 C    1.225    54 N    1.185
    56   6 C    3.934 --    31 C    1.269    55 C    1.225    57 N    1.180
    57   7 N    3.551 --    56 C    1.180    58 C    1.156    61 C    0.966
    58   6 C    3.940 --    30 C    1.294    59 C    1.263    57 N    1.156
    59   6 C    3.930 --    28 C    1.301    58 C    1.263    60 S    1.143
    60  16 S    2.553 --    59 C    1.143    18 C    1.069
    61   6 C    3.947 --    62 C    1.005    57 N    0.966   104 H    0.964
                           105 H    0.962
    62   6 C    3.985 --    61 C    1.005   107 H    0.986   106 H    0.984
                           108 H    0.979
    63   6 C    3.948 --    64 C    1.005    54 N    0.967   110 H    0.963
                           109 H    0.963
    64   6 C    3.985 --    63 C    1.005   113 H    0.986   111 H    0.983
                           112 H    0.979
    65   6 C    3.942 --    66 C    1.458    50 C    1.336   114 H    0.934
    66   6 C    3.952 --    65 C    1.458    76 C    1.150    67 C    1.082
    67   6 C    3.912 --    68 O    1.682    66 C    1.082    69 C    1.019
    68   8 O    2.085 --    67 C    1.682    51 S    0.127
    69   6 C    3.975 --    70 C    1.429    75 C    1.291    67 C    1.019
    70   6 C    3.974 --    69 C    1.429    71 C    1.380   115 H    0.960
    71   6 C    3.898 --    73 C    1.398    70 C    1.380    72 Cl   0.984
    72  17 Cl   1.118 --    71 C    0.984
    73   6 C    3.971 --    74 C    1.432    71 C    1.398   116 H    0.962
    74   6 C    3.973 --    73 C    1.432    75 C    1.399   117 H    0.958
    75   6 C    3.980 --    74 C    1.399    69 C    1.291    76 C    1.084
    76   6 C    3.966 --    77 C    1.467    66 C    1.150    75 C    1.084
    77   6 C    3.941 --    76 C    1.467    80 C    1.102    78 C    1.101
    78   6 C    3.940 --    79 N    2.749    77 C    1.101
    79   7 N    2.955 --    78 C    2.749
    80   6 C    3.942 --    81 N    2.740    77 C    1.102
    81   7 N    2.955 --    80 C    2.740
    82   1 H    0.992 --     1 C    0.942
    83   1 H    0.990 --     8 C    0.961
    84   1 H    0.990 --     9 C    0.963
    85   1 H    0.994 --    10 C    0.959
    86   1 H    0.999 --    21 C    0.969
    87   1 H    0.997 --    22 C    0.969
    88   1 H    0.997 --    23 C    0.970
    89   1 H    0.996 --    24 C    0.965
    90   1 H    0.998 --    26 C    0.973
    91   1 H    0.997 --    26 C    0.960
    92   1 H    0.997 --    27 C    0.985
    93   1 H    0.998 --    27 C    0.984
    94   1 H    0.998 --    27 C    0.985
    95   1 H    0.999 --    44 C    0.970
    96   1 H    0.997 --    44 C    0.974
    97   1 H    0.997 --    45 C    0.985
    98   1 H    0.999 --    45 C    0.987
    99   1 H    0.998 --    45 C    0.988
   100   1 H    0.996 --    46 C    0.966
   101   1 H    0.997 --    47 C    0.970
   102   1 H    0.996 --    48 C    0.969
   103   1 H    0.998 --    49 C    0.970
   104   1 H    0.990 --    61 C    0.964
   105   1 H    0.991 --    61 C    0.962
   106   1 H    0.997 --    62 C    0.984
   107   1 H    0.997 --    62 C    0.986
   108   1 H    0.994 --    62 C    0.979
   109   1 H    0.991 --    63 C    0.963
   110   1 H    0.990 --    63 C    0.963
   111   1 H    0.997 --    64 C    0.983
   112   1 H    0.994 --    64 C    0.979
   113   1 H    0.997 --    64 C    0.986
   114   1 H    0.994 --    65 C    0.934
   115   1 H    0.991 --    70 C    0.960
   116   1 H    0.991 --    73 C    0.962
   117   1 H    0.994 --    74 C    0.958
 ---------------------------------------------------------------------------

Topologies differ in bond orders
Writing corrected topology to xtbtopo.mol

molecular dipole:
                 x           y           z       tot (Debye)
 q only:        0.837       0.011      -0.046
   full:        1.021      -0.209       0.347       2.791
molecular quadrupole (traceless):
                xx          xy          yy          xz          yz          zz
 q only:        0.642     -17.266      49.156     -47.379       8.644     -49.798
  q+dip:       20.020      -9.896      50.652     -55.188      12.725     -70.672
   full:       16.182     -16.834      60.487     -59.902      17.048     -76.669


           -------------------------------------------------
          | TOTAL ENERGY             -212.425961929865 Eh   |
          | GRADIENT NORM               0.034382775119 Eh/α |
          | HOMO-LUMO GAP               0.993992290018 eV   |
           -------------------------------------------------

------------------------------------------------------------------------
 * finished run on 2022/02/10 at 19:25:48.545     
------------------------------------------------------------------------
 total:
 * wall-time:     0 d,  0 h,  0 min,  0.401 sec
 *  cpu-time:     0 d,  0 h,  0 min,  3.127 sec
 * ratio c/w:     7.799 speedup
 SCF:
 * wall-time:     0 d,  0 h,  0 min,  0.342 sec
 *  cpu-time:     0 d,  0 h,  0 min,  2.726 sec
 * ratio c/w:     7.966 speedup

