      -----------------------------------------------------------      
     |                   =====================                   |     
     |                           x T B                           |     
     |                   =====================                   |     
     |                         S. Grimme                         |     
     |          Mulliken Center for Theoretical Chemistry        |     
     |                    University of Bonn                     |     
      -----------------------------------------------------------      

   * xtb version 6.4.1 (unknown) compiled by 'oda6@login1.crc.pitt.edu' on 2021-06-25

   xtb is free software: you can redistribute it and/or modify it under
   the terms of the GNU Lesser General Public License as published by
   the Free Software Foundation, either version 3 of the License, or
   (at your option) any later version.
   
   xtb is distributed in the hope that it will be useful,
   but WITHOUT ANY WARRANTY; without even the implied warranty of
   MERCHANTABILITY or FITNESS FOR A PARTICULAR PURPOSE.  See the
   GNU Lesser General Public License for more details.
   
   Cite this work as:
   * C. Bannwarth, E. Caldeweyher, S. Ehlert, A. Hansen, P. Pracht,
     J. Seibert, S. Spicher, S. Grimme, WIREs Comput. Mol. Sci., 2020, 11,
     e01493. DOI: 10.1002/wcms.1493
   
   for GFN2-xTB:
   * C. Bannwarth, S. Ehlert and S. Grimme., J. Chem. Theory Comput., 2019,
     15, 1652-1671. DOI: 10.1021/acs.jctc.8b01176
   for GFN1-xTB:
   * S. Grimme, C. Bannwarth, P. Shushkov, J. Chem. Theory Comput., 2017,
     13, 1989-2009. DOI: 10.1021/acs.jctc.7b00118
   for GFN0-xTB:
   * P. Pracht, E. Caldeweyher, S. Ehlert, S. Grimme, ChemRxiv, 2019, preprint.
     DOI: 10.26434/chemrxiv.8326202.v1
   for GFN-FF:
   * S. Spicher and S. Grimme, Angew. Chem. Int. Ed., 2020, 59, 15665-15673.
     DOI: 10.1002/anie.202004239
   
   for DFT-D4:
   * E. Caldeweyher, C. Bannwarth and S. Grimme, J. Chem. Phys., 2017,
     147, 034112. DOI: 10.1063/1.4993215
   * E. Caldeweyher, S. Ehlert, A. Hansen, H. Neugebauer, S. Spicher,
     C. Bannwarth and S. Grimme, J. Chem. Phys., 2019, 150, 154122.
     DOI: 10.1063/1.5090222
   * E. Caldeweyher, J.-M. Mewes, S. Ehlert and S. Grimme, Phys. Chem. Chem. Phys.
     2020, 22, 8499-8512. DOI: 10.1039/D0CP00502A
   
   for sTDA-xTB:
   * S. Grimme and C. Bannwarth, J. Chem. Phys., 2016, 145, 054103.
     DOI: 10.1063/1.4959605
   
   in the mass-spec context:
   * V. Asgeirsson, C. Bauer and S. Grimme, Chem. Sci., 2017, 8, 4879.
     DOI: 10.1039/c7sc00601b
   * J. Koopman and S. Grimme, ACS Omega 2019, 4, 12, 15120-15133.
     DOI: 10.1021/acsomega.9b02011
   
   for metadynamics refer to:
   * S. Grimme, J. Chem. Theory Comput., 2019, 155, 2847-2862
     DOI: 10.1021/acs.jctc.9b00143
   
   for SPH calculations refer to:
   * S. Spicher and S. Grimme, J. Chem. Theory Comput., 2021, 17, 1701-1714
     DOI: 10.1021/acs.jctc.0c01306
   
   with help from (in alphabetical order)
   P. Atkinson, C. Bannwarth, F. Bohle, G. Brandenburg, E. Caldeweyher
   M. Checinski, S. Dohm, S. Ehlert, S. Ehrlich, I. Gerasimov, J. Koopman
   C. Lavigne, S. Lehtola, F. März, M. Müller, F. Musil, H. Neugebauer
   J. Pisarek, C. Plett, P. Pracht, J. Seibert, P. Shushkov, S. Spicher
   M. Stahn, M. Steiner, T. Strunk, J. Stückrath, T. Rose, and J. Unsleber
   
 * started run on 2022/02/01 at 21:12:12.446     

           -------------------------------------------------
          |                Calculation Setup                |
           -------------------------------------------------

          program call               : /ihome/ghutchison/oda6/xtb/xtb-641/bin/xtb ../../GFN2_output/27_51_64.mol --sp --alpb water
          hostname                   : smp-n66
          coordinate file            : ../../GFN2_output/27_51_64.mol
          omp threads                :                     8
          number of atoms            :                    97
          number of electrons        :                   338
          charge                     :                     0
          spin                       :                   0.0
          first test random number   :      0.25595839449971

   ID    Z sym.   atoms
    1    6 C      1-3, 5, 6, 8-14, 16, 18-22, 24-27, 31, 32, 34-38, 40, 41,
                  43, 44, 46, 47, 49-55, 57-59, 61, 63-67, 69
    2    8 O      4, 56
    3    9 F      7, 62
    4    7 N      15, 17, 28, 30, 42, 45, 68, 70
    5   16 S      23, 29, 33, 39, 48
    6   17 Cl     60
    7    1 H      71-97

           -------------------------------------------------
          |                 G F N 2 - x T B                 |
           -------------------------------------------------

        Reference                      10.1021/acs.jctc.8b01176
      * Hamiltonian:
        H0-scaling (s, p, d)           1.850000    2.230000    2.230000
        zeta-weighting                 0.500000
      * Dispersion:
        s8                             2.700000
        a1                             0.520000
        a2                             5.000000
        s9                             5.000000
      * Repulsion:
        kExp                           1.500000    1.000000
        rExp                           1.000000
      * Coulomb:
        alpha                          2.000000
        third order                    shell-resolved
        anisotropic                    true
        a3                             3.000000
        a5                             4.000000
        cn-shift                       1.200000
        cn-exp                         4.000000
        max-rad                        5.000000

      * Solvation model:               ALPB
        Solvent                        water
        Parameter file                 internal GFN2-xTB/ALPB
        Dielectric constant                8.0200E+01
        Reference state                gsolv [1 M gas/solution]
        Free energy shift                  1.0808E-03 Eh       6.7819E-01 kcal/mol
        Temperature                        2.9815E+02 K
        Density                            1.0000E+00 kg/L
        Solvent mass                       1.8000E+01 g/mol
        Interaction kernel             P16
        Born radius scaling (c1)           1.4744E+00
        Born radii integrator          GBOBC
        Born offset                        0.0000E+00 a0       0.0000E+00 AA
        H-bond correction              true
        Ion screening                  false
        Surface tension                    1.0000E-05 Eh       1.5569E+01 dyn/cm
        Grid points                               230 per atom

          ...................................................
          :                      SETUP                      :
          :.................................................:
          :  # basis functions                 343          :
          :  # atomic orbitals                 337          :
          :  # shells                          173          :
          :  # electrons                       338          :
          :  max. iterations                   250          :
          :  Hamiltonian                  GFN2-xTB          :
          :  restarted?                      false          :
          :  GBSA solvation                   true          :
          :  PC potential                    false          :
          :  electronic temp.          300.0000000     K    :
          :  accuracy                    1.0000000          :
          :  -> integral cutoff          0.2500000E+02      :
          :  -> integral neglect         0.1000000E-07      :
          :  -> SCF convergence          0.1000000E-05 Eh   :
          :  -> wf. convergence          0.1000000E-03 e    :
          :  Broyden damping             0.4000000          :
          ...................................................

 iter      E             dE          RMSdq      gap      omega  full diag
   1   -189.3470265 -0.189347E+03  0.497E+00    1.17       0.0  T
   2   -189.5594293 -0.212403E+00  0.300E+00    0.93       1.0  T
   3   -189.5278194  0.316099E-01  0.163E+00    1.05       1.0  T
   4   -189.6339384 -0.106119E+00  0.542E-01    1.02       1.0  T
   5   -189.6507430 -0.168046E-01  0.186E-01    0.96       1.0  T
   6   -189.6520689 -0.132583E-02  0.937E-02    1.00       1.0  T
   7   -189.6523237 -0.254859E-03  0.422E-02    0.99       1.0  T
   8   -189.6523581 -0.343780E-04  0.274E-02    0.99       1.0  T
   9   -189.6523754 -0.172825E-04  0.205E-02    0.99       1.0  T
  10   -189.6523888 -0.133864E-04  0.135E-02    0.99       1.0  T
  11   -189.6523955 -0.677024E-05  0.857E-03    0.99       1.2  T
  12   -189.6523985 -0.297747E-05  0.428E-03    1.00       2.4  T
  13   -189.6523993 -0.770307E-06  0.214E-03    1.00       4.7  T
  14   -189.6523994 -0.117286E-06  0.129E-03    1.00       7.9  T
  15   -189.6523994 -0.350728E-07  0.653E-04    1.00      15.5  T
  16   -189.6523995 -0.139143E-07  0.288E-04    1.00      35.2  T

   *** convergence criteria satisfied after 16 iterations ***

         #    Occupation            Energy/Eh            Energy/eV
      -------------------------------------------------------------
         1        2.0000           -1.0813375             -29.4247
       ...           ...                  ...                  ...
       163        2.0000           -0.4145192             -11.2796
       164        2.0000           -0.4106779             -11.1751
       165        2.0000           -0.4067050             -11.0670
       166        2.0000           -0.3945988             -10.7376
       167        2.0000           -0.3880536             -10.5595
       168        2.0000           -0.3795793             -10.3289
       169        2.0000           -0.3748482             -10.2001 (HOMO)
       170                         -0.3382692              -9.2048 (LUMO)
       171                         -0.3348361              -9.1114
       172                         -0.3254236              -8.8552
       173                         -0.3221076              -8.7650
       174                         -0.3038384              -8.2679
       ...                                ...                  ...
       337                          1.1521931              31.3528
      -------------------------------------------------------------
                  HL-Gap            0.0365790 Eh            0.9954 eV
             Fermi-level           -0.3565681 Eh           -9.7027 eV

 SCC (total)                   0 d,  0 h,  0 min,  0.253 sec
 SCC setup                      ...        0 min,  0.010 sec (  4.081%)
 Dispersion                     ...        0 min,  0.004 sec (  1.474%)
 classical contributions        ...        0 min,  0.000 sec (  0.105%)
 integral evaluation            ...        0 min,  0.012 sec (  4.654%)
 iterations                     ...        0 min,  0.196 sec ( 77.550%)
 molecular gradient             ...        0 min,  0.030 sec ( 11.780%)
 printout                       ...        0 min,  0.001 sec (  0.325%)

         :::::::::::::::::::::::::::::::::::::::::::::::::::::
         ::                     SUMMARY                     ::
         :::::::::::::::::::::::::::::::::::::::::::::::::::::
         :: total energy            -186.862843005903 Eh    ::
         :: total w/o Gsasa/hb      -186.846536588737 Eh    ::
         :: gradient norm              0.042681964005 Eh/a0 ::
         :: HOMO-LUMO gap              0.995365172810 eV    ::
         ::.................................................::
         :: SCC energy              -189.652399457329 Eh    ::
         :: -> isotropic ES            0.182587374581 Eh    ::
         :: -> anisotropic ES          0.000223892109 Eh    ::
         :: -> anisotropic XC          0.110190085825 Eh    ::
         :: -> dispersion             -0.163822581678 Eh    ::
         :: -> Gsolv                  -0.057774374068 Eh    ::
         ::    -> Gelec               -0.041467956902 Eh    ::
         ::    -> Gsasa               -0.010942617913 Eh    ::
         ::    -> Ghb                 -0.006444558950 Eh    ::
         ::    -> Gshift               0.001080759698 Eh    ::
         :: repulsion energy           2.789010175120 Eh    ::
         :: add. restraining           0.000000000000 Eh    ::
         :: total charge              -0.000000000175 e     ::
         :::::::::::::::::::::::::::::::::::::::::::::::::::::

           -------------------------------------------------
          |                Property Printout                |
           -------------------------------------------------

    * Orbital Energies and Occupations

         #    Occupation            Energy/Eh            Energy/eV
      -------------------------------------------------------------
         1        2.0000           -1.0813375             -29.4247
       ...           ...                  ...                  ...
       157        2.0000           -0.4272430             -11.6259
       158        2.0000           -0.4231947             -11.5157
       159        2.0000           -0.4221008             -11.4859
       160        2.0000           -0.4214065             -11.4671
       161        2.0000           -0.4201252             -11.4322
       162        2.0000           -0.4173867             -11.3577
       163        2.0000           -0.4145192             -11.2796
       164        2.0000           -0.4106779             -11.1751
       165        2.0000           -0.4067050             -11.0670
       166        2.0000           -0.3945988             -10.7376
       167        2.0000           -0.3880536             -10.5595
       168        2.0000           -0.3795793             -10.3289
       169        2.0000           -0.3748482             -10.2001 (HOMO)
       170                         -0.3382692              -9.2048 (LUMO)
       171                         -0.3348361              -9.1114
       172                         -0.3254236              -8.8552
       173                         -0.3221076              -8.7650
       174                         -0.3038384              -8.2679
       175                         -0.2803173              -7.6278
       176                         -0.2738428              -7.4516
       177                         -0.2584658              -7.0332
       178                         -0.2522285              -6.8635
       179                         -0.2506668              -6.8210
       180                         -0.2504998              -6.8164
       ...                                ...                  ...
       337                          1.1521931              31.3528
      -------------------------------------------------------------
                  HL-Gap            0.0365790 Eh            0.9954 eV
             Fermi-level           -0.3565681 Eh           -9.7027 eV

     #   Z          covCN         q      C6AA      α(0)
     1   6 C        2.929    -0.008    28.218     8.712
     2   6 C        3.011    -0.039    28.957     8.827
     3   6 C        2.868     0.239    23.012     7.863
     4   8 O        0.856    -0.424    22.173     6.313
     5   6 C        3.037    -0.038    28.914     8.820
     6   6 C        2.776     0.188    23.969     8.019
     7   9 F        0.787    -0.234    11.589     4.021
     8   6 C        2.917    -0.047    29.160     8.855
     9   6 C        2.923    -0.020    28.507     8.756
    10   6 C        2.912    -0.029    28.717     8.787
    11   6 C        3.037     0.014    27.667     8.627
    12   6 C        3.020     0.042    27.035     8.529
    13   6 C        2.948     0.008    27.833     8.653
    14   6 C        1.930     0.134    27.828     8.519
    15   7 N        0.911    -0.270    26.985     7.513
    16   6 C        1.935     0.134    27.805     8.516
    17   7 N        0.911    -0.281    27.262     7.552
    18   6 C        2.996     0.017    27.616     8.620
    19   6 C        3.100     0.016    27.531     8.598
    20   6 C        3.804    -0.060    21.658     6.625
    21   6 C        3.754    -0.111    22.684     6.791
    22   6 C        3.197     0.013    27.193     8.501
    23  16 S        2.176    -0.022   141.963    20.054
    24   6 C        3.098     0.006    27.764     8.635
    25   6 C        3.089    -0.037    28.812     8.798
    26   6 C        3.343     0.069    23.972     7.734
    27   6 C        3.344     0.069    23.961     7.731
    28   7 N        1.855    -0.297    28.560     7.921
    29  16 S        2.691     0.315   128.851    19.105
    30   7 N        1.855    -0.298    28.578     7.923
    31   6 C        3.090    -0.037    28.812     8.798
    32   6 C        3.098     0.007    27.744     8.632
    33  16 S        2.175    -0.020   141.863    20.046
    34   6 C        3.194     0.013    27.209     8.505
    35   6 C        3.100     0.018    27.487     8.592
    36   6 C        3.804    -0.062    21.684     6.629
    37   6 C        3.755    -0.109    22.649     6.786
    38   6 C        2.995     0.020    27.557     8.611
    39  16 S        2.254    -0.042   142.790    20.112
    40   6 C        3.118     0.018    27.444     8.581
    41   6 C        3.250     0.032    26.269     8.297
    42   7 N        2.798    -0.012    21.485     6.884
    43   6 C        3.065     0.038    27.091     8.535
    44   6 C        3.065     0.037    27.109     8.538
    45   7 N        2.800    -0.011    21.468     6.882
    46   6 C        3.249     0.032    26.287     8.301
    47   6 C        3.118     0.017    27.472     8.585
    48  16 S        2.255    -0.044   142.887    20.119
    49   6 C        3.744    -0.016    20.923     6.525
    50   6 C        3.752    -0.128    23.010     6.841
    51   6 C        3.745    -0.016    20.922     6.525
    52   6 C        3.752    -0.124    22.941     6.830
    53   6 C        2.928    -0.007    28.186     8.707
    54   6 C        3.012    -0.038    28.919     8.821
    55   6 C        2.871     0.237    23.047     7.870
    56   8 O        0.856    -0.412    21.918     6.277
    57   6 C        3.044    -0.015    28.336     8.731
    58   6 C        2.947    -0.029    28.717     8.789
    59   6 C        2.884     0.092    25.948     8.351
    60  17 Cl       0.961    -0.138   103.465    15.562
    61   6 C        2.819     0.178    24.174     8.056
    62   9 F        0.788    -0.216    11.407     3.990
    63   6 C        2.912    -0.044    29.082     8.843
    64   6 C        3.040     0.014    27.661     8.626
    65   6 C        3.021     0.044    26.996     8.523
    66   6 C        2.948     0.010    27.787     8.646
    67   6 C        1.935     0.135    27.793     8.514
    68   7 N        0.911    -0.274    27.092     7.528
    69   6 C        1.929     0.133    27.841     8.521
    70   7 N        0.911    -0.271    27.003     7.516
    71   1 H        0.925     0.085     1.933     2.174
    72   1 H        0.926     0.097     1.808     2.103
    73   1 H        0.926     0.099     1.797     2.097
    74   1 H        0.926     0.081     1.974     2.197
    75   1 H        0.925     0.055     2.255     2.348
    76   1 H        0.924     0.068     2.108     2.271
    77   1 H        0.925     0.060     2.204     2.321
    78   1 H        0.925     0.052     2.297     2.370
    79   1 H        0.925     0.045     2.386     2.415
    80   1 H        0.924     0.069     2.098     2.265
    81   1 H        0.924     0.065     2.146     2.291
    82   1 H        0.925     0.041     2.432     2.439
    83   1 H        0.925     0.061     2.188     2.313
    84   1 H        0.925     0.050     2.314     2.379
    85   1 H        0.925     0.090     1.880     2.144
    86   1 H        0.924     0.081     1.974     2.197
    87   1 H        0.925     0.058     2.221     2.330
    88   1 H        0.925     0.055     2.259     2.350
    89   1 H        0.925     0.074     2.046     2.237
    90   1 H        0.925     0.094     1.844     2.124
    91   1 H        0.924     0.081     1.969     2.194
    92   1 H        0.925     0.049     2.338     2.391
    93   1 H        0.925     0.056     2.247     2.344
    94   1 H        0.925     0.071     2.074     2.252
    95   1 H        0.925     0.092     1.862     2.134
    96   1 H        0.926     0.111     1.687     2.031
    97   1 H        0.926     0.103     1.762     2.076

 Mol. C6AA /au·bohr⁶  :     186082.194417
 Mol. C8AA /au·bohr⁸  :    5329375.629765
 Mol. α(0) /au        :        684.728230


Wiberg/Mayer (AO) data.
largest (>0.10) Wiberg bond orders for each atom

 ---------------------------------------------------------------------------
     #   Z sym  total        # sym  WBO       # sym  WBO       # sym  WBO
 ---------------------------------------------------------------------------
     1   6 C    3.941 --     2 C    1.523    18 C    1.267    71 H    0.942
     2   6 C    3.955 --     1 C    1.523    12 C    1.149     3 C    1.023
     3   6 C    3.913 --     4 O    1.740     2 C    1.023     5 C    1.021
     4   8 O    2.018 --     3 C    1.740
     5   6 C    3.973 --     6 C    1.377    11 C    1.287     3 C    1.021
     6   6 C    3.870 --     5 C    1.377     8 C    1.371     7 F    0.958
     7   9 F    1.094 --     6 C    0.958
     8   6 C    3.964 --     9 C    1.447     6 C    1.371    72 H    0.961
     9   6 C    3.972 --     8 C    1.447    10 C    1.414    73 H    0.962
    10   6 C    3.973 --    11 C    1.416     9 C    1.414    74 H    0.959
    11   6 C    3.980 --    10 C    1.416     5 C    1.287    12 C    1.074
    12   6 C    3.969 --    13 C    1.468     2 C    1.149    11 C    1.074
    13   6 C    3.968 --    12 C    1.468    14 C    1.105    16 C    1.100
    14   6 C    3.943 --    15 N    2.754    13 C    1.105
    15   7 N    2.959 --    14 C    2.754
    16   6 C    3.944 --    17 N    2.753    13 C    1.100
    17   7 N    2.969 --    16 C    2.753
    18   6 C    3.925 --    19 C    1.386     1 C    1.267    48 S    1.062
    19   6 C    3.965 --    18 C    1.386    22 C    1.320    20 C    1.016
    20   6 C    3.990 --    19 C    1.016    21 C    0.990    75 H    0.971
                            76 H    0.963
    21   6 C    3.986 --    20 C    0.990    79 H    0.987    78 H    0.987
                            77 H    0.982
    22   6 C    3.928 --    19 C    1.320    47 C    1.313    23 S    1.089
    23  16 S    2.518 --    24 C    1.117    22 C    1.089
    24   6 C    3.916 --    46 C    1.288    25 C    1.284    23 S    1.117
    25   6 C    3.953 --    24 C    1.284    44 C    1.259    26 C    1.173
    26   6 C    3.971 --    30 N    1.421    25 C    1.173    27 C    1.169
                            29 S    0.105
    27   6 C    3.971 --    28 N    1.422    31 C    1.172    26 C    1.169
                            29 S    0.105
    28   7 N    3.059 --    27 C    1.422    29 S    1.383    30 N    0.145
    29  16 S    3.100 --    30 N    1.385    28 N    1.383    26 C    0.105
                            27 C    0.105
    30   7 N    3.060 --    26 C    1.421    29 S    1.385    28 N    0.145
    31   6 C    3.954 --    32 C    1.284    43 C    1.260    27 C    1.172
    32   6 C    3.915 --    41 C    1.286    31 C    1.284    33 S    1.119
    33  16 S    2.520 --    32 C    1.119    34 C    1.087
    34   6 C    3.928 --    35 C    1.328    40 C    1.307    33 S    1.087
    35   6 C    3.962 --    38 C    1.369    34 C    1.328    36 C    1.020
    36   6 C    3.989 --    35 C    1.020    37 C    0.988    80 H    0.968
                            81 H    0.960
    37   6 C    3.986 --    36 C    0.988    84 H    0.987    82 H    0.987
                            83 H    0.982
    38   6 C    3.925 --    35 C    1.369    53 C    1.285    39 S    1.062
    39  16 S    2.558 --    40 C    1.131    38 C    1.062
    40   6 C    3.935 --    34 C    1.307    41 C    1.262    39 S    1.131
    41   6 C    3.941 --    32 C    1.286    40 C    1.262    42 N    1.167
    42   7 N    3.572 --    43 C    1.183    41 C    1.167    51 C    0.972
    43   6 C    3.928 --    31 C    1.260    44 C    1.223    42 N    1.183
    44   6 C    3.928 --    25 C    1.259    43 C    1.223    45 N    1.183
    45   7 N    3.576 --    44 C    1.183    46 C    1.170    49 C    0.972
    46   6 C    3.941 --    24 C    1.288    47 C    1.257    45 N    1.170
    47   6 C    3.935 --    22 C    1.313    46 C    1.257    48 S    1.129
    48  16 S    2.553 --    47 C    1.129    18 C    1.062
    49   6 C    3.946 --    50 C    1.005    45 N    0.972    86 H    0.960
                            85 H    0.949
    50   6 C    3.983 --    49 C    1.005    88 H    0.986    87 H    0.982
                            89 H    0.980
    51   6 C    3.947 --    52 C    1.006    42 N    0.972    91 H    0.960
                            90 H    0.949
    52   6 C    3.985 --    51 C    1.006    92 H    0.986    93 H    0.982
                            94 H    0.980
    53   6 C    3.938 --    54 C    1.504    38 C    1.285    95 H    0.938
    54   6 C    3.953 --    53 C    1.504    65 C    1.148    55 C    1.034
    55   6 C    3.914 --    56 O    1.743    54 C    1.034    57 C    1.011
    56   8 O    2.016 --    55 C    1.743
    57   6 C    3.974 --    58 C    1.425    64 C    1.292    55 C    1.011
    58   6 C    3.970 --    57 C    1.425    59 C    1.383    96 H    0.956
    59   6 C    3.906 --    58 C    1.383    61 C    1.345    60 Cl   1.001
    60  17 Cl   1.144 --    59 C    1.001
    61   6 C    3.875 --    63 C    1.391    59 C    1.345    62 F    0.968
    62   9 F    1.101 --    61 C    0.968
    63   6 C    3.968 --    64 C    1.401    61 C    1.391    97 H    0.953
    64   6 C    3.982 --    63 C    1.401    57 C    1.292    65 C    1.078
    65   6 C    3.967 --    66 C    1.466    54 C    1.148    64 C    1.078
    66   6 C    3.963 --    65 C    1.466    69 C    1.106    67 C    1.100
    67   6 C    3.945 --    68 N    2.755    66 C    1.100
    68   7 N    2.969 --    67 C    2.755
    69   6 C    3.943 --    70 N    2.755    66 C    1.106
    70   7 N    2.958 --    69 C    2.755
    71   1 H    0.990 --     1 C    0.942
    72   1 H    0.990 --     8 C    0.961
    73   1 H    0.990 --     9 C    0.962
    74   1 H    0.993 --    10 C    0.959
    75   1 H    0.996 --    20 C    0.971
    76   1 H    0.994 --    20 C    0.963
    77   1 H    0.994 --    21 C    0.982
    78   1 H    0.997 --    21 C    0.987
    79   1 H    0.998 --    21 C    0.987
    80   1 H    0.994 --    36 C    0.968
    81   1 H    0.994 --    36 C    0.960
    82   1 H    0.998 --    37 C    0.987
    83   1 H    0.994 --    37 C    0.982
    84   1 H    0.997 --    37 C    0.987
    85   1 H    0.989 --    49 C    0.949
    86   1 H    0.993 --    49 C    0.960
    87   1 H    0.996 --    50 C    0.982
    88   1 H    0.997 --    50 C    0.986
    89   1 H    0.993 --    50 C    0.980
    90   1 H    0.988 --    51 C    0.949
    91   1 H    0.993 --    51 C    0.960
    92   1 H    0.997 --    52 C    0.986
    93   1 H    0.996 --    52 C    0.982
    94   1 H    0.994 --    52 C    0.980
    95   1 H    0.989 --    53 C    0.938
    96   1 H    0.987 --    58 C    0.956
    97   1 H    0.989 --    63 C    0.953
 ---------------------------------------------------------------------------

Topologies differ in bond orders
Writing corrected topology to xtbtopo.mol

molecular dipole:
                 x           y           z       tot (Debye)
 q only:       -0.144       1.802       1.927
   full:        0.348       1.618       2.496       7.611
molecular quadrupole (traceless):
                xx          xy          yy          xz          yz          zz
 q only:      -59.926     -67.376      26.427      39.020       3.211      33.499
  q+dip:      -37.928     -45.346      19.400      35.261      -3.585      18.528
   full:      -43.214     -42.393      16.082      34.115       1.662      27.132


           -------------------------------------------------
          | TOTAL ENERGY             -186.862843005903 Eh   |
          | GRADIENT NORM               0.042681964005 Eh/α |
          | HOMO-LUMO GAP               0.995365172810 eV   |
           -------------------------------------------------

------------------------------------------------------------------------
 * finished run on 2022/02/01 at 21:12:12.752     
------------------------------------------------------------------------
 total:
 * wall-time:     0 d,  0 h,  0 min,  0.306 sec
 *  cpu-time:     0 d,  0 h,  0 min,  2.346 sec
 * ratio c/w:     7.671 speedup
 SCF:
 * wall-time:     0 d,  0 h,  0 min,  0.254 sec
 *  cpu-time:     0 d,  0 h,  0 min,  2.003 sec
 * ratio c/w:     7.875 speedup

