      -----------------------------------------------------------      
     |                   =====================                   |     
     |                           x T B                           |     
     |                   =====================                   |     
     |                         S. Grimme                         |     
     |          Mulliken Center for Theoretical Chemistry        |     
     |                    University of Bonn                     |     
      -----------------------------------------------------------      

   * xtb version 6.4.1 (unknown) compiled by 'oda6@login1.crc.pitt.edu' on 2021-06-25

   xtb is free software: you can redistribute it and/or modify it under
   the terms of the GNU Lesser General Public License as published by
   the Free Software Foundation, either version 3 of the License, or
   (at your option) any later version.
   
   xtb is distributed in the hope that it will be useful,
   but WITHOUT ANY WARRANTY; without even the implied warranty of
   MERCHANTABILITY or FITNESS FOR A PARTICULAR PURPOSE.  See the
   GNU Lesser General Public License for more details.
   
   Cite this work as:
   * C. Bannwarth, E. Caldeweyher, S. Ehlert, A. Hansen, P. Pracht,
     J. Seibert, S. Spicher, S. Grimme, WIREs Comput. Mol. Sci., 2020, 11,
     e01493. DOI: 10.1002/wcms.1493
   
   for GFN2-xTB:
   * C. Bannwarth, S. Ehlert and S. Grimme., J. Chem. Theory Comput., 2019,
     15, 1652-1671. DOI: 10.1021/acs.jctc.8b01176
   for GFN1-xTB:
   * S. Grimme, C. Bannwarth, P. Shushkov, J. Chem. Theory Comput., 2017,
     13, 1989-2009. DOI: 10.1021/acs.jctc.7b00118
   for GFN0-xTB:
   * P. Pracht, E. Caldeweyher, S. Ehlert, S. Grimme, ChemRxiv, 2019, preprint.
     DOI: 10.26434/chemrxiv.8326202.v1
   for GFN-FF:
   * S. Spicher and S. Grimme, Angew. Chem. Int. Ed., 2020, 59, 15665-15673.
     DOI: 10.1002/anie.202004239
   
   for DFT-D4:
   * E. Caldeweyher, C. Bannwarth and S. Grimme, J. Chem. Phys., 2017,
     147, 034112. DOI: 10.1063/1.4993215
   * E. Caldeweyher, S. Ehlert, A. Hansen, H. Neugebauer, S. Spicher,
     C. Bannwarth and S. Grimme, J. Chem. Phys., 2019, 150, 154122.
     DOI: 10.1063/1.5090222
   * E. Caldeweyher, J.-M. Mewes, S. Ehlert and S. Grimme, Phys. Chem. Chem. Phys.
     2020, 22, 8499-8512. DOI: 10.1039/D0CP00502A
   
   for sTDA-xTB:
   * S. Grimme and C. Bannwarth, J. Chem. Phys., 2016, 145, 054103.
     DOI: 10.1063/1.4959605
   
   in the mass-spec context:
   * V. Asgeirsson, C. Bauer and S. Grimme, Chem. Sci., 2017, 8, 4879.
     DOI: 10.1039/c7sc00601b
   * J. Koopman and S. Grimme, ACS Omega 2019, 4, 12, 15120-15133.
     DOI: 10.1021/acsomega.9b02011
   
   for metadynamics refer to:
   * S. Grimme, J. Chem. Theory Comput., 2019, 155, 2847-2862
     DOI: 10.1021/acs.jctc.9b00143
   
   for SPH calculations refer to:
   * S. Spicher and S. Grimme, J. Chem. Theory Comput., 2021, 17, 1701-1714
     DOI: 10.1021/acs.jctc.0c01306
   
   with help from (in alphabetical order)
   P. Atkinson, C. Bannwarth, F. Bohle, G. Brandenburg, E. Caldeweyher
   M. Checinski, S. Dohm, S. Ehlert, S. Ehrlich, I. Gerasimov, J. Koopman
   C. Lavigne, S. Lehtola, F. März, M. Müller, F. Musil, H. Neugebauer
   J. Pisarek, C. Plett, P. Pracht, J. Seibert, P. Shushkov, S. Spicher
   M. Stahn, M. Steiner, T. Strunk, J. Stückrath, T. Rose, and J. Unsleber
   
 * started run on 2022/02/01 at 16:23:37.387     

           -------------------------------------------------
          |                Calculation Setup                |
           -------------------------------------------------

          program call               : /ihome/ghutchison/oda6/xtb/xtb-641/bin/xtb ../../GFN2_output/28_24_28.mol --sp --alpb water
          hostname                   : smp-n66
          coordinate file            : ../../GFN2_output/28_24_28.mol
          omp threads                :                     8
          number of atoms            :                   100
          number of electrons        :                   346
          charge                     :                     0
          spin                       :                   0.0
          first test random number   :      0.38282180090428

   ID    Z sym.   atoms
    1    6 C      1-3, 5-7, 9-14, 16, 18-22, 24-27, 31, 32, 34, 35, 37-41,
                  43, 44, 46, 47, 49, 50, 52-58, 60-62, 64-69, 71
    2    8 O      4, 59
    3    9 F      8, 63
    4    7 N      15, 17, 28, 30, 45, 48, 70, 72
    5   16 S      23, 29, 33, 36, 42, 51
    6    1 H      73-100

           -------------------------------------------------
          |                 G F N 2 - x T B                 |
           -------------------------------------------------

        Reference                      10.1021/acs.jctc.8b01176
      * Hamiltonian:
        H0-scaling (s, p, d)           1.850000    2.230000    2.230000
        zeta-weighting                 0.500000
      * Dispersion:
        s8                             2.700000
        a1                             0.520000
        a2                             5.000000
        s9                             5.000000
      * Repulsion:
        kExp                           1.500000    1.000000
        rExp                           1.000000
      * Coulomb:
        alpha                          2.000000
        third order                    shell-resolved
        anisotropic                    true
        a3                             3.000000
        a5                             4.000000
        cn-shift                       1.200000
        cn-exp                         4.000000
        max-rad                        5.000000

      * Solvation model:               ALPB
        Solvent                        water
        Parameter file                 internal GFN2-xTB/ALPB
        Dielectric constant                8.0200E+01
        Reference state                gsolv [1 M gas/solution]
        Free energy shift                  1.0808E-03 Eh       6.7819E-01 kcal/mol
        Temperature                        2.9815E+02 K
        Density                            1.0000E+00 kg/L
        Solvent mass                       1.8000E+01 g/mol
        Interaction kernel             P16
        Born radius scaling (c1)           1.4744E+00
        Born radii integrator          GBOBC
        Born offset                        0.0000E+00 a0       0.0000E+00 AA
        H-bond correction              true
        Ion screening                  false
        Surface tension                    1.0000E-05 Eh       1.5569E+01 dyn/cm
        Grid points                               230 per atom

          ...................................................
          :                      SETUP                      :
          :.................................................:
          :  # basis functions                 352          :
          :  # atomic orbitals                 346          :
          :  # shells                          178          :
          :  # electrons                       346          :
          :  max. iterations                   250          :
          :  Hamiltonian                  GFN2-xTB          :
          :  restarted?                      false          :
          :  GBSA solvation                   true          :
          :  PC potential                    false          :
          :  electronic temp.          300.0000000     K    :
          :  accuracy                    1.0000000          :
          :  -> integral cutoff          0.2500000E+02      :
          :  -> integral neglect         0.1000000E-07      :
          :  -> SCF convergence          0.1000000E-05 Eh   :
          :  -> wf. convergence          0.1000000E-03 e    :
          :  Broyden damping             0.4000000          :
          ...................................................

 iter      E             dE          RMSdq      gap      omega  full diag
   1   -192.9517410 -0.192952E+03  0.464E+00    1.14       0.0  T
   2   -193.1533049 -0.201564E+00  0.280E+00    0.93       1.0  T
   3   -193.1250051  0.282998E-01  0.151E+00    1.02       1.0  T
   4   -193.2258683 -0.100863E+00  0.500E-01    0.98       1.0  T
   5   -193.2403937 -0.145254E-01  0.164E-01    0.92       1.0  T
   6   -193.2413648 -0.971032E-03  0.851E-02    0.96       1.0  T
   7   -193.2415886 -0.223893E-03  0.307E-02    0.95       1.0  T
   8   -193.2416058 -0.171534E-04  0.144E-02    0.95       1.0  T
   9   -193.2416104 -0.457368E-05  0.752E-03    0.95       1.3  T
  10   -193.2416112 -0.795186E-06  0.384E-03    0.95       2.6  T
  11   -193.2416115 -0.326059E-06  0.225E-03    0.95       4.4  T
  12   -193.2416116 -0.771991E-07  0.113E-03    0.95       8.8  T
  13   -193.2416116 -0.503994E-07  0.477E-04    0.95      21.0  T
  14   -193.2416116 -0.725620E-08  0.242E-04    0.95      41.3  T

   *** convergence criteria satisfied after 14 iterations ***

         #    Occupation            Energy/Eh            Energy/eV
      -------------------------------------------------------------
         1        2.0000           -0.8454289             -23.0053
       ...           ...                  ...                  ...
       167        2.0000           -0.4117338             -11.2038
       168        2.0000           -0.4073765             -11.0853
       169        2.0000           -0.3988981             -10.8546
       170        2.0000           -0.3917438             -10.6599
       171        2.0000           -0.3837680             -10.4429
       172        2.0000           -0.3782745             -10.2934
       173        2.0000           -0.3718192             -10.1177 (HOMO)
       174                         -0.3369796              -9.1697 (LUMO)
       175                         -0.3339344              -9.0868
       176                         -0.3262527              -8.8778
       177                         -0.3231584              -8.7936
       178                         -0.3035320              -8.2595
       ...                                ...                  ...
       346                          1.1512054              31.3259
      -------------------------------------------------------------
                  HL-Gap            0.0348395 Eh            0.9480 eV
             Fermi-level           -0.3544178 Eh           -9.6442 eV

 SCC (total)                   0 d,  0 h,  0 min,  0.224 sec
 SCC setup                      ...        0 min,  0.002 sec (  0.903%)
 Dispersion                     ...        0 min,  0.003 sec (  1.536%)
 classical contributions        ...        0 min,  0.000 sec (  0.048%)
 integral evaluation            ...        0 min,  0.011 sec (  5.097%)
 iterations                     ...        0 min,  0.177 sec ( 79.015%)
 molecular gradient             ...        0 min,  0.029 sec ( 13.017%)
 printout                       ...        0 min,  0.001 sec (  0.356%)

         :::::::::::::::::::::::::::::::::::::::::::::::::::::
         ::                     SUMMARY                     ::
         :::::::::::::::::::::::::::::::::::::::::::::::::::::
         :: total energy            -190.358311137561 Eh    ::
         :: total w/o Gsasa/hb      -190.340738677615 Eh    ::
         :: gradient norm              0.035309071009 Eh/a0 ::
         :: HOMO-LUMO gap              0.948032244002 eV    ::
         ::.................................................::
         :: SCC energy              -193.241611630514 Eh    ::
         :: -> isotropic ES            0.172519192153 Eh    ::
         :: -> anisotropic ES          0.001509431493 Eh    ::
         :: -> anisotropic XC          0.113309887900 Eh    ::
         :: -> dispersion             -0.166932154968 Eh    ::
         :: -> Gsolv                  -0.054949538490 Eh    ::
         ::    -> Gelec               -0.037377078545 Eh    ::
         ::    -> Gsasa               -0.012533225818 Eh    ::
         ::    -> Ghb                 -0.006119993826 Eh    ::
         ::    -> Gshift               0.001080759698 Eh    ::
         :: repulsion energy           2.884512184909 Eh    ::
         :: add. restraining           0.000000000000 Eh    ::
         :: total charge              -0.000000000859 e     ::
         :::::::::::::::::::::::::::::::::::::::::::::::::::::

           -------------------------------------------------
          |                Property Printout                |
           -------------------------------------------------

    * Orbital Energies and Occupations

         #    Occupation            Energy/Eh            Energy/eV
      -------------------------------------------------------------
         1        2.0000           -0.8454289             -23.0053
       ...           ...                  ...                  ...
       161        2.0000           -0.4248944             -11.5620
       162        2.0000           -0.4226809             -11.5017
       163        2.0000           -0.4221425             -11.4871
       164        2.0000           -0.4198583             -11.4249
       165        2.0000           -0.4173947             -11.3579
       166        2.0000           -0.4123484             -11.2206
       167        2.0000           -0.4117338             -11.2038
       168        2.0000           -0.4073765             -11.0853
       169        2.0000           -0.3988981             -10.8546
       170        2.0000           -0.3917438             -10.6599
       171        2.0000           -0.3837680             -10.4429
       172        2.0000           -0.3782745             -10.2934
       173        2.0000           -0.3718192             -10.1177 (HOMO)
       174                         -0.3369796              -9.1697 (LUMO)
       175                         -0.3339344              -9.0868
       176                         -0.3262527              -8.8778
       177                         -0.3231584              -8.7936
       178                         -0.3035320              -8.2595
       179                         -0.2825331              -7.6881
       180                         -0.2738555              -7.4520
       181                         -0.2612501              -7.1090
       182                         -0.2533809              -6.8948
       183                         -0.2525448              -6.8721
       184                         -0.2501946              -6.8081
       ...                                ...                  ...
       346                          1.1512054              31.3259
      -------------------------------------------------------------
                  HL-Gap            0.0348395 Eh            0.9480 eV
             Fermi-level           -0.3544178 Eh           -9.6442 eV

     #   Z          covCN         q      C6AA      α(0)
     1   6 C        2.920    -0.012    28.314     8.726
     2   6 C        3.007    -0.043    29.048     8.841
     3   6 C        2.873     0.230    23.187     7.894
     4   8 O        0.966    -0.399    21.605     6.235
     5   6 C        3.052    -0.014    28.300     8.725
     6   6 C        2.910    -0.038    28.951     8.823
     7   6 C        2.789     0.185    24.045     8.032
     8   9 F        0.787    -0.239    11.643     4.031
     9   6 C        2.919    -0.044    29.081     8.843
    10   6 C        2.917    -0.023    28.583     8.767
    11   6 C        3.034     0.006    27.863     8.658
    12   6 C        3.020     0.037    27.147     8.547
    13   6 C        2.947     0.003    27.963     8.673
    14   6 C        1.945     0.132    27.861     8.524
    15   7 N        0.911    -0.280    27.231     7.547
    16   6 C        1.947     0.134    27.817     8.517
    17   7 N        0.911    -0.282    27.266     7.552
    18   6 C        2.992     0.018    27.600     8.618
    19   6 C        3.093     0.012    27.639     8.617
    20   6 C        3.804    -0.061    21.670     6.627
    21   6 C        3.754    -0.109    22.638     6.785
    22   6 C        3.180     0.014    27.278     8.526
    23  16 S        2.166    -0.041   142.734    20.108
    24   6 C        3.095     0.010    27.690     8.624
    25   6 C        3.085    -0.038    28.850     8.805
    26   6 C        3.341     0.069    24.028     7.751
    27   6 C        3.341     0.069    24.017     7.747
    28   7 N        1.854    -0.301    28.656     7.934
    29  16 S        2.687     0.305   129.246    19.134
    30   7 N        1.854    -0.298    28.564     7.921
    31   6 C        3.084    -0.039    28.861     8.807
    32   6 C        3.103     0.005    27.773     8.635
    33  16 S        2.171    -0.042   142.812    20.113
    34   6 C        3.156     0.008    27.546     8.582
    35   6 C        3.144     0.021    27.297     8.549
    36  16 S        2.275    -0.031   142.322    20.079
    37   6 C        3.006     0.023    27.475     8.598
    38   6 C        3.084     0.020    27.473     8.592
    39   6 C        3.803    -0.052    21.507     6.602
    40   6 C        3.752    -0.115    22.761     6.803
    41   6 C        3.200     0.009    27.262     8.509
    42  16 S        2.205     0.002   140.962    19.983
    43   6 C        3.129     0.007    27.665     8.611
    44   6 C        3.244     0.032    26.331     8.314
    45   7 N        2.799    -0.011    21.463     6.881
    46   6 C        3.075     0.033    27.186     8.549
    47   6 C        3.076     0.037    27.083     8.532
    48   7 N        2.796    -0.014    21.522     6.890
    49   6 C        3.257     0.031    26.194     8.274
    50   6 C        3.107     0.006    27.755     8.632
    51  16 S        2.324     0.007   140.775    19.969
    52   6 C        3.746    -0.019    20.990     6.535
    53   6 C        3.752    -0.122    22.893     6.823
    54   6 C        3.742    -0.012    20.858     6.516
    55   6 C        3.752    -0.137    23.191     6.868
    56   6 C        2.948    -0.004    28.131     8.699
    57   6 C        3.008    -0.036    28.889     8.817
    58   6 C        2.866     0.235    23.088     7.876
    59   8 O        0.856    -0.404    21.763     6.255
    60   6 C        3.050    -0.013    28.294     8.724
    61   6 C        2.910    -0.037    28.924     8.819
    62   6 C        2.789     0.186    24.021     8.028
    63   9 F        0.787    -0.237    11.624     4.027
    64   6 C        2.919    -0.042    29.054     8.839
    65   6 C        2.916    -0.022    28.559     8.763
    66   6 C        3.030     0.008    27.820     8.652
    67   6 C        3.018     0.038    27.123     8.543
    68   6 C        2.947     0.006    27.890     8.662
    69   6 C        1.937     0.134    27.809     8.516
    70   7 N        0.911    -0.276    27.129     7.533
    71   6 C        1.936     0.132    27.867     8.525
    72   7 N        0.911    -0.279    27.194     7.542
    73   1 H        0.925     0.078     2.005     2.214
    74   1 H        0.926     0.096     1.824     2.112
    75   1 H        0.926     0.096     1.819     2.109
    76   1 H        0.926     0.075     2.026     2.226
    77   1 H        0.924     0.068     2.111     2.272
    78   1 H        0.924     0.059     2.212     2.326
    79   1 H        0.925     0.060     2.197     2.318
    80   1 H        0.925     0.040     2.453     2.449
    81   1 H        0.925     0.050     2.320     2.382
    82   1 H        0.925     0.039     2.457     2.451
    83   1 H        0.924     0.070     2.089     2.260
    84   1 H        0.925     0.058     2.219     2.330
    85   1 H        0.925     0.061     2.193     2.316
    86   1 H        0.925     0.054     2.269     2.356
    87   1 H        0.925     0.096     1.824     2.112
    88   1 H        0.924     0.085     1.927     2.171
    89   1 H        0.925     0.047     2.358     2.401
    90   1 H        0.925     0.053     2.282     2.362
    91   1 H        0.925     0.071     2.072     2.251
    92   1 H        0.924     0.080     1.976     2.198
    93   1 H        0.924     0.077     2.011     2.218
    94   1 H        0.925     0.064     2.157     2.297
    95   1 H        0.925     0.069     2.096     2.264
    96   1 H        0.925     0.074     2.039     2.233
    97   1 H        0.925     0.072     2.068     2.249
    98   1 H        0.926     0.096     1.823     2.111
    99   1 H        0.926     0.099     1.797     2.096
   100   1 H        0.926     0.078     2.003     2.213

 Mol. C6AA /au·bohr⁶  :     198501.833083
 Mol. C8AA /au·bohr⁸  :    5711378.362821
 Mol. α(0) /au        :        709.496051


Wiberg/Mayer (AO) data.
largest (>0.10) Wiberg bond orders for each atom

 ---------------------------------------------------------------------------
     #   Z sym  total        # sym  WBO       # sym  WBO       # sym  WBO
 ---------------------------------------------------------------------------
     1   6 C    3.939 --     2 C    1.445    18 C    1.350    73 H    0.930
     2   6 C    3.953 --     1 C    1.445    12 C    1.156     3 C    1.086
     3   6 C    3.911 --     4 O    1.680     2 C    1.086     5 C    1.018
     4   8 O    2.083 --     3 C    1.680    51 S    0.127
     5   6 C    3.975 --     6 C    1.426    11 C    1.297     3 C    1.018
     6   6 C    3.975 --     5 C    1.426     7 C    1.377    74 H    0.959
     7   6 C    3.861 --     9 C    1.396     6 C    1.377     8 F    0.951
     8   9 F    1.076 --     7 C    0.951
     9   6 C    3.973 --    10 C    1.429     7 C    1.396    75 H    0.961
    10   6 C    3.972 --     9 C    1.429    11 C    1.404    76 H    0.959
    11   6 C    3.980 --    10 C    1.404     5 C    1.297    12 C    1.080
    12   6 C    3.965 --    13 C    1.465     2 C    1.156    11 C    1.080
    13   6 C    3.942 --    12 C    1.465    14 C    1.104    16 C    1.101
    14   6 C    3.941 --    15 N    2.736    13 C    1.104
    15   7 N    2.953 --    14 C    2.736
    16   6 C    3.940 --    17 N    2.748    13 C    1.101
    17   7 N    2.955 --    16 C    2.748
    18   6 C    3.931 --     1 C    1.350    19 C    1.309    51 S    1.068
    19   6 C    3.954 --    22 C    1.378    18 C    1.309    20 C    1.020
    20   6 C    3.990 --    19 C    1.020    21 C    0.989    77 H    0.966
                            78 H    0.962
    21   6 C    3.987 --    20 C    0.989    81 H    0.988    80 H    0.987
                            79 H    0.983
    22   6 C    3.927 --    19 C    1.378    50 C    1.278    23 S    1.075
    23  16 S    2.499 --    24 C    1.113    22 C    1.075
    24   6 C    3.913 --    49 C    1.292    25 C    1.283    23 S    1.113
    25   6 C    3.954 --    24 C    1.283    47 C    1.260    26 C    1.171
    26   6 C    3.970 --    30 N    1.424    25 C    1.171    27 C    1.164
                            29 S    0.106
    27   6 C    3.970 --    28 N    1.423    31 C    1.173    26 C    1.164
                            29 S    0.106
    28   7 N    3.058 --    27 C    1.423    29 S    1.381    30 N    0.145
    29  16 S    3.096 --    30 N    1.381    28 N    1.381    26 C    0.106
                            27 C    0.106
    30   7 N    3.060 --    26 C    1.424    29 S    1.381    28 N    0.145
    31   6 C    3.953 --    32 C    1.275    46 C    1.266    27 C    1.173
    32   6 C    3.916 --    44 C    1.299    31 C    1.275    33 S    1.111
    33  16 S    2.521 --    32 C    1.111    34 C    1.096
    34   6 C    3.925 --    43 C    1.336    35 C    1.281    33 S    1.096
    35   6 C    3.937 --    41 C    1.313    34 C    1.281    36 S    1.141
    36  16 S    2.545 --    35 C    1.141    37 C    1.067
    37   6 C    3.924 --    38 C    1.395    56 C    1.252    36 S    1.067
    38   6 C    3.954 --    37 C    1.395    41 C    1.313    39 C    1.016
    39   6 C    3.991 --    38 C    1.016    40 C    1.000    82 H    0.973
                            83 H    0.951
    40   6 C    3.986 --    39 C    1.000    86 H    0.983    85 H    0.977
                            84 H    0.977
    41   6 C    3.930 --    38 C    1.313    35 C    1.313    42 S    1.087
    42  16 S    2.545 --    43 C    1.105    41 C    1.087
    43   6 C    3.920 --    34 C    1.336    44 C    1.249    42 S    1.105
    44   6 C    3.940 --    32 C    1.299    43 C    1.249    45 N    1.169
    45   7 N    3.571 --    46 C    1.184    44 C    1.169    54 C    0.969
    46   6 C    3.934 --    31 C    1.266    47 C    1.219    45 N    1.184
    47   6 C    3.929 --    25 C    1.260    46 C    1.219    48 N    1.188
    48   7 N    3.564 --    47 C    1.188    49 C    1.161    52 C    0.969
    49   6 C    3.941 --    24 C    1.292    50 C    1.262    48 N    1.161
    50   6 C    3.941 --    22 C    1.278    49 C    1.262    51 S    1.161
    51  16 S    2.719 --    50 C    1.161    18 C    1.068     4 O    0.127
    52   6 C    3.944 --    53 C    1.005    48 N    0.969    88 H    0.960
                            87 H    0.950
    53   6 C    3.985 --    52 C    1.005    89 H    0.986    90 H    0.984
                            91 H    0.979
    54   6 C    3.947 --    55 C    1.007    45 N    0.969    93 H    0.961
                            92 H    0.960
    55   6 C    3.980 --    54 C    1.007    96 H    0.980    95 H    0.978
                            94 H    0.977
    56   6 C    3.939 --    57 C    1.517    37 C    1.252    97 H    0.943
    57   6 C    3.957 --    56 C    1.517    67 C    1.149    58 C    1.035
    58   6 C    3.920 --    59 O    1.738    57 C    1.035    60 C    1.016
    59   8 O    2.033 --    58 C    1.738
    60   6 C    3.977 --    61 C    1.424    66 C    1.296    58 C    1.016
    61   6 C    3.977 --    60 C    1.424    62 C    1.379    98 H    0.959
    62   6 C    3.861 --    64 C    1.392    61 C    1.379    63 F    0.953
    63   9 F    1.078 --    62 C    0.953
    64   6 C    3.973 --    65 C    1.433    62 C    1.392    99 H    0.961
    65   6 C    3.973 --    64 C    1.433    66 C    1.399   100 H    0.959
    66   6 C    3.982 --    65 C    1.399    60 C    1.296    67 C    1.085
    67   6 C    3.969 --    68 C    1.469    57 C    1.149    66 C    1.085
    68   6 C    3.947 --    67 C    1.469    69 C    1.102    71 C    1.101
    69   6 C    3.941 --    70 N    2.753    68 C    1.102
    70   7 N    2.957 --    69 C    2.753
    71   6 C    3.942 --    72 N    2.750    68 C    1.101
    72   7 N    2.954 --    71 C    2.750
    73   1 H    0.993 --     1 C    0.930
    74   1 H    0.990 --     6 C    0.959
    75   1 H    0.990 --     9 C    0.961
    76   1 H    0.994 --    10 C    0.959
    77   1 H    0.994 --    20 C    0.966
    78   1 H    0.995 --    20 C    0.962
    79   1 H    0.994 --    21 C    0.983
    80   1 H    0.998 --    21 C    0.987
    81   1 H    0.997 --    21 C    0.988
    82   1 H    0.998 --    39 C    0.973
    83   1 H    0.993 --    39 C    0.951
    84   1 H    0.996 --    40 C    0.977
    85   1 H    0.996 --    40 C    0.977
    86   1 H    0.996 --    40 C    0.983
    87   1 H    0.989 --    52 C    0.950
    88   1 H    0.992 --    52 C    0.960
    89   1 H    0.998 --    53 C    0.986
    90   1 H    0.997 --    53 C    0.984
    91   1 H    0.994 --    53 C    0.979
    92   1 H    0.992 --    54 C    0.960
    93   1 H    0.991 --    54 C    0.961
    94   1 H    0.996 --    55 C    0.977
    95   1 H    0.995 --    55 C    0.978
    96   1 H    0.994 --    55 C    0.980
    97   1 H    0.991 --    56 C    0.943
    98   1 H    0.990 --    61 C    0.959
    99   1 H    0.990 --    64 C    0.961
   100   1 H    0.993 --    65 C    0.959
 ---------------------------------------------------------------------------

Topologies differ in bond orders
Writing corrected topology to xtbtopo.mol

molecular dipole:
                 x           y           z       tot (Debye)
 q only:       -1.607      -0.351       1.611
   full:       -1.710       0.011       1.906       6.509
molecular quadrupole (traceless):
                xx          xy          yy          xz          yz          zz
 q only:       62.704      76.654     -21.375     -62.057     103.885     -41.330
  q+dip:       53.692      85.684     -12.850     -64.106     104.386     -40.841
   full:       59.454      95.459     -13.221     -64.527     107.776     -46.233


           -------------------------------------------------
          | TOTAL ENERGY             -190.358311137561 Eh   |
          | GRADIENT NORM               0.035309071009 Eh/α |
          | HOMO-LUMO GAP               0.948032244002 eV   |
           -------------------------------------------------

------------------------------------------------------------------------
 * finished run on 2022/02/01 at 16:23:37.675     
------------------------------------------------------------------------
 total:
 * wall-time:     0 d,  0 h,  0 min,  0.287 sec
 *  cpu-time:     0 d,  0 h,  0 min,  2.206 sec
 * ratio c/w:     7.686 speedup
 SCF:
 * wall-time:     0 d,  0 h,  0 min,  0.226 sec
 *  cpu-time:     0 d,  0 h,  0 min,  1.799 sec
 * ratio c/w:     7.964 speedup

