      -----------------------------------------------------------      
     |                   =====================                   |     
     |                           x T B                           |     
     |                   =====================                   |     
     |                         S. Grimme                         |     
     |          Mulliken Center for Theoretical Chemistry        |     
     |                    University of Bonn                     |     
      -----------------------------------------------------------      

   * xtb version 6.4.1 (unknown) compiled by 'oda6@login1.crc.pitt.edu' on 2021-06-25

   xtb is free software: you can redistribute it and/or modify it under
   the terms of the GNU Lesser General Public License as published by
   the Free Software Foundation, either version 3 of the License, or
   (at your option) any later version.
   
   xtb is distributed in the hope that it will be useful,
   but WITHOUT ANY WARRANTY; without even the implied warranty of
   MERCHANTABILITY or FITNESS FOR A PARTICULAR PURPOSE.  See the
   GNU Lesser General Public License for more details.
   
   Cite this work as:
   * C. Bannwarth, E. Caldeweyher, S. Ehlert, A. Hansen, P. Pracht,
     J. Seibert, S. Spicher, S. Grimme, WIREs Comput. Mol. Sci., 2020, 11,
     e01493. DOI: 10.1002/wcms.1493
   
   for GFN2-xTB:
   * C. Bannwarth, S. Ehlert and S. Grimme., J. Chem. Theory Comput., 2019,
     15, 1652-1671. DOI: 10.1021/acs.jctc.8b01176
   for GFN1-xTB:
   * S. Grimme, C. Bannwarth, P. Shushkov, J. Chem. Theory Comput., 2017,
     13, 1989-2009. DOI: 10.1021/acs.jctc.7b00118
   for GFN0-xTB:
   * P. Pracht, E. Caldeweyher, S. Ehlert, S. Grimme, ChemRxiv, 2019, preprint.
     DOI: 10.26434/chemrxiv.8326202.v1
   for GFN-FF:
   * S. Spicher and S. Grimme, Angew. Chem. Int. Ed., 2020, 59, 15665-15673.
     DOI: 10.1002/anie.202004239
   
   for DFT-D4:
   * E. Caldeweyher, C. Bannwarth and S. Grimme, J. Chem. Phys., 2017,
     147, 034112. DOI: 10.1063/1.4993215
   * E. Caldeweyher, S. Ehlert, A. Hansen, H. Neugebauer, S. Spicher,
     C. Bannwarth and S. Grimme, J. Chem. Phys., 2019, 150, 154122.
     DOI: 10.1063/1.5090222
   * E. Caldeweyher, J.-M. Mewes, S. Ehlert and S. Grimme, Phys. Chem. Chem. Phys.
     2020, 22, 8499-8512. DOI: 10.1039/D0CP00502A
   
   for sTDA-xTB:
   * S. Grimme and C. Bannwarth, J. Chem. Phys., 2016, 145, 054103.
     DOI: 10.1063/1.4959605
   
   in the mass-spec context:
   * V. Asgeirsson, C. Bauer and S. Grimme, Chem. Sci., 2017, 8, 4879.
     DOI: 10.1039/c7sc00601b
   * J. Koopman and S. Grimme, ACS Omega 2019, 4, 12, 15120-15133.
     DOI: 10.1021/acsomega.9b02011
   
   for metadynamics refer to:
   * S. Grimme, J. Chem. Theory Comput., 2019, 155, 2847-2862
     DOI: 10.1021/acs.jctc.9b00143
   
   for SPH calculations refer to:
   * S. Spicher and S. Grimme, J. Chem. Theory Comput., 2021, 17, 1701-1714
     DOI: 10.1021/acs.jctc.0c01306
   
   with help from (in alphabetical order)
   P. Atkinson, C. Bannwarth, F. Bohle, G. Brandenburg, E. Caldeweyher
   M. Checinski, S. Dohm, S. Ehlert, S. Ehrlich, I. Gerasimov, J. Koopman
   C. Lavigne, S. Lehtola, F. März, M. Müller, F. Musil, H. Neugebauer
   J. Pisarek, C. Plett, P. Pracht, J. Seibert, P. Shushkov, S. Spicher
   M. Stahn, M. Steiner, T. Strunk, J. Stückrath, T. Rose, and J. Unsleber
   
 * started run on 2022/02/01 at 17:04:29.648     

           -------------------------------------------------
          |                Calculation Setup                |
           -------------------------------------------------

          program call               : /ihome/ghutchison/oda6/xtb/xtb-641/bin/xtb ../../GFN2_output/38_64_50.mol --sp --alpb water
          hostname                   : smp-n98
          coordinate file            : ../../GFN2_output/38_64_50.mol
          omp threads                :                     8
          number of atoms            :                   151
          number of electrons        :                   446
          charge                     :                     0
          spin                       :                   0.0
          first test random number   :      0.59461023730313

   ID    Z sym.   atoms
    1    6 C      1-3, 5, 6, 8-15, 17, 19, 21, 22, 24-68, 70-77, 80-83, 85,
                  88-90
    2    8 O      4, 7, 86, 91
    3    7 N      16, 18, 69, 87
    4   16 S      20, 23, 78, 79, 84
    5    1 H      92-151

           -------------------------------------------------
          |                 G F N 2 - x T B                 |
           -------------------------------------------------

        Reference                      10.1021/acs.jctc.8b01176
      * Hamiltonian:
        H0-scaling (s, p, d)           1.850000    2.230000    2.230000
        zeta-weighting                 0.500000
      * Dispersion:
        s8                             2.700000
        a1                             0.520000
        a2                             5.000000
        s9                             5.000000
      * Repulsion:
        kExp                           1.500000    1.000000
        rExp                           1.000000
      * Coulomb:
        alpha                          2.000000
        third order                    shell-resolved
        anisotropic                    true
        a3                             3.000000
        a5                             4.000000
        cn-shift                       1.200000
        cn-exp                         4.000000
        max-rad                        5.000000

      * Solvation model:               ALPB
        Solvent                        water
        Parameter file                 internal GFN2-xTB/ALPB
        Dielectric constant                8.0200E+01
        Reference state                gsolv [1 M gas/solution]
        Free energy shift                  1.0808E-03 Eh       6.7819E-01 kcal/mol
        Temperature                        2.9815E+02 K
        Density                            1.0000E+00 kg/L
        Solvent mass                       1.8000E+01 g/mol
        Interaction kernel             P16
        Born radius scaling (c1)           1.4744E+00
        Born radii integrator          GBOBC
        Born offset                        0.0000E+00 a0       0.0000E+00 AA
        H-bond correction              true
        Ion screening                  false
        Surface tension                    1.0000E-05 Eh       1.5569E+01 dyn/cm
        Grid points                               230 per atom

          ...................................................
          :                      SETUP                      :
          :.................................................:
          :  # basis functions                 454          :
          :  # atomic orbitals                 449          :
          :  # shells                          247          :
          :  # electrons                       446          :
          :  max. iterations                   250          :
          :  Hamiltonian                  GFN2-xTB          :
          :  restarted?                      false          :
          :  GBSA solvation                   true          :
          :  PC potential                    false          :
          :  electronic temp.          300.0000000     K    :
          :  accuracy                    1.0000000          :
          :  -> integral cutoff          0.2500000E+02      :
          :  -> integral neglect         0.1000000E-07      :
          :  -> SCF convergence          0.1000000E-05 Eh   :
          :  -> wf. convergence          0.1000000E-03 e    :
          :  Broyden damping             0.4000000          :
          ...................................................

 iter      E             dE          RMSdq      gap      omega  full diag
   1   -245.5923157 -0.245592E+03  0.422E+00    0.95       0.0  T
   2   -245.7864310 -0.194115E+00  0.240E+00    1.11       1.0  T
   3   -245.7255288  0.609022E-01  0.114E+00    0.95       1.0  T
   4   -245.8120397 -0.865109E-01  0.420E-01    1.08       1.0  T
   5   -245.8274104 -0.153707E-01  0.132E-01    1.00       1.0  T
   6   -245.8282779 -0.867562E-03  0.661E-02    1.03       1.0  T
   7   -245.8284870 -0.209088E-03  0.233E-02    1.02       1.0  T
   8   -245.8285114 -0.243677E-04  0.108E-02    1.02       1.0  T
   9   -245.8285160 -0.465751E-05  0.461E-03    1.02       1.8  T
  10   -245.8285167 -0.672570E-06  0.237E-03    1.02       3.4  T
  11   -245.8285170 -0.313997E-06  0.121E-03    1.02       6.7  T
  12   -245.8285171 -0.358524E-07  0.639E-04    1.02      12.7  T
  13   -245.8285171 -0.121922E-07  0.350E-04    1.02      23.2  T

   *** convergence criteria satisfied after 13 iterations ***

         #    Occupation            Energy/Eh            Energy/eV
      -------------------------------------------------------------
         1        2.0000           -0.7561540             -20.5760
       ...           ...                  ...                  ...
       217        2.0000           -0.3926987             -10.6859
       218        2.0000           -0.3912335             -10.6460
       219        2.0000           -0.3861511             -10.5077
       220        2.0000           -0.3849284             -10.4744
       221        2.0000           -0.3839623             -10.4481
       222        2.0000           -0.3744341             -10.1889
       223        2.0000           -0.3674485              -9.9988 (HOMO)
       224                         -0.3298833              -8.9766 (LUMO)
       225                         -0.3191649              -8.6849
       226                         -0.3126262              -8.5070
       227                         -0.2780672              -7.5666
       228                         -0.2604228              -7.0865
       ...                                ...                  ...
       449                          1.1517401              31.3404
      -------------------------------------------------------------
                  HL-Gap            0.0375652 Eh            1.0222 eV
             Fermi-level           -0.3486656 Eh           -9.4877 eV

 SCC (total)                   0 d,  0 h,  0 min,  0.372 sec
 SCC setup                      ...        0 min,  0.004 sec (  1.077%)
 Dispersion                     ...        0 min,  0.006 sec (  1.713%)
 classical contributions        ...        0 min,  0.000 sec (  0.064%)
 integral evaluation            ...        0 min,  0.020 sec (  5.455%)
 iterations                     ...        0 min,  0.273 sec ( 73.380%)
 molecular gradient             ...        0 min,  0.066 sec ( 17.867%)
 printout                       ...        0 min,  0.002 sec (  0.423%)

         :::::::::::::::::::::::::::::::::::::::::::::::::::::
         ::                     SUMMARY                     ::
         :::::::::::::::::::::::::::::::::::::::::::::::::::::
         :: total energy            -241.884944578302 Eh    ::
         :: total w/o Gsasa/hb      -241.873995501597 Eh    ::
         :: gradient norm              0.044469417504 Eh/a0 ::
         :: HOMO-LUMO gap              1.022201042687 eV    ::
         ::.................................................::
         :: SCC energy              -245.828517071470 Eh    ::
         :: -> isotropic ES            0.166375132426 Eh    ::
         :: -> anisotropic ES          0.014943860316 Eh    ::
         :: -> anisotropic XC          0.128462696158 Eh    ::
         :: -> dispersion             -0.232847396116 Eh    ::
         :: -> Gsolv                  -0.042855439501 Eh    ::
         ::    -> Gelec               -0.031906362796 Eh    ::
         ::    -> Gsasa               -0.005893504134 Eh    ::
         ::    -> Ghb                 -0.006136332268 Eh    ::
         ::    -> Gshift               0.001080759698 Eh    ::
         :: repulsion energy           3.939072069273 Eh    ::
         :: add. restraining           0.000000000000 Eh    ::
         :: total charge               0.000000000003 e     ::
         :::::::::::::::::::::::::::::::::::::::::::::::::::::

           -------------------------------------------------
          |                Property Printout                |
           -------------------------------------------------

    * Orbital Energies and Occupations

         #    Occupation            Energy/Eh            Energy/eV
      -------------------------------------------------------------
         1        2.0000           -0.7561540             -20.5760
       ...           ...                  ...                  ...
       211        2.0000           -0.4027849             -10.9603
       212        2.0000           -0.4024479             -10.9512
       213        2.0000           -0.4017841             -10.9331
       214        2.0000           -0.4007067             -10.9038
       215        2.0000           -0.3970705             -10.8048
       216        2.0000           -0.3928620             -10.6903
       217        2.0000           -0.3926987             -10.6859
       218        2.0000           -0.3912335             -10.6460
       219        2.0000           -0.3861511             -10.5077
       220        2.0000           -0.3849284             -10.4744
       221        2.0000           -0.3839623             -10.4481
       222        2.0000           -0.3744341             -10.1889
       223        2.0000           -0.3674485              -9.9988 (HOMO)
       224                         -0.3298833              -8.9766 (LUMO)
       225                         -0.3191649              -8.6849
       226                         -0.3126262              -8.5070
       227                         -0.2780672              -7.5666
       228                         -0.2604228              -7.0865
       229                         -0.2504877              -6.8161
       230                         -0.2488540              -6.7717
       231                         -0.2477312              -6.7411
       232                         -0.2397283              -6.5233
       233                         -0.2373920              -6.4598
       234                         -0.2355974              -6.4109
       ...                                ...                  ...
       449                          1.1517401              31.3404
      -------------------------------------------------------------
                  HL-Gap            0.0375652 Eh            1.0222 eV
             Fermi-level           -0.3486656 Eh           -9.4877 eV

     #   Z          covCN         q      C6AA      α(0)
     1   6 C        2.918    -0.016    28.415     8.741
     2   6 C        3.009    -0.043    29.049     8.841
     3   6 C        2.873     0.231    23.172     7.891
     4   8 O        0.966    -0.413    21.884     6.275
     5   6 C        3.043    -0.050    29.187     8.861
     6   6 C        2.860     0.164    24.463     8.107
     7   8 O        1.706    -0.260    18.315     5.778
     8   6 C        3.646     0.013    20.696     6.538
     9   6 C        2.918    -0.063    29.558     8.915
    10   6 C        2.921    -0.025    28.622     8.773
    11   6 C        2.912    -0.038    28.950     8.823
    12   6 C        3.038     0.007    27.829     8.653
    13   6 C        3.019     0.035    27.189     8.553
    14   6 C        2.947    -0.002    28.083     8.692
    15   6 C        1.950     0.134    27.811     8.516
    16   7 N        0.911    -0.288    27.433     7.575
    17   6 C        1.948     0.132    27.863     8.524
    18   7 N        0.911    -0.292    27.522     7.588
    19   6 C        2.996     0.028    27.375     8.583
    20  16 S        2.305    -0.010   141.462    20.018
    21   6 C        3.081    -0.003    28.006     8.676
    22   6 C        3.116    -0.005    27.987     8.665
    23  16 S        2.167    -0.035   142.492    20.091
    24   6 C        3.092     0.022    27.408     8.581
    25   6 C        3.041     0.007    27.833     8.653
    26   6 C        2.908    -0.036    28.886     8.813
    27   6 C        3.082     0.008    27.742     8.635
    28   6 C        3.950     0.014    20.266     6.397
    29   6 C        2.981     0.011    27.758     8.642
    30   6 C        2.922    -0.040    29.000     8.831
    31   6 C        2.925    -0.042    29.049     8.839
    32   6 C        2.971     0.012    27.749     8.641
    33   6 C        3.806    -0.064    21.719     6.634
    34   6 C        3.754    -0.107    22.594     6.778
    35   6 C        2.925    -0.042    29.044     8.838
    36   6 C        2.923    -0.037    28.929     8.820
    37   6 C        2.980     0.010    27.788     8.647
    38   6 C        2.921    -0.041    29.030     8.836
    39   6 C        2.925    -0.043    29.064     8.841
    40   6 C        2.971     0.011    27.759     8.642
    41   6 C        3.806    -0.064    21.722     6.635
    42   6 C        3.754    -0.106    22.579     6.776
    43   6 C        2.925    -0.041    29.024     8.835
    44   6 C        2.923    -0.036    28.896     8.815
    45   6 C        3.236    -0.003    27.212     8.464
    46   6 C        3.072     0.027    27.320     8.570
    47   6 C        3.041     0.004    27.887     8.661
    48   6 C        2.908    -0.035    28.877     8.811
    49   6 C        3.082     0.007    27.775     8.640
    50   6 C        3.950     0.018    20.208     6.388
    51   6 C        2.980     0.010    27.799     8.649
    52   6 C        2.922    -0.037    28.932     8.821
    53   6 C        2.925    -0.041    29.011     8.833
    54   6 C        2.971     0.014    27.697     8.633
    55   6 C        3.806    -0.063    21.697     6.631
    56   6 C        3.754    -0.107    22.599     6.779
    57   6 C        2.925    -0.041    29.009     8.833
    58   6 C        2.924    -0.038    28.934     8.821
    59   6 C        2.980     0.009    27.818     8.652
    60   6 C        2.923    -0.040    29.004     8.832
    61   6 C        2.925    -0.042    29.040     8.837
    62   6 C        2.970     0.012    27.735     8.638
    63   6 C        3.806    -0.064    21.716     6.634
    64   6 C        3.754    -0.107    22.600     6.779
    65   6 C        2.925    -0.042    29.040     8.837
    66   6 C        2.923    -0.039    28.973     8.827
    67   6 C        3.167    -0.017    28.081     8.659
    68   6 C        3.229     0.043    26.264     8.323
    69   7 N        2.814    -0.032    21.858     6.944
    70   6 C        3.273     0.043    25.732     8.174
    71   6 C        3.035    -0.054    29.311     8.880
    72   6 C        2.934     0.060    26.648     8.466
    73   6 C        3.094    -0.059    29.346     8.879
    74   6 C        3.115    -0.063    29.384     8.879
    75   6 C        2.985     0.026    27.405     8.587
    76   6 C        3.827    -0.061    21.657     6.622
    77   6 C        3.753    -0.112    22.692     6.793
    78  16 S        2.333    -0.042   142.798    20.112
    79  16 S        2.294     0.006   140.797    19.971
    80   6 C        2.995     0.023    27.473     8.598
    81   6 C        3.053    -0.042    28.997     8.831
    82   6 C        3.013    -0.019    28.466     8.752
    83   6 C        2.952    -0.011    28.290     8.724
    84  16 S        2.224    -0.117   145.939    20.332
    85   6 C        2.772     0.311    21.720     7.633
    86   8 O        0.869    -0.445    22.585     6.372
    87   7 N        2.855    -0.097    23.141     7.145
    88   6 C        3.746     0.006    20.549     6.466
    89   6 C        3.752    -0.121    22.873     6.820
    90   6 C        2.872     0.276    22.337     7.747
    91   8 O        0.858    -0.453    22.770     6.398
    92   1 H        0.925     0.068     2.105     2.269
    93   1 H        0.925     0.091     1.868     2.137
    94   1 H        0.924     0.067     2.117     2.275
    95   1 H        0.924     0.067     2.117     2.275
    96   1 H        0.926     0.079     1.990     2.206
    97   1 H        0.926     0.078     1.998     2.211
    98   1 H        0.926     0.058     2.221     2.330
    99   1 H        0.926     0.055     2.262     2.352
   100   1 H        0.926     0.028     2.614     2.528
   101   1 H        0.926     0.037     2.492     2.469
   102   1 H        0.924     0.042     2.425     2.435
   103   1 H        0.924     0.042     2.428     2.437
   104   1 H        0.925     0.043     2.406     2.426
   105   1 H        0.925     0.039     2.465     2.455
   106   1 H        0.925     0.039     2.462     2.454
   107   1 H        0.926     0.039     2.459     2.452
   108   1 H        0.926     0.035     2.516     2.481
   109   1 H        0.926     0.032     2.552     2.498
   110   1 H        0.926     0.038     2.479     2.462
   111   1 H        0.924     0.042     2.419     2.432
   112   1 H        0.924     0.042     2.416     2.431
   113   1 H        0.925     0.038     2.481     2.463
   114   1 H        0.925     0.043     2.403     2.424
   115   1 H        0.925     0.036     2.497     2.471
   116   1 H        0.926     0.036     2.504     2.475
   117   1 H        0.926     0.033     2.537     2.491
   118   1 H        0.926     0.059     2.206     2.323
   119   1 H        0.926     0.040     2.448     2.447
   120   1 H        0.925     0.041     2.430     2.438
   121   1 H        0.924     0.045     2.385     2.415
   122   1 H        0.924     0.040     2.445     2.445
   123   1 H        0.925     0.040     2.450     2.448
   124   1 H        0.925     0.042     2.416     2.431
   125   1 H        0.925     0.037     2.492     2.469
   126   1 H        0.926     0.036     2.508     2.477
   127   1 H        0.926     0.023     2.688     2.564
   128   1 H        0.926     0.028     2.608     2.526
   129   1 H        0.926     0.037     2.490     2.467
   130   1 H        0.924     0.041     2.436     2.441
   131   1 H        0.924     0.042     2.425     2.435
   132   1 H        0.925     0.040     2.445     2.445
   133   1 H        0.925     0.039     2.459     2.452
   134   1 H        0.925     0.043     2.412     2.429
   135   1 H        0.926     0.038     2.471     2.458
   136   1 H        0.926     0.038     2.479     2.462
   137   1 H        0.926     0.070     2.084     2.257
   138   1 H        0.926     0.052     2.299     2.371
   139   1 H        0.926     0.055     2.256     2.349
   140   1 H        0.924     0.059     2.213     2.327
   141   1 H        0.924     0.060     2.199     2.319
   142   1 H        0.925     0.052     2.294     2.368
   143   1 H        0.925     0.044     2.402     2.424
   144   1 H        0.925     0.046     2.370     2.407
   145   1 H        0.926     0.081     1.968     2.194
   146   1 H        0.925     0.095     1.830     2.116
   147   1 H        0.924     0.085     1.924     2.169
   148   1 H        0.924     0.071     2.078     2.255
   149   1 H        0.925     0.052     2.299     2.371
   150   1 H        0.925     0.056     2.249     2.345
   151   1 H        0.925     0.074     2.044     2.236

 Mol. C6AA /au·bohr⁶  :     350197.324020
 Mol. C8AA /au·bohr⁸  :    9456856.820375
 Mol. α(0) /au        :        942.900078


Wiberg/Mayer (AO) data.
largest (>0.10) Wiberg bond orders for each atom

 ---------------------------------------------------------------------------
     #   Z sym  total        # sym  WBO       # sym  WBO       # sym  WBO
 ---------------------------------------------------------------------------
     1   6 C    3.939 --     2 C    1.472    19 C    1.321    92 H    0.938
     2   6 C    3.950 --     1 C    1.472    13 C    1.163     3 C    1.058
     3   6 C    3.913 --     4 O    1.673     2 C    1.058     5 C    1.048
     4   8 O    2.081 --     3 C    1.673    20 S    0.127
     5   6 C    3.968 --     6 C    1.317    12 C    1.294     3 C    1.048
     6   6 C    3.932 --     9 C    1.320     5 C    1.317     7 O    1.119
     7   8 O    2.282 --     6 C    1.119     8 C    0.961
     8   6 C    3.916 --    93 H    0.976    94 H    0.974    95 H    0.974
                             7 O    0.961
     9   6 C    3.966 --    10 C    1.467     6 C    1.320    96 H    0.961
    10   6 C    3.976 --     9 C    1.467    11 C    1.402    97 H    0.966
    11   6 C    3.976 --    12 C    1.412    10 C    1.402    98 H    0.961
    12   6 C    3.979 --    11 C    1.412     5 C    1.294    13 C    1.078
    13   6 C    3.960 --    14 C    1.455     2 C    1.163    12 C    1.078
    14   6 C    3.948 --    13 C    1.455    17 C    1.106    15 C    1.104
    15   6 C    3.939 --    16 N    2.742    14 C    1.104
    16   7 N    2.951 --    15 C    2.742
    17   6 C    3.939 --    18 N    2.731    14 C    1.106
    18   7 N    2.948 --    17 C    2.731
    19   6 C    3.926 --    71 C    1.351     1 C    1.321    20 S    1.084
    20  16 S    2.684 --    21 C    1.156    19 C    1.084     4 O    0.127
                            71 C    0.106
    21   6 C    3.934 --    22 C    1.325    70 C    1.221    20 S    1.156
    22   6 C    3.915 --    21 C    1.325    68 C    1.260    23 S    1.106
    23  16 S    2.534 --    24 C    1.134    22 C    1.106
    24   6 C    3.880 --    67 C    1.414    25 C    1.153    23 S    1.134
    25   6 C    3.952 --    26 C    1.346    49 C    1.277    24 C    1.153
    26   6 C    3.972 --    27 C    1.466    25 C    1.346    99 H    0.963
    27   6 C    3.962 --    26 C    1.466    47 C    1.278    28 C    0.972
    28   6 C    3.987 --    45 C    0.974    27 C    0.972    37 C    0.956
                            29 C    0.947
    29   6 C    3.982 --    30 C    1.412    36 C    1.404    28 C    0.947
                            32 C    0.105
    30   6 C    3.990 --    31 C    1.446    29 C    1.412   100 H    0.967
                            35 C    0.108
    31   6 C    3.991 --    30 C    1.446    32 C    1.411   101 H    0.969
                            36 C    0.109
    32   6 C    3.986 --    31 C    1.411    35 C    1.407    33 C    1.013
                            29 C    0.105
    33   6 C    3.997 --    32 C    1.013    34 C    1.000   102 H    0.974
                           103 H    0.973
    34   6 C    3.995 --    33 C    1.000   106 H    0.988   105 H    0.988
                           104 H    0.986
    35   6 C    3.990 --    36 C    1.451    32 C    1.407   107 H    0.968
                            30 C    0.108
    36   6 C    3.989 --    35 C    1.451    29 C    1.404   108 H    0.967
                            31 C    0.109
    37   6 C    3.983 --    38 C    1.417    44 C    1.401    28 C    0.956
                            40 C    0.105
    38   6 C    3.989 --    39 C    1.442    37 C    1.417   109 H    0.966
                            43 C    0.107
    39   6 C    3.991 --    38 C    1.442    40 C    1.415   110 H    0.968
                            44 C    0.109
    40   6 C    3.986 --    39 C    1.415    43 C    1.404    41 C    1.013
                            37 C    0.105
    41   6 C    3.997 --    40 C    1.013    42 C    1.001   112 H    0.974
                           111 H    0.973
    42   6 C    3.995 --    41 C    1.001   113 H    0.988   115 H    0.988
                           114 H    0.986
    43   6 C    3.990 --    44 C    1.456    40 C    1.404   116 H    0.969
                            38 C    0.107
    44   6 C    3.990 --    43 C    1.456    37 C    1.401   117 H    0.968
                            39 C    0.109
    45   6 C    3.967 --    81 C    1.390    46 C    1.363    28 C    0.974
    46   6 C    3.927 --    45 C    1.363    79 S    1.195    47 C    1.156
    47   6 C    3.958 --    48 C    1.341    27 C    1.278    46 C    1.156
    48   6 C    3.972 --    49 C    1.474    47 C    1.341   118 H    0.962
    49   6 C    3.963 --    48 C    1.474    25 C    1.277    50 C    0.966
    50   6 C    3.985 --    67 C    0.967    49 C    0.966    51 C    0.961
                            59 C    0.950
    51   6 C    3.983 --    58 C    1.407    52 C    1.404    50 C    0.961
                            54 C    0.105
    52   6 C    3.989 --    53 C    1.448    51 C    1.404   119 H    0.966
                            57 C    0.107
    53   6 C    3.989 --    52 C    1.448    54 C    1.408   120 H    0.968
                            58 C    0.108
    54   6 C    3.986 --    57 C    1.409    53 C    1.408    55 C    1.013
                            51 C    0.105
    55   6 C    3.997 --    54 C    1.013    56 C    1.000   122 H    0.974
                           121 H    0.973
    56   6 C    3.995 --    55 C    1.000   125 H    0.988   123 H    0.988
                           124 H    0.986
    57   6 C    3.991 --    58 C    1.447    54 C    1.409   126 H    0.969
                            52 C    0.107
    58   6 C    3.991 --    57 C    1.447    51 C    1.407   127 H    0.967
                            53 C    0.108
    59   6 C    3.982 --    66 C    1.410    60 C    1.406    50 C    0.950
                            62 C    0.105
    60   6 C    3.991 --    61 C    1.453    59 C    1.406   128 H    0.967
                            65 C    0.108
    61   6 C    3.990 --    60 C    1.453    62 C    1.406   129 H    0.969
                            66 C    0.108
    62   6 C    3.985 --    65 C    1.412    61 C    1.406    63 C    1.013
                            59 C    0.105
    63   6 C    3.996 --    62 C    1.013    64 C    1.000   131 H    0.974
                           130 H    0.973
    64   6 C    3.995 --    63 C    1.000   132 H    0.988   133 H    0.988
                           134 H    0.986
    65   6 C    3.989 --    66 C    1.444    62 C    1.412   135 H    0.968
                            60 C    0.108
    66   6 C    3.989 --    65 C    1.444    59 C    1.410   136 H    0.961
                            61 C    0.108
    67   6 C    3.953 --    24 C    1.414    68 C    1.286    50 C    0.967
    68   6 C    3.915 --    67 C    1.286    22 C    1.260    69 N    1.135
    69   7 N    3.575 --    68 C    1.135    70 C    1.118    72 C    1.039
    70   6 C    3.933 --    71 C    1.384    21 C    1.221    69 N    1.118
    71   6 C    3.963 --    70 C    1.384    19 C    1.351   137 H    0.959
                            20 S    0.106
    72   6 C    3.919 --    73 C    1.569    78 S    1.124    69 N    1.039
                            75 C    0.107
    73   6 C    3.977 --    72 C    1.569    74 C    1.271   138 H    0.963
    74   6 C    3.982 --    75 C    1.596    73 C    1.271   139 H    0.962
    75   6 C    3.942 --    74 C    1.596    78 S    1.157    76 C    1.027
                            72 C    0.107
    76   6 C    3.994 --    75 C    1.027    77 C    1.006   140 H    0.968
                           141 H    0.956
    77   6 C    3.993 --    76 C    1.006   143 H    0.988   142 H    0.985
                           144 H    0.983
    78  16 S    2.609 --    75 C    1.157    72 C    1.124
    79  16 S    2.602 --    46 C    1.195    80 C    1.087
    80   6 C    3.932 --    81 C    1.396    82 C    1.268    79 S    1.087
    81   6 C    3.974 --    80 C    1.396    45 C    1.390   145 H    0.944
    82   6 C    3.969 --    83 C    1.545    80 C    1.268   146 H    0.952
    83   6 C    3.914 --    82 C    1.545    90 C    1.084    84 S    1.045
    84  16 S    2.418 --    83 C    1.045    85 C    1.010    86 O    0.162
    85   6 C    3.940 --    86 O    1.685    87 N    1.175    84 S    1.010
    86   8 O    2.037 --    85 C    1.685    84 S    0.162    87 N    0.129
    87   7 N    3.569 --    85 C    1.175    90 C    1.102    88 C    0.951
                            86 O    0.129    91 O    0.122
    88   6 C    3.944 --    89 C    1.010   148 H    0.968   147 H    0.964
                            87 N    0.951
    89   6 C    3.989 --    88 C    1.010   149 H    0.986   150 H    0.986
                           151 H    0.980
    90   6 C    3.933 --    91 O    1.632    87 N    1.102    83 C    1.084
    91   8 O    2.000 --    90 C    1.632    87 N    0.122
    92   1 H    0.994 --     1 C    0.938
    93   1 H    0.991 --     8 C    0.976
    94   1 H    0.995 --     8 C    0.974
    95   1 H    0.995 --     8 C    0.974
    96   1 H    0.993 --     9 C    0.961
    97   1 H    0.994 --    10 C    0.966
    98   1 H    0.996 --    11 C    0.961
    99   1 H    0.996 --    26 C    0.963
   100   1 H    0.999 --    30 C    0.967
   101   1 H    0.998 --    31 C    0.969
   102   1 H    0.998 --    33 C    0.974
   103   1 H    0.998 --    33 C    0.973
   104   1 H    0.997 --    34 C    0.986
   105   1 H    0.998 --    34 C    0.988
   106   1 H    0.998 --    34 C    0.988
   107   1 H    0.998 --    35 C    0.968
   108   1 H    0.998 --    36 C    0.967
   109   1 H    0.999 --    38 C    0.966
   110   1 H    0.998 --    39 C    0.968
   111   1 H    0.998 --    41 C    0.973
   112   1 H    0.998 --    41 C    0.974
   113   1 H    0.999 --    42 C    0.988
   114   1 H    0.997 --    42 C    0.986
   115   1 H    0.999 --    42 C    0.988
   116   1 H    0.998 --    43 C    0.969
   117   1 H    0.998 --    44 C    0.968
   118   1 H    0.995 --    48 C    0.962
   119   1 H    0.998 --    52 C    0.966
   120   1 H    0.998 --    53 C    0.968
   121   1 H    0.998 --    55 C    0.973
   122   1 H    0.998 --    55 C    0.974
   123   1 H    0.998 --    56 C    0.988
   124   1 H    0.997 --    56 C    0.986
   125   1 H    0.999 --    56 C    0.988
   126   1 H    0.998 --    57 C    0.969
   127   1 H    0.999 --    58 C    0.967
   128   1 H    0.999 --    60 C    0.967
   129   1 H    0.998 --    61 C    0.969
   130   1 H    0.998 --    63 C    0.973
   131   1 H    0.998 --    63 C    0.974
   132   1 H    0.998 --    64 C    0.988
   133   1 H    0.998 --    64 C    0.988
   134   1 H    0.997 --    64 C    0.986
   135   1 H    0.998 --    65 C    0.968
   136   1 H    0.998 --    66 C    0.961
   137   1 H    0.994 --    71 C    0.959
   138   1 H    0.997 --    73 C    0.963
   139   1 H    0.996 --    74 C    0.962
   140   1 H    0.996 --    76 C    0.968
   141   1 H    0.996 --    76 C    0.956
   142   1 H    0.997 --    77 C    0.985
   143   1 H    0.998 --    77 C    0.988
   144   1 H    0.998 --    77 C    0.983
   145   1 H    0.993 --    81 C    0.944
   146   1 H    0.990 --    82 C    0.952
   147   1 H    0.993 --    88 C    0.964
   148   1 H    0.994 --    88 C    0.968
   149   1 H    0.997 --    89 C    0.986
   150   1 H    0.997 --    89 C    0.986
   151   1 H    0.993 --    89 C    0.980
 ---------------------------------------------------------------------------

Topologies differ in bond orders
Writing corrected topology to xtbtopo.mol

molecular dipole:
                 x           y           z       tot (Debye)
 q only:        0.128      -0.079      -0.498
   full:        0.023      -0.568      -0.794       2.482
molecular quadrupole (traceless):
                xx          xy          yy          xz          yz          zz
 q only:      -58.667     141.725      30.699     -78.635      98.339      27.968
  q+dip:      -52.265     142.774      27.384     -74.659      93.685      24.880
   full:      -54.557     142.336      22.963     -78.279      88.522      31.594


           -------------------------------------------------
          | TOTAL ENERGY             -241.884944578302 Eh   |
          | GRADIENT NORM               0.044469417504 Eh/α |
          | HOMO-LUMO GAP               1.022201042687 eV   |
           -------------------------------------------------

------------------------------------------------------------------------
 * finished run on 2022/02/01 at 17:04:30.097     
------------------------------------------------------------------------
 total:
 * wall-time:     0 d,  0 h,  0 min,  0.449 sec
 *  cpu-time:     0 d,  0 h,  0 min,  3.500 sec
 * ratio c/w:     7.796 speedup
 SCF:
 * wall-time:     0 d,  0 h,  0 min,  0.374 sec
 *  cpu-time:     0 d,  0 h,  0 min,  2.982 sec
 * ratio c/w:     7.975 speedup

