      -----------------------------------------------------------      
     |                   =====================                   |     
     |                           x T B                           |     
     |                   =====================                   |     
     |                         S. Grimme                         |     
     |          Mulliken Center for Theoretical Chemistry        |     
     |                    University of Bonn                     |     
      -----------------------------------------------------------      

   * xtb version 6.4.1 (unknown) compiled by 'oda6@login1.crc.pitt.edu' on 2021-06-25

   xtb is free software: you can redistribute it and/or modify it under
   the terms of the GNU Lesser General Public License as published by
   the Free Software Foundation, either version 3 of the License, or
   (at your option) any later version.
   
   xtb is distributed in the hope that it will be useful,
   but WITHOUT ANY WARRANTY; without even the implied warranty of
   MERCHANTABILITY or FITNESS FOR A PARTICULAR PURPOSE.  See the
   GNU Lesser General Public License for more details.
   
   Cite this work as:
   * C. Bannwarth, E. Caldeweyher, S. Ehlert, A. Hansen, P. Pracht,
     J. Seibert, S. Spicher, S. Grimme, WIREs Comput. Mol. Sci., 2020, 11,
     e01493. DOI: 10.1002/wcms.1493
   
   for GFN2-xTB:
   * C. Bannwarth, S. Ehlert and S. Grimme., J. Chem. Theory Comput., 2019,
     15, 1652-1671. DOI: 10.1021/acs.jctc.8b01176
   for GFN1-xTB:
   * S. Grimme, C. Bannwarth, P. Shushkov, J. Chem. Theory Comput., 2017,
     13, 1989-2009. DOI: 10.1021/acs.jctc.7b00118
   for GFN0-xTB:
   * P. Pracht, E. Caldeweyher, S. Ehlert, S. Grimme, ChemRxiv, 2019, preprint.
     DOI: 10.26434/chemrxiv.8326202.v1
   for GFN-FF:
   * S. Spicher and S. Grimme, Angew. Chem. Int. Ed., 2020, 59, 15665-15673.
     DOI: 10.1002/anie.202004239
   
   for DFT-D4:
   * E. Caldeweyher, C. Bannwarth and S. Grimme, J. Chem. Phys., 2017,
     147, 034112. DOI: 10.1063/1.4993215
   * E. Caldeweyher, S. Ehlert, A. Hansen, H. Neugebauer, S. Spicher,
     C. Bannwarth and S. Grimme, J. Chem. Phys., 2019, 150, 154122.
     DOI: 10.1063/1.5090222
   * E. Caldeweyher, J.-M. Mewes, S. Ehlert and S. Grimme, Phys. Chem. Chem. Phys.
     2020, 22, 8499-8512. DOI: 10.1039/D0CP00502A
   
   for sTDA-xTB:
   * S. Grimme and C. Bannwarth, J. Chem. Phys., 2016, 145, 054103.
     DOI: 10.1063/1.4959605
   
   in the mass-spec context:
   * V. Asgeirsson, C. Bauer and S. Grimme, Chem. Sci., 2017, 8, 4879.
     DOI: 10.1039/c7sc00601b
   * J. Koopman and S. Grimme, ACS Omega 2019, 4, 12, 15120-15133.
     DOI: 10.1021/acsomega.9b02011
   
   for metadynamics refer to:
   * S. Grimme, J. Chem. Theory Comput., 2019, 155, 2847-2862
     DOI: 10.1021/acs.jctc.9b00143
   
   for SPH calculations refer to:
   * S. Spicher and S. Grimme, J. Chem. Theory Comput., 2021, 17, 1701-1714
     DOI: 10.1021/acs.jctc.0c01306
   
   with help from (in alphabetical order)
   P. Atkinson, C. Bannwarth, F. Bohle, G. Brandenburg, E. Caldeweyher
   M. Checinski, S. Dohm, S. Ehlert, S. Ehrlich, I. Gerasimov, J. Koopman
   C. Lavigne, S. Lehtola, F. März, M. Müller, F. Musil, H. Neugebauer
   J. Pisarek, C. Plett, P. Pracht, J. Seibert, P. Shushkov, S. Spicher
   M. Stahn, M. Steiner, T. Strunk, J. Stückrath, T. Rose, and J. Unsleber
   
 * started run on 2022/02/02 at 07:54:09.468     

           -------------------------------------------------
          |                Calculation Setup                |
           -------------------------------------------------

          program call               : /ihome/ghutchison/oda6/xtb/xtb-641/bin/xtb ../../GFN2_output/39_100_50.mol --sp --alpb water
          hostname                   : smp-n98
          coordinate file            : ../../GFN2_output/39_100_50.mol
          omp threads                :                     8
          number of atoms            :                   125
          number of electrons        :                   390
          charge                     :                     0
          spin                       :                   0.0
          first test random number   :      0.83744458443615

   ID    Z sym.   atoms
    1    6 C      1-3, 5-13, 15, 17-34, 36-39, 43, 44, 46-56, 58, 59, 61, 62,
                  64, 65, 67-72, 74, 77-79
    2    8 O      4, 75, 80
    3    7 N      14, 16, 40, 42, 60, 63, 76
    4   16 S      35, 41, 45, 57, 66, 73
    5    1 H      81-125

           -------------------------------------------------
          |                 G F N 2 - x T B                 |
           -------------------------------------------------

        Reference                      10.1021/acs.jctc.8b01176
      * Hamiltonian:
        H0-scaling (s, p, d)           1.850000    2.230000    2.230000
        zeta-weighting                 0.500000
      * Dispersion:
        s8                             2.700000
        a1                             0.520000
        a2                             5.000000
        s9                             5.000000
      * Repulsion:
        kExp                           1.500000    1.000000
        rExp                           1.000000
      * Coulomb:
        alpha                          2.000000
        third order                    shell-resolved
        anisotropic                    true
        a3                             3.000000
        a5                             4.000000
        cn-shift                       1.200000
        cn-exp                         4.000000
        max-rad                        5.000000

      * Solvation model:               ALPB
        Solvent                        water
        Parameter file                 internal GFN2-xTB/ALPB
        Dielectric constant                8.0200E+01
        Reference state                gsolv [1 M gas/solution]
        Free energy shift                  1.0808E-03 Eh       6.7819E-01 kcal/mol
        Temperature                        2.9815E+02 K
        Density                            1.0000E+00 kg/L
        Solvent mass                       1.8000E+01 g/mol
        Interaction kernel             P16
        Born radius scaling (c1)           1.4744E+00
        Born radii integrator          GBOBC
        Born offset                        0.0000E+00 a0       0.0000E+00 AA
        H-bond correction              true
        Ion screening                  false
        Surface tension                    1.0000E-05 Eh       1.5569E+01 dyn/cm
        Grid points                               230 per atom

          ...................................................
          :                      SETUP                      :
          :.................................................:
          :  # basis functions                 401          :
          :  # atomic orbitals                 395          :
          :  # shells                          211          :
          :  # electrons                       390          :
          :  max. iterations                   250          :
          :  Hamiltonian                  GFN2-xTB          :
          :  restarted?                      false          :
          :  GBSA solvation                   true          :
          :  PC potential                    false          :
          :  electronic temp.          300.0000000     K    :
          :  accuracy                    1.0000000          :
          :  -> integral cutoff          0.2500000E+02      :
          :  -> integral neglect         0.1000000E-07      :
          :  -> SCF convergence          0.1000000E-05 Eh   :
          :  -> wf. convergence          0.1000000E-03 e    :
          :  Broyden damping             0.4000000          :
          ...................................................

 iter      E             dE          RMSdq      gap      omega  full diag
   1   -215.1819558 -0.215182E+03  0.449E+00    1.23       0.0  T
   2   -215.4168370 -0.234881E+00  0.264E+00    1.08       1.0  T
   3   -215.3796457  0.371913E-01  0.131E+00    1.19       1.0  T
   4   -215.4650048 -0.853591E-01  0.476E-01    1.13       1.0  T
   5   -215.4801755 -0.151707E-01  0.172E-01    1.07       1.0  T
   6   -215.4816671 -0.149160E-02  0.842E-02    1.12       1.0  T
   7   -215.4819650 -0.297819E-03  0.316E-02    1.11       1.0  T
   8   -215.4819950 -0.300870E-04  0.153E-02    1.11       1.0  T
   9   -215.4820002 -0.516866E-05  0.813E-03    1.11       1.1  T
  10   -215.4820016 -0.142792E-05  0.420E-03    1.11       2.1  T
  11   -215.4820025 -0.837957E-06  0.222E-03    1.11       4.0  T
  12   -215.4820026 -0.137517E-06  0.115E-03    1.11       7.8  T
  13   -215.4820027 -0.449562E-07  0.452E-04    1.11      19.8  T
  14   -215.4820027 -0.664116E-08  0.227E-04    1.11      39.4  T

   *** convergence criteria satisfied after 14 iterations ***

         #    Occupation            Energy/Eh            Energy/eV
      -------------------------------------------------------------
         1        2.0000           -0.7615148             -20.7219
       ...           ...                  ...                  ...
       189        2.0000           -0.3998799             -10.8813
       190        2.0000           -0.3982111             -10.8359
       191        2.0000           -0.3910487             -10.6410
       192        2.0000           -0.3875461             -10.5457
       193        2.0000           -0.3857544             -10.4969
       194        2.0000           -0.3769310             -10.2568
       195        2.0000           -0.3701460             -10.0722 (HOMO)
       196                         -0.3293487              -8.9620 (LUMO)
       197                         -0.3191689              -8.6850
       198                         -0.3145043              -8.5581
       199                         -0.3007916              -8.1850
       200                         -0.2703701              -7.3571
       ...                                ...                  ...
       395                          1.1554653              31.4418
      -------------------------------------------------------------
                  HL-Gap            0.0407974 Eh            1.1102 eV
             Fermi-level           -0.3497470 Eh           -9.5171 eV

 SCC (total)                   0 d,  0 h,  0 min,  0.334 sec
 SCC setup                      ...        0 min,  0.003 sec (  0.882%)
 Dispersion                     ...        0 min,  0.005 sec (  1.450%)
 classical contributions        ...        0 min,  0.000 sec (  0.051%)
 integral evaluation            ...        0 min,  0.017 sec (  5.063%)
 iterations                     ...        0 min,  0.260 sec ( 77.945%)
 molecular gradient             ...        0 min,  0.047 sec ( 14.184%)
 printout                       ...        0 min,  0.001 sec (  0.399%)

         :::::::::::::::::::::::::::::::::::::::::::::::::::::
         ::                     SUMMARY                     ::
         :::::::::::::::::::::::::::::::::::::::::::::::::::::
         :: total energy            -212.218742693313 Eh    ::
         :: total w/o Gsasa/hb      -212.210021163707 Eh    ::
         :: gradient norm              0.045330067593 Eh/a0 ::
         :: HOMO-LUMO gap              1.110152424651 eV    ::
         ::.................................................::
         :: SCC energy              -215.482002668573 Eh    ::
         :: -> isotropic ES            0.174569971694 Eh    ::
         :: -> anisotropic ES          0.006395836498 Eh    ::
         :: -> anisotropic XC          0.113797819351 Eh    ::
         :: -> dispersion             -0.201234264119 Eh    ::
         :: -> Gsolv                  -0.045849166324 Eh    ::
         ::    -> Gelec               -0.037127636718 Eh    ::
         ::    -> Gsasa               -0.003806905348 Eh    ::
         ::    -> Ghb                 -0.005995383956 Eh    ::
         ::    -> Gshift               0.001080759698 Eh    ::
         :: repulsion energy           3.261821876320 Eh    ::
         :: add. restraining           0.000000000000 Eh    ::
         :: total charge               0.000000000001 e     ::
         :::::::::::::::::::::::::::::::::::::::::::::::::::::

           -------------------------------------------------
          |                Property Printout                |
           -------------------------------------------------

    * Orbital Energies and Occupations

         #    Occupation            Energy/Eh            Energy/eV
      -------------------------------------------------------------
         1        2.0000           -0.7615148             -20.7219
       ...           ...                  ...                  ...
       183        2.0000           -0.4103014             -11.1649
       184        2.0000           -0.4093157             -11.1380
       185        2.0000           -0.4087151             -11.1217
       186        2.0000           -0.4057941             -11.0422
       187        2.0000           -0.4043923             -11.0041
       188        2.0000           -0.4031709             -10.9708
       189        2.0000           -0.3998799             -10.8813
       190        2.0000           -0.3982111             -10.8359
       191        2.0000           -0.3910487             -10.6410
       192        2.0000           -0.3875461             -10.5457
       193        2.0000           -0.3857544             -10.4969
       194        2.0000           -0.3769310             -10.2568
       195        2.0000           -0.3701460             -10.0722 (HOMO)
       196                         -0.3293487              -8.9620 (LUMO)
       197                         -0.3191689              -8.6850
       198                         -0.3145043              -8.5581
       199                         -0.3007916              -8.1850
       200                         -0.2703701              -7.3571
       201                         -0.2639036              -7.1812
       202                         -0.2481356              -6.7521
       203                         -0.2473147              -6.7298
       204                         -0.2454880              -6.6801
       205                         -0.2419087              -6.5827
       206                         -0.2409619              -6.5569
       ...                                ...                  ...
       395                          1.1554653              31.4418
      -------------------------------------------------------------
                  HL-Gap            0.0407974 Eh            1.1102 eV
             Fermi-level           -0.3497470 Eh           -9.5171 eV

     #   Z          covCN         q      C6AA      α(0)
     1   6 C        2.923    -0.013    28.343     8.730
     2   6 C        3.010    -0.042    29.013     8.836
     3   6 C        2.875     0.231    23.159     7.889
     4   8 O        0.856    -0.437    22.427     6.349
     5   6 C        3.061    -0.024    28.536     8.760
     6   6 C        2.904    -0.025    28.626     8.773
     7   6 C        3.261     0.013    26.546     8.324
     8   6 C        3.257     0.015    26.550     8.330
     9   6 C        2.904    -0.033    28.815     8.802
    10   6 C        3.052     0.006    27.845     8.654
    11   6 C        3.026     0.041    27.051     8.531
    12   6 C        2.948     0.001    28.008     8.680
    13   6 C        1.927     0.133    27.844     8.522
    14   7 N        0.911    -0.281    27.262     7.552
    15   6 C        1.936     0.131    27.877     8.527
    16   7 N        0.911    -0.285    27.355     7.564
    17   6 C        4.163    -0.028    20.977     6.505
    18   6 C        4.012    -0.017    20.792     6.478
    19   6 C        2.988    -0.043    29.063     8.843
    20   6 C        2.987    -0.043    29.056     8.842
    21   6 C        4.012    -0.016    20.790     6.477
    22   6 C        3.927    -0.066    21.694     6.619
    23   6 C        4.161    -0.028    20.978     6.505
    24   6 C        2.992     0.017    27.619     8.621
    25   6 C        3.114     0.012    27.598     8.606
    26   6 C        2.980     0.003    27.953     8.673
    27   6 C        2.925    -0.036    28.886     8.814
    28   6 C        2.919    -0.036    28.904     8.816
    29   6 C        2.918    -0.034    28.846     8.807
    30   6 C        2.926    -0.040    28.991     8.830
    31   6 C        2.972     0.014    27.688     8.631
    32   6 C        3.806    -0.061    21.676     6.628
    33   6 C        3.753    -0.101    22.481     6.761
    34   6 C        3.190     0.014    27.219     8.510
    35  16 S        2.170    -0.037   142.582    20.097
    36   6 C        3.101     0.007    27.737     8.630
    37   6 C        3.087    -0.039    28.866     8.807
    38   6 C        3.342     0.069    24.003     7.744
    39   6 C        3.341     0.069    24.004     7.744
    40   7 N        1.854    -0.298    28.564     7.921
    41  16 S        2.687     0.304   129.280    19.137
    42   7 N        1.854    -0.300    28.636     7.931
    43   6 C        3.087    -0.038    28.851     8.805
    44   6 C        3.100     0.006    27.761     8.634
    45  16 S        2.171    -0.039   142.650    20.102
    46   6 C        3.184     0.015    27.229     8.516
    47   6 C        3.108     0.009    27.683     8.620
    48   6 C        2.979     0.004    27.932     8.669
    49   6 C        2.972     0.015    27.680     8.630
    50   6 C        3.806    -0.064    21.731     6.636
    51   6 C        3.754    -0.104    22.540     6.770
    52   6 C        2.926    -0.040    29.000     8.831
    53   6 C        2.918    -0.034    28.845     8.807
    54   6 C        2.919    -0.037    28.912     8.817
    55   6 C        2.927    -0.037    28.912     8.818
    56   6 C        2.998     0.019    27.568     8.613
    57  16 S        2.343    -0.017   141.746    20.038
    58   6 C        3.116     0.014    27.539     8.596
    59   6 C        3.248     0.030    26.347     8.312
    60   7 N        2.799    -0.009    21.425     6.875
    61   6 C        3.073     0.035    27.132     8.540
    62   6 C        3.072     0.038    27.080     8.532
    63   7 N        2.799    -0.011    21.467     6.881
    64   6 C        3.246     0.030    26.369     8.318
    65   6 C        3.115     0.016    27.484     8.587
    66  16 S        2.250    -0.047   143.010    20.127
    67   6 C        3.743    -0.013    20.889     6.520
    68   6 C        3.752    -0.127    22.995     6.838
    69   6 C        3.743    -0.017    20.947     6.529
    70   6 C        3.752    -0.126    22.979     6.836
    71   6 C        2.953    -0.018    28.463     8.750
    72   6 C        2.956    -0.012    28.306     8.726
    73  16 S        2.274    -0.102   145.327    20.290
    74   6 C        2.775     0.310    21.740     7.637
    75   8 O        0.869    -0.435    22.382     6.343
    76   7 N        2.840    -0.096    23.111     7.140
    77   6 C        3.746     0.005    20.558     6.468
    78   6 C        3.752    -0.122    22.890     6.823
    79   6 C        2.879     0.277    22.335     7.748
    80   8 O        0.858    -0.455    22.816     6.404
    81   1 H        0.925     0.073     2.047     2.238
    82   1 H        0.926     0.063     2.160     2.298
    83   1 H        0.926     0.059     2.206     2.322
    84   1 H        0.925     0.061     2.189     2.314
    85   1 H        0.925     0.046     2.374     2.409
    86   1 H        0.926     0.033     2.543     2.494
    87   1 H        0.926     0.030     2.581     2.512
    88   1 H        0.925     0.044     2.402     2.424
    89   1 H        0.925     0.049     2.326     2.385
    90   1 H        0.925     0.049     2.332     2.388
    91   1 H        0.925     0.060     2.198     2.319
    92   1 H        0.926     0.034     2.528     2.486
    93   1 H        0.926     0.044     2.400     2.423
    94   1 H        0.926     0.046     2.370     2.408
    95   1 H        0.926     0.047     2.352     2.398
    96   1 H        0.924     0.040     2.451     2.448
    97   1 H        0.924     0.049     2.337     2.391
    98   1 H        0.925     0.038     2.479     2.462
    99   1 H        0.925     0.049     2.332     2.388
   100   1 H        0.925     0.028     2.615     2.529
   101   1 H        0.925     0.045     2.381     2.413
   102   1 H        0.924     0.048     2.346     2.395
   103   1 H        0.925     0.040     2.452     2.449
   104   1 H        0.925     0.029     2.594     2.519
   105   1 H        0.925     0.047     2.359     2.402
   106   1 H        0.926     0.046     2.371     2.408
   107   1 H        0.926     0.044     2.393     2.419
   108   1 H        0.926     0.043     2.410     2.428
   109   1 H        0.926     0.037     2.492     2.469
   110   1 H        0.924     0.089     1.886     2.147
   111   1 H        0.924     0.078     2.004     2.214
   112   1 H        0.925     0.059     2.212     2.326
   113   1 H        0.925     0.053     2.283     2.363
   114   1 H        0.925     0.073     2.056     2.242
   115   1 H        0.924     0.086     1.919     2.166
   116   1 H        0.924     0.090     1.882     2.145
   117   1 H        0.925     0.054     2.270     2.356
   118   1 H        0.925     0.071     2.075     2.252
   119   1 H        0.925     0.054     2.269     2.356
   120   1 H        0.925     0.088     1.902     2.157
   121   1 H        0.924     0.084     1.935     2.175
   122   1 H        0.924     0.073     2.050     2.239
   123   1 H        0.925     0.075     2.036     2.231
   124   1 H        0.925     0.056     2.252     2.347
   125   1 H        0.925     0.054     2.277     2.360

 Mol. C6AA /au·bohr⁶  :     264396.597336
 Mol. C8AA /au·bohr⁸  :    7372594.798788
 Mol. α(0) /au        :        815.944813


Wiberg/Mayer (AO) data.
largest (>0.10) Wiberg bond orders for each atom

 ---------------------------------------------------------------------------
     #   Z sym  total        # sym  WBO       # sym  WBO       # sym  WBO
 ---------------------------------------------------------------------------
     1   6 C    3.945 --     2 C    1.527    24 C    1.272    81 H    0.942
     2   6 C    3.950 --     1 C    1.527    11 C    1.141     3 C    1.018
     3   6 C    3.909 --     4 O    1.727     5 C    1.029     2 C    1.018
     4   8 O    2.003 --     3 C    1.727
     5   6 C    3.969 --     6 C    1.380    10 C    1.300     3 C    1.029
     6   6 C    3.980 --     7 C    1.441     5 C    1.380    82 H    0.963
     7   6 C    3.954 --     6 C    1.441     8 C    1.324    23 C    0.997
     8   6 C    3.963 --     9 C    1.444     7 C    1.324    17 C    0.998
     9   6 C    3.978 --     8 C    1.444    10 C    1.371    83 H    0.960
    10   6 C    3.976 --     9 C    1.371     5 C    1.300    11 C    1.083
    11   6 C    3.968 --    12 C    1.460     2 C    1.141    10 C    1.083
    12   6 C    3.963 --    11 C    1.460    13 C    1.109    15 C    1.101
    13   6 C    3.942 --    14 N    2.750    12 C    1.109
    14   7 N    2.956 --    13 C    2.750
    15   6 C    3.943 --    16 N    2.749    12 C    1.101
    16   7 N    2.964 --    15 C    2.749
    17   6 C    3.983 --     8 C    0.998    23 C    0.977    84 H    0.957
                            18 C    0.945
    18   6 C    3.988 --    19 C    1.010    22 C    0.985    85 H    0.971
                            17 C    0.945
    19   6 C    3.987 --    20 C    1.924    18 C    1.010    86 H    0.971
    20   6 C    3.987 --    19 C    1.924    21 C    1.010    87 H    0.971
    21   6 C    3.988 --    20 C    1.010    22 C    0.985    88 H    0.971
                            23 C    0.946
    22   6 C    3.991 --    21 C    0.985    18 C    0.985    89 H    0.977
                            90 H    0.976
    23   6 C    3.982 --     7 C    0.997    17 C    0.977    91 H    0.957
                            21 C    0.946
    24   6 C    3.924 --    25 C    1.369     1 C    1.272    66 S    1.067
    25   6 C    3.963 --    24 C    1.369    34 C    1.316    26 C    1.018
    26   6 C    3.985 --    27 C    1.395    31 C    1.368    25 C    1.018
                            29 C    0.106
    27   6 C    3.988 --    28 C    1.445    26 C    1.395    92 H    0.969
                            30 C    0.108
    28   6 C    3.989 --    27 C    1.445    29 C    1.432    93 H    0.969
                            31 C    0.107
    29   6 C    3.988 --    30 C    1.446    28 C    1.432    94 H    0.970
                            26 C    0.106
    30   6 C    3.989 --    29 C    1.446    31 C    1.413    95 H    0.966
                            27 C    0.108
    31   6 C    3.984 --    30 C    1.413    26 C    1.368    32 C    1.014
                            28 C    0.107
    32   6 C    3.996 --    31 C    1.014    33 C    0.999    97 H    0.974
                            96 H    0.968
    33   6 C    3.995 --    32 C    0.999    98 H    0.988   100 H    0.985
                            99 H    0.985
    34   6 C    3.926 --    25 C    1.316    65 C    1.310    35 S    1.085
    35  16 S    2.512 --    36 C    1.114    34 C    1.085
    36   6 C    3.916 --    64 C    1.292    37 C    1.279    35 S    1.114
    37   6 C    3.956 --    36 C    1.279    62 C    1.264    38 C    1.172
    38   6 C    3.970 --    42 N    1.424    37 C    1.172    39 C    1.165
                            41 S    0.106
    39   6 C    3.970 --    40 N    1.424    43 C    1.172    38 C    1.165
                            41 S    0.106
    40   7 N    3.060 --    39 C    1.424    41 S    1.380    42 N    0.145
    41  16 S    3.094 --    40 N    1.380    42 N    1.379    38 C    0.106
                            39 C    0.106
    42   7 N    3.059 --    38 C    1.424    41 S    1.379    40 N    0.145
    43   6 C    3.955 --    44 C    1.277    61 C    1.266    39 C    1.172
    44   6 C    3.917 --    59 C    1.300    43 C    1.277    45 S    1.111
    45  16 S    2.510 --    44 C    1.111    46 C    1.086
    46   6 C    3.927 --    58 C    1.315    47 C    1.310    45 S    1.086
    47   6 C    3.970 --    56 C    1.371    46 C    1.310    48 C    1.023
    48   6 C    3.985 --    55 C    1.391    49 C    1.367    47 C    1.023
                            53 C    0.105
    49   6 C    3.984 --    52 C    1.414    48 C    1.367    50 C    1.014
                            54 C    0.106
    50   6 C    3.995 --    49 C    1.014    51 C    1.000   102 H    0.974
                           101 H    0.966
    51   6 C    3.995 --    50 C    1.000   103 H    0.988   104 H    0.987
                           105 H    0.985
    52   6 C    3.989 --    53 C    1.445    49 C    1.414   106 H    0.967
                            55 C    0.108
    53   6 C    3.986 --    52 C    1.445    54 C    1.432   107 H    0.970
                            48 C    0.105
    54   6 C    3.990 --    55 C    1.446    53 C    1.432   108 H    0.969
                            49 C    0.106
    55   6 C    3.988 --    54 C    1.446    48 C    1.391   109 H    0.970
                            52 C    0.108
    56   6 C    3.930 --    47 C    1.371    71 C    1.266    57 S    1.077
    57  16 S    2.588 --    58 C    1.136    56 C    1.077
    58   6 C    3.927 --    46 C    1.315    59 C    1.244    57 S    1.136
    59   6 C    3.941 --    44 C    1.300    58 C    1.244    60 N    1.170
    60   7 N    3.576 --    61 C    1.185    59 C    1.170    69 C    0.972
    61   6 C    3.934 --    43 C    1.266    62 C    1.216    60 N    1.185
    62   6 C    3.930 --    37 C    1.264    61 C    1.216    63 N    1.185
    63   7 N    3.576 --    62 C    1.185    64 C    1.168    67 C    0.972
    64   6 C    3.943 --    36 C    1.292    65 C    1.254    63 N    1.168
    65   6 C    3.932 --    34 C    1.310    64 C    1.254    66 S    1.131
    66  16 S    2.563 --    65 C    1.131    24 C    1.067
    67   6 C    3.947 --    68 C    1.007    63 N    0.972   111 H    0.961
                           110 H    0.949
    68   6 C    3.984 --    67 C    1.007   113 H    0.986   112 H    0.982
                           114 H    0.980
    69   6 C    3.946 --    70 C    1.007    60 N    0.972   115 H    0.960
                           116 H    0.949
    70   6 C    3.984 --    69 C    1.007   119 H    0.986   117 H    0.982
                           118 H    0.980
    71   6 C    3.972 --    72 C    1.557    56 C    1.266   120 H    0.938
    72   6 C    3.916 --    71 C    1.557    79 C    1.066    73 S    1.060
    73  16 S    2.448 --    72 C    1.060    74 C    0.984    75 O    0.156
    74   6 C    3.937 --    75 O    1.697    76 N    1.179    73 S    0.984
    75   8 O    2.047 --    74 C    1.697    73 S    0.156    76 N    0.130
    76   7 N    3.569 --    74 C    1.179    79 C    1.102    77 C    0.950
                            75 O    0.130    80 O    0.123
    77   6 C    3.942 --    78 C    1.010   122 H    0.968   121 H    0.965
                            76 N    0.950
    78   6 C    3.988 --    77 C    1.010   124 H    0.986   125 H    0.986
                           123 H    0.979
    79   6 C    3.929 --    80 O    1.650    76 N    1.102    72 C    1.066
    80   8 O    1.981 --    79 C    1.650    76 N    0.123
    81   1 H    0.993 --     1 C    0.942
    82   1 H    0.995 --     6 C    0.963
    83   1 H    0.996 --     9 C    0.960
    84   1 H    0.994 --    17 C    0.957
    85   1 H    0.998 --    18 C    0.971
    86   1 H    0.999 --    19 C    0.971
    87   1 H    0.999 --    20 C    0.971
    88   1 H    0.998 --    21 C    0.971
    89   1 H    0.997 --    22 C    0.977
    90   1 H    0.995 --    22 C    0.976
    91   1 H    0.994 --    23 C    0.957
    92   1 H    0.998 --    27 C    0.969
    93   1 H    0.996 --    28 C    0.969
    94   1 H    0.997 --    29 C    0.970
    95   1 H    0.996 --    30 C    0.966
    96   1 H    0.998 --    32 C    0.968
    97   1 H    0.997 --    32 C    0.974
    98   1 H    0.998 --    33 C    0.988
    99   1 H    0.997 --    33 C    0.985
   100   1 H    0.999 --    33 C    0.985
   101   1 H    0.998 --    50 C    0.966
   102   1 H    0.997 --    50 C    0.974
   103   1 H    0.998 --    51 C    0.988
   104   1 H    0.999 --    51 C    0.987
   105   1 H    0.997 --    51 C    0.985
   106   1 H    0.996 --    52 C    0.967
   107   1 H    0.997 --    53 C    0.970
   108   1 H    0.997 --    54 C    0.969
   109   1 H    0.998 --    55 C    0.970
   110   1 H    0.989 --    67 C    0.949
   111   1 H    0.993 --    67 C    0.961
   112   1 H    0.996 --    68 C    0.982
   113   1 H    0.997 --    68 C    0.986
   114   1 H    0.994 --    68 C    0.980
   115   1 H    0.992 --    69 C    0.960
   116   1 H    0.989 --    69 C    0.949
   117   1 H    0.997 --    70 C    0.982
   118   1 H    0.994 --    70 C    0.980
   119   1 H    0.997 --    70 C    0.986
   120   1 H    0.992 --    71 C    0.938
   121   1 H    0.993 --    77 C    0.965
   122   1 H    0.994 --    77 C    0.968
   123   1 H    0.993 --    78 C    0.979
   124   1 H    0.997 --    78 C    0.986
   125   1 H    0.997 --    78 C    0.986
 ---------------------------------------------------------------------------

Topologies differ in bond orders
Writing corrected topology to xtbtopo.mol

molecular dipole:
                 x           y           z       tot (Debye)
 q only:        1.784      -0.820      -0.347
   full:        2.007      -0.889      -0.253       5.616
molecular quadrupole (traceless):
                xx          xy          yy          xz          yz          zz
 q only:       53.498     -31.538     -50.355      67.821      18.171      -3.143
  q+dip:       45.341     -31.905     -47.302      61.631      -4.894       1.961
   full:       45.498     -37.008     -48.293      57.585      -1.052       2.795


           -------------------------------------------------
          | TOTAL ENERGY             -212.218742693313 Eh   |
          | GRADIENT NORM               0.045330067593 Eh/α |
          | HOMO-LUMO GAP               1.110152424651 eV   |
           -------------------------------------------------

------------------------------------------------------------------------
 * finished run on 2022/02/02 at 07:54:09.875     
------------------------------------------------------------------------
 total:
 * wall-time:     0 d,  0 h,  0 min,  0.407 sec
 *  cpu-time:     0 d,  0 h,  0 min,  3.157 sec
 * ratio c/w:     7.757 speedup
 SCF:
 * wall-time:     0 d,  0 h,  0 min,  0.336 sec
 *  cpu-time:     0 d,  0 h,  0 min,  2.681 sec
 * ratio c/w:     7.973 speedup

