      -----------------------------------------------------------      
     |                   =====================                   |     
     |                           x T B                           |     
     |                   =====================                   |     
     |                         S. Grimme                         |     
     |          Mulliken Center for Theoretical Chemistry        |     
     |                    University of Bonn                     |     
      -----------------------------------------------------------      

   * xtb version 6.4.1 (unknown) compiled by 'oda6@login1.crc.pitt.edu' on 2021-06-25

   xtb is free software: you can redistribute it and/or modify it under
   the terms of the GNU Lesser General Public License as published by
   the Free Software Foundation, either version 3 of the License, or
   (at your option) any later version.
   
   xtb is distributed in the hope that it will be useful,
   but WITHOUT ANY WARRANTY; without even the implied warranty of
   MERCHANTABILITY or FITNESS FOR A PARTICULAR PURPOSE.  See the
   GNU Lesser General Public License for more details.
   
   Cite this work as:
   * C. Bannwarth, E. Caldeweyher, S. Ehlert, A. Hansen, P. Pracht,
     J. Seibert, S. Spicher, S. Grimme, WIREs Comput. Mol. Sci., 2020, 11,
     e01493. DOI: 10.1002/wcms.1493
   
   for GFN2-xTB:
   * C. Bannwarth, S. Ehlert and S. Grimme., J. Chem. Theory Comput., 2019,
     15, 1652-1671. DOI: 10.1021/acs.jctc.8b01176
   for GFN1-xTB:
   * S. Grimme, C. Bannwarth, P. Shushkov, J. Chem. Theory Comput., 2017,
     13, 1989-2009. DOI: 10.1021/acs.jctc.7b00118
   for GFN0-xTB:
   * P. Pracht, E. Caldeweyher, S. Ehlert, S. Grimme, ChemRxiv, 2019, preprint.
     DOI: 10.26434/chemrxiv.8326202.v1
   for GFN-FF:
   * S. Spicher and S. Grimme, Angew. Chem. Int. Ed., 2020, 59, 15665-15673.
     DOI: 10.1002/anie.202004239
   
   for DFT-D4:
   * E. Caldeweyher, C. Bannwarth and S. Grimme, J. Chem. Phys., 2017,
     147, 034112. DOI: 10.1063/1.4993215
   * E. Caldeweyher, S. Ehlert, A. Hansen, H. Neugebauer, S. Spicher,
     C. Bannwarth and S. Grimme, J. Chem. Phys., 2019, 150, 154122.
     DOI: 10.1063/1.5090222
   * E. Caldeweyher, J.-M. Mewes, S. Ehlert and S. Grimme, Phys. Chem. Chem. Phys.
     2020, 22, 8499-8512. DOI: 10.1039/D0CP00502A
   
   for sTDA-xTB:
   * S. Grimme and C. Bannwarth, J. Chem. Phys., 2016, 145, 054103.
     DOI: 10.1063/1.4959605
   
   in the mass-spec context:
   * V. Asgeirsson, C. Bauer and S. Grimme, Chem. Sci., 2017, 8, 4879.
     DOI: 10.1039/c7sc00601b
   * J. Koopman and S. Grimme, ACS Omega 2019, 4, 12, 15120-15133.
     DOI: 10.1021/acsomega.9b02011
   
   for metadynamics refer to:
   * S. Grimme, J. Chem. Theory Comput., 2019, 155, 2847-2862
     DOI: 10.1021/acs.jctc.9b00143
   
   for SPH calculations refer to:
   * S. Spicher and S. Grimme, J. Chem. Theory Comput., 2021, 17, 1701-1714
     DOI: 10.1021/acs.jctc.0c01306
   
   with help from (in alphabetical order)
   P. Atkinson, C. Bannwarth, F. Bohle, G. Brandenburg, E. Caldeweyher
   M. Checinski, S. Dohm, S. Ehlert, S. Ehrlich, I. Gerasimov, J. Koopman
   C. Lavigne, S. Lehtola, F. März, M. Müller, F. Musil, H. Neugebauer
   J. Pisarek, C. Plett, P. Pracht, J. Seibert, P. Shushkov, S. Spicher
   M. Stahn, M. Steiner, T. Strunk, J. Stückrath, T. Rose, and J. Unsleber
   
 * started run on 2022/02/02 at 06:37:14.744     

           -------------------------------------------------
          |                Calculation Setup                |
           -------------------------------------------------

          program call               : /ihome/ghutchison/oda6/xtb/xtb-641/bin/xtb ../../GFN2_output/39_130_47.mol --sp --alpb water
          hostname                   : smp-n98
          coordinate file            : ../../GFN2_output/39_130_47.mol
          omp threads                :                     8
          number of atoms            :                   105
          number of electrons        :                   336
          charge                     :                     0
          spin                       :                   0.0
          first test random number   :      0.03471422146573

   ID    Z sym.   atoms
    1    6 C      1-3, 5-13, 15, 17-27, 29-33, 37, 38, 40-44, 46, 47, 49, 50,
                  52-58, 60, 61, 63-67, 69
    2    8 O      4, 59
    3    7 N      14, 16, 28, 34, 36, 48, 51, 68, 70
    4   16 S      35, 39, 45, 62
    5    1 H      71-105

           -------------------------------------------------
          |                 G F N 2 - x T B                 |
           -------------------------------------------------

        Reference                      10.1021/acs.jctc.8b01176
      * Hamiltonian:
        H0-scaling (s, p, d)           1.850000    2.230000    2.230000
        zeta-weighting                 0.500000
      * Dispersion:
        s8                             2.700000
        a1                             0.520000
        a2                             5.000000
        s9                             5.000000
      * Repulsion:
        kExp                           1.500000    1.000000
        rExp                           1.000000
      * Coulomb:
        alpha                          2.000000
        third order                    shell-resolved
        anisotropic                    true
        a3                             3.000000
        a5                             4.000000
        cn-shift                       1.200000
        cn-exp                         4.000000
        max-rad                        5.000000

      * Solvation model:               ALPB
        Solvent                        water
        Parameter file                 internal GFN2-xTB/ALPB
        Dielectric constant                8.0200E+01
        Reference state                gsolv [1 M gas/solution]
        Free energy shift                  1.0808E-03 Eh       6.7819E-01 kcal/mol
        Temperature                        2.9815E+02 K
        Density                            1.0000E+00 kg/L
        Solvent mass                       1.8000E+01 g/mol
        Interaction kernel             P16
        Born radius scaling (c1)           1.4744E+00
        Born radii integrator          GBOBC
        Born offset                        0.0000E+00 a0       0.0000E+00 AA
        H-bond correction              true
        Ion screening                  false
        Surface tension                    1.0000E-05 Eh       1.5569E+01 dyn/cm
        Grid points                               230 per atom

          ...................................................
          :                      SETUP                      :
          :.................................................:
          :  # basis functions                 339          :
          :  # atomic orbitals                 335          :
          :  # shells                          179          :
          :  # electrons                       336          :
          :  max. iterations                   250          :
          :  Hamiltonian                  GFN2-xTB          :
          :  restarted?                      false          :
          :  GBSA solvation                   true          :
          :  PC potential                    false          :
          :  electronic temp.          300.0000000     K    :
          :  accuracy                    1.0000000          :
          :  -> integral cutoff          0.2500000E+02      :
          :  -> integral neglect         0.1000000E-07      :
          :  -> SCF convergence          0.1000000E-05 Eh   :
          :  -> wf. convergence          0.1000000E-03 e    :
          :  Broyden damping             0.4000000          :
          ...................................................

 iter      E             dE          RMSdq      gap      omega  full diag
   1   -185.6042042 -0.185604E+03  0.452E+00    1.00       0.0  T
   2   -185.8186378 -0.214434E+00  0.278E+00    0.82       1.0  T
   3   -185.8046554  0.139824E-01  0.149E+00    1.12       1.0  T
   4   -185.8959895 -0.913341E-01  0.481E-01    0.97       1.0  T
   5   -185.9109558 -0.149663E-01  0.159E-01    0.90       1.0  T
   6   -185.9121679 -0.121212E-02  0.812E-02    0.94       1.0  T
   7   -185.9124094 -0.241546E-03  0.303E-02    0.93       1.0  T
   8   -185.9124235 -0.140983E-04  0.137E-02    0.93       1.0  T
   9   -185.9124302 -0.668963E-05  0.696E-03    0.93       1.4  T
  10   -185.9124311 -0.903192E-06  0.372E-03    0.93       2.6  T
  11   -185.9124316 -0.487092E-06  0.187E-03    0.93       5.2  T
  12   -185.9124317 -0.715681E-07  0.100E-03    0.93       9.8  T
  13   -185.9124317 -0.216918E-07  0.422E-04    0.93      23.1  T
  14   -185.9124317 -0.653961E-08  0.198E-04    0.93      49.3  T

   *** convergence criteria satisfied after 14 iterations ***

         #    Occupation            Energy/Eh            Energy/eV
      -------------------------------------------------------------
         1        2.0000           -0.7600234             -20.6813
       ...           ...                  ...                  ...
       162        2.0000           -0.4085170             -11.1163
       163        2.0000           -0.4022523             -10.9458
       164        2.0000           -0.3913221             -10.6484
       165        2.0000           -0.3879959             -10.5579
       166        2.0000           -0.3853409             -10.4857
       167        2.0000           -0.3742585             -10.1841
       168        2.0000           -0.3673412              -9.9959 (HOMO)
       169                         -0.3332996              -9.0695 (LUMO)
       170                         -0.3246156              -8.8332
       171                         -0.3138259              -8.5396
       172                         -0.3104243              -8.4471
       173                         -0.2977806              -8.1030
       ...                                ...                  ...
       335                          1.1553550              31.4388
      -------------------------------------------------------------
                  HL-Gap            0.0340416 Eh            0.9263 eV
             Fermi-level           -0.3503202 Eh           -9.5327 eV

 SCC (total)                   0 d,  0 h,  0 min,  0.248 sec
 SCC setup                      ...        0 min,  0.003 sec (  1.023%)
 Dispersion                     ...        0 min,  0.004 sec (  1.437%)
 classical contributions        ...        0 min,  0.000 sec (  0.054%)
 integral evaluation            ...        0 min,  0.014 sec (  5.450%)
 iterations                     ...        0 min,  0.195 sec ( 78.539%)
 molecular gradient             ...        0 min,  0.032 sec ( 13.066%)
 printout                       ...        0 min,  0.001 sec (  0.393%)

         :::::::::::::::::::::::::::::::::::::::::::::::::::::
         ::                     SUMMARY                     ::
         :::::::::::::::::::::::::::::::::::::::::::::::::::::
         :: total energy            -182.986169685618 Eh    ::
         :: total w/o Gsasa/hb      -182.967718222209 Eh    ::
         :: gradient norm              0.037958695064 Eh/a0 ::
         :: HOMO-LUMO gap              0.926319651057 eV    ::
         ::.................................................::
         :: SCC energy              -185.912431720669 Eh    ::
         :: -> isotropic ES            0.154714917398 Eh    ::
         :: -> anisotropic ES          0.007605091125 Eh    ::
         :: -> anisotropic XC          0.126981809108 Eh    ::
         :: -> dispersion             -0.166111933454 Eh    ::
         :: -> Gsolv                  -0.053640495868 Eh    ::
         ::    -> Gelec               -0.035189032459 Eh    ::
         ::    -> Gsasa               -0.014340206347 Eh    ::
         ::    -> Ghb                 -0.005192016760 Eh    ::
         ::    -> Gshift               0.001080759698 Eh    ::
         :: repulsion energy           2.926108229173 Eh    ::
         :: add. restraining           0.000000000000 Eh    ::
         :: total charge               0.000000000019 e     ::
         :::::::::::::::::::::::::::::::::::::::::::::::::::::

           -------------------------------------------------
          |                Property Printout                |
           -------------------------------------------------

    * Orbital Energies and Occupations

         #    Occupation            Energy/Eh            Energy/eV
      -------------------------------------------------------------
         1        2.0000           -0.7600234             -20.6813
       ...           ...                  ...                  ...
       156        2.0000           -0.4194257             -11.4132
       157        2.0000           -0.4184128             -11.3856
       158        2.0000           -0.4167710             -11.3409
       159        2.0000           -0.4138770             -11.2622
       160        2.0000           -0.4127099             -11.2304
       161        2.0000           -0.4093012             -11.1377
       162        2.0000           -0.4085170             -11.1163
       163        2.0000           -0.4022523             -10.9458
       164        2.0000           -0.3913221             -10.6484
       165        2.0000           -0.3879959             -10.5579
       166        2.0000           -0.3853409             -10.4857
       167        2.0000           -0.3742585             -10.1841
       168        2.0000           -0.3673412              -9.9959 (HOMO)
       169                         -0.3332996              -9.0695 (LUMO)
       170                         -0.3246156              -8.8332
       171                         -0.3138259              -8.5396
       172                         -0.3104243              -8.4471
       173                         -0.2977806              -8.1030
       174                         -0.2784500              -7.5770
       175                         -0.2581739              -7.0253
       176                         -0.2488748              -6.7722
       177                         -0.2476240              -6.7382
       178                         -0.2462145              -6.6998
       179                         -0.2392714              -6.5109
       ...                                ...                  ...
       335                          1.1553550              31.4388
      -------------------------------------------------------------
                  HL-Gap            0.0340416 Eh            0.9263 eV
             Fermi-level           -0.3503202 Eh           -9.5327 eV

     #   Z          covCN         q      C6AA      α(0)
     1   6 C        2.899    -0.016    28.400     8.738
     2   6 C        3.008    -0.044    29.074     8.845
     3   6 C        2.876     0.229    23.202     7.896
     4   8 O        0.856    -0.441    22.526     6.363
     5   6 C        3.057    -0.025    28.559     8.764
     6   6 C        2.904    -0.026    28.649     8.776
     7   6 C        3.258     0.013    26.602     8.337
     8   6 C        3.257     0.014    26.579     8.335
     9   6 C        2.904    -0.034    28.857     8.808
    10   6 C        3.052     0.004    27.883     8.660
    11   6 C        3.020     0.039    27.103     8.540
    12   6 C        2.948    -0.003    28.099     8.694
    13   6 C        1.938     0.132    27.862     8.524
    14   7 N        0.911    -0.292    27.522     7.587
    15   6 C        1.938     0.131    27.871     8.526
    16   7 N        0.911    -0.287    27.402     7.571
    17   6 C        4.161    -0.025    20.925     6.497
    18   6 C        4.013    -0.016    20.786     6.477
    19   6 C        2.995    -0.044    29.083     8.846
    20   6 C        2.995    -0.044    29.088     8.847
    21   6 C        4.013    -0.016    20.786     6.477
    22   6 C        3.915    -0.063    21.638     6.611
    23   6 C        4.161    -0.024    20.923     6.496
    24   6 C        3.123     0.039    26.937     8.499
    25   6 C        3.004    -0.073    29.795     8.954
    26   6 C        3.234     0.025    26.605     8.371
    27   6 C        3.202     0.030    26.771     8.430
    28   7 N        2.811    -0.005    21.352     6.863
    29   6 C        3.739    -0.014    20.905     6.524
    30   6 C        3.752    -0.122    22.897     6.824
    31   6 C        3.064    -0.045    29.046     8.838
    32   6 C        3.328     0.068    24.285     7.825
    33   6 C        3.340     0.069    24.036     7.753
    34   7 N        1.853    -0.304    28.732     7.945
    35  16 S        2.674     0.294   129.631    19.163
    36   7 N        1.854    -0.295    28.508     7.914
    37   6 C        3.087    -0.039    28.864     8.807
    38   6 C        3.097     0.005    27.803     8.641
    39  16 S        2.182    -0.037   142.572    20.096
    40   6 C        3.197     0.012    27.221     8.505
    41   6 C        3.089     0.017    27.532     8.601
    42   6 C        3.804    -0.050    21.469     6.597
    43   6 C        3.753    -0.111    22.685     6.792
    44   6 C        2.999     0.020    27.542     8.609
    45  16 S        2.280    -0.030   142.276    20.076
    46   6 C        3.119     0.013    27.548     8.596
    47   6 C        3.252     0.030    26.281     8.295
    48   7 N        2.798    -0.016    21.556     6.896
    49   6 C        3.072     0.037    27.095     8.535
    50   6 C        3.077     0.039    27.041     8.526
    51   7 N        2.787    -0.027    21.760     6.928
    52   6 C        3.743    -0.011    20.852     6.514
    53   6 C        3.752    -0.125    22.967     6.834
    54   6 C        3.743    -0.014    20.897     6.521
    55   6 C        3.752    -0.125    22.953     6.832
    56   6 C        2.954    -0.008    28.212     8.712
    57   6 C        3.017    -0.036    28.875     8.814
    58   6 C        2.855     0.236    23.069     7.872
    59   8 O        0.856    -0.424    22.164     6.312
    60   6 C        3.244    -0.036    27.885     8.557
    61   6 C        2.926    -0.016    28.418     8.742
    62  16 S        2.340     0.087   137.564    19.740
    63   6 C        2.927    -0.024    28.603     8.771
    64   6 C        3.239    -0.010    27.337     8.479
    65   6 C        3.010     0.038    27.127     8.544
    66   6 C        2.947    -0.005    28.156     8.703
    67   6 C        1.926     0.129    27.924     8.534
    68   7 N        0.911    -0.290    27.466     7.580
    69   6 C        1.932     0.130    27.906     8.531
    70   7 N        0.911    -0.287    27.393     7.570
    71   1 H        0.925     0.080     1.976     2.198
    72   1 H        0.926     0.062     2.173     2.305
    73   1 H        0.926     0.055     2.259     2.351
    74   1 H        0.925     0.052     2.294     2.368
    75   1 H        0.925     0.043     2.411     2.428
    76   1 H        0.926     0.043     2.405     2.425
    77   1 H        0.926     0.043     2.408     2.427
    78   1 H        0.925     0.043     2.416     2.431
    79   1 H        0.925     0.045     2.380     2.412
    80   1 H        0.925     0.035     2.512     2.478
    81   1 H        0.925     0.052     2.292     2.368
    82   1 H        0.926     0.043     2.408     2.427
    83   1 H        0.924     0.067     2.120     2.277
    84   1 H        0.924     0.084     1.943     2.180
    85   1 H        0.925     0.053     2.278     2.360
    86   1 H        0.925     0.052     2.297     2.370
    87   1 H        0.925     0.066     2.132     2.283
    88   1 H        0.924     0.063     2.159     2.298
    89   1 H        0.924     0.037     2.484     2.464
    90   1 H        0.925     0.053     2.289     2.366
    91   1 H        0.925     0.057     2.234     2.338
    92   1 H        0.925     0.051     2.306     2.375
    93   1 H        0.924     0.073     2.048     2.238
    94   1 H        0.924     0.080     1.980     2.201
    95   1 H        0.925     0.054     2.270     2.356
    96   1 H        0.925     0.068     2.106     2.270
    97   1 H        0.925     0.052     2.300     2.372
    98   1 H        0.925     0.089     1.893     2.151
    99   1 H        0.924     0.081     1.966     2.193
   100   1 H        0.925     0.056     2.248     2.345
   101   1 H        0.925     0.070     2.087     2.259
   102   1 H        0.925     0.051     2.311     2.377
   103   1 H        0.925     0.068     2.103     2.268
   104   1 H        0.926     0.096     1.821     2.110
   105   1 H        0.926     0.078     1.998     2.211

 Mol. C6AA /au·bohr⁶  :     188192.591153
 Mol. C8AA /au·bohr⁸  :    5157462.555633
 Mol. α(0) /au        :        685.057703


Wiberg/Mayer (AO) data.
largest (>0.10) Wiberg bond orders for each atom

 ---------------------------------------------------------------------------
     #   Z sym  total        # sym  WBO       # sym  WBO       # sym  WBO
 ---------------------------------------------------------------------------
     1   6 C    3.937 --     2 C    1.512    24 C    1.256    71 H    0.947
     2   6 C    3.950 --     1 C    1.512    11 C    1.152     3 C    1.031
     3   6 C    3.908 --     4 O    1.719     2 C    1.031     5 C    1.028
     4   8 O    1.993 --     3 C    1.719
     5   6 C    3.971 --     6 C    1.380    10 C    1.306     3 C    1.028
     6   6 C    3.979 --     7 C    1.441     5 C    1.380    72 H    0.963
     7   6 C    3.954 --     6 C    1.441     8 C    1.324    23 C    0.993
     8   6 C    3.964 --     9 C    1.446     7 C    1.324    17 C    0.994
     9   6 C    3.977 --     8 C    1.446    10 C    1.368    73 H    0.960
    10   6 C    3.979 --     9 C    1.368     5 C    1.306    11 C    1.083
    11   6 C    3.970 --    12 C    1.452     2 C    1.152    10 C    1.083
    12   6 C    3.962 --    11 C    1.452    13 C    1.110    15 C    1.105
    13   6 C    3.941 --    14 N    2.741    12 C    1.110
    14   7 N    2.953 --    13 C    2.741
    15   6 C    3.941 --    16 N    2.747    12 C    1.105
    16   7 N    2.964 --    15 C    2.747
    17   6 C    3.983 --     8 C    0.994    23 C    0.975    74 H    0.960
                            18 C    0.950
    18   6 C    3.988 --    19 C    1.004    22 C    0.989    75 H    0.970
                            17 C    0.950
    19   6 C    3.981 --    20 C    1.924    18 C    1.004    76 H    0.970
    20   6 C    3.981 --    19 C    1.924    21 C    1.004    77 H    0.970
    21   6 C    3.988 --    20 C    1.004    22 C    0.989    78 H    0.970
                            23 C    0.950
    22   6 C    3.994 --    21 C    0.989    18 C    0.989    79 H    0.978
                            80 H    0.974
    23   6 C    3.982 --     7 C    0.993    17 C    0.975    81 H    0.960
                            21 C    0.950
    24   6 C    3.927 --    25 C    1.321     1 C    1.256    28 N    1.151
    25   6 C    3.964 --    26 C    1.387    24 C    1.321    82 H    0.969
    26   6 C    3.941 --    25 C    1.387    27 C    1.209    51 N    1.147
    27   6 C    3.939 --    31 C    1.239    28 N    1.231    26 C    1.209
    28   7 N    3.618 --    27 C    1.231    24 C    1.151    29 C    0.981
    29   6 C    3.956 --    30 C    1.004    28 N    0.981    83 H    0.967
                            84 H    0.961
    30   6 C    3.988 --    29 C    1.004    85 H    0.986    86 H    0.985
                            87 H    0.982
    31   6 C    3.950 --    50 C    1.264    27 C    1.239    32 C    1.184
    32   6 C    3.969 --    36 N    1.418    31 C    1.184    33 C    1.160
                            35 S    0.103
    33   6 C    3.970 --    34 N    1.425    37 C    1.175    32 C    1.160
                            35 S    0.108
    34   7 N    3.057 --    33 C    1.425    35 S    1.378    36 N    0.144
    35  16 S    3.080 --    34 N    1.378    36 N    1.371    33 C    0.108
                            32 C    0.103
    36   7 N    3.057 --    32 C    1.418    35 S    1.371    34 N    0.144
    37   6 C    3.947 --    38 C    1.280    49 C    1.257    33 C    1.175
    38   6 C    3.916 --    47 C    1.293    37 C    1.280    39 S    1.110
    39  16 S    2.516 --    38 C    1.110    40 C    1.087
    40   6 C    3.926 --    46 C    1.316    41 C    1.313    39 S    1.087
    41   6 C    3.954 --    44 C    1.399    40 C    1.313    42 C    1.016
    42   6 C    3.993 --    41 C    1.016    43 C    0.999    89 H    0.973
                            88 H    0.955
    43   6 C    3.986 --    42 C    0.999    92 H    0.984    90 H    0.980
                            91 H    0.977
    44   6 C    3.923 --    41 C    1.399    56 C    1.255    45 S    1.061
    45  16 S    2.543 --    46 C    1.135    44 C    1.061
    46   6 C    3.931 --    40 C    1.316    47 C    1.255    45 S    1.135
    47   6 C    3.939 --    38 C    1.293    46 C    1.255    48 N    1.167
    48   7 N    3.567 --    49 C    1.180    47 C    1.167    54 C    0.972
    49   6 C    3.932 --    37 C    1.257    50 C    1.231    48 N    1.180
    50   6 C    3.919 --    31 C    1.264    49 C    1.231    51 N    1.175
    51   7 N    3.546 --    50 C    1.175    26 C    1.147    52 C    0.975
    52   6 C    3.953 --    53 C    1.008    51 N    0.975    93 H    0.968
                            94 H    0.952
    53   6 C    3.986 --    52 C    1.008    97 H    0.986    95 H    0.982
                            96 H    0.981
    54   6 C    3.948 --    55 C    1.007    48 N    0.972    99 H    0.961
                            98 H    0.950
    55   6 C    3.985 --    54 C    1.007   102 H    0.986   100 H    0.982
                           101 H    0.980
    56   6 C    3.935 --    57 C    1.519    44 C    1.255   103 H    0.943
    57   6 C    3.958 --    56 C    1.519    65 C    1.147    58 C    1.028
    58   6 C    3.922 --    59 O    1.723    60 C    1.033    57 C    1.028
    59   8 O    2.024 --    58 C    1.723
    60   6 C    3.977 --    61 C    1.581    64 C    1.156    58 C    1.033
    61   6 C    3.945 --    60 C    1.581    62 S    1.212   104 H    0.962
    62  16 S    2.674 --    63 C    1.215    61 C    1.212
    63   6 C    3.938 --    64 C    1.557    62 S    1.215   105 H    0.963
    64   6 C    3.980 --    63 C    1.557    60 C    1.156    65 C    1.101
    65   6 C    3.969 --    66 C    1.448    57 C    1.147    64 C    1.101
    66   6 C    3.945 --    65 C    1.448    67 C    1.111    69 C    1.106
    67   6 C    3.941 --    68 N    2.741    66 C    1.111
    68   7 N    2.949 --    67 C    2.741
    69   6 C    3.941 --    70 N    2.752    66 C    1.106
    70   7 N    2.960 --    69 C    2.752
    71   1 H    0.991 --     1 C    0.947
    72   1 H    0.995 --     6 C    0.963
    73   1 H    0.996 --     9 C    0.960
    74   1 H    0.996 --    17 C    0.960
    75   1 H    0.998 --    18 C    0.970
    76   1 H    0.998 --    19 C    0.970
    77   1 H    0.998 --    20 C    0.970
    78   1 H    0.998 --    21 C    0.970
    79   1 H    0.998 --    22 C    0.978
    80   1 H    0.999 --    22 C    0.974
    81   1 H    0.995 --    23 C    0.960
    82   1 H    0.997 --    25 C    0.969
    83   1 H    0.995 --    29 C    0.967
    84   1 H    0.992 --    29 C    0.961
    85   1 H    0.997 --    30 C    0.986
    86   1 H    0.997 --    30 C    0.985
    87   1 H    0.995 --    30 C    0.982
    88   1 H    0.994 --    42 C    0.955
    89   1 H    0.998 --    42 C    0.973
    90   1 H    0.997 --    43 C    0.980
    91   1 H    0.997 --    43 C    0.977
    92   1 H    0.996 --    43 C    0.984
    93   1 H    0.994 --    52 C    0.968
    94   1 H    0.991 --    52 C    0.952
    95   1 H    0.997 --    53 C    0.982
    96   1 H    0.995 --    53 C    0.981
    97   1 H    0.997 --    53 C    0.986
    98   1 H    0.989 --    54 C    0.950
    99   1 H    0.993 --    54 C    0.961
   100   1 H    0.996 --    55 C    0.982
   101   1 H    0.994 --    55 C    0.980
   102   1 H    0.997 --    55 C    0.986
   103   1 H    0.991 --    56 C    0.943
   104   1 H    0.990 --    61 C    0.962
   105   1 H    0.994 --    63 C    0.963
 ---------------------------------------------------------------------------

Topologies differ in bond orders
Writing corrected topology to xtbtopo.mol

molecular dipole:
                 x           y           z       tot (Debye)
 q only:        0.402       2.036       0.978
   full:        0.485       2.301       0.919       6.417
molecular quadrupole (traceless):
                xx          xy          yy          xz          yz          zz
 q only:      -55.492     -55.541       9.269      33.418      76.166      46.223
  q+dip:      -56.317     -52.780      17.601      36.597      79.693      38.716
   full:      -46.757     -56.387       9.921      34.719      78.919      36.836


           -------------------------------------------------
          | TOTAL ENERGY             -182.986169685618 Eh   |
          | GRADIENT NORM               0.037958695064 Eh/α |
          | HOMO-LUMO GAP               0.926319651057 eV   |
           -------------------------------------------------

------------------------------------------------------------------------
 * finished run on 2022/02/02 at 06:37:15.054     
------------------------------------------------------------------------
 total:
 * wall-time:     0 d,  0 h,  0 min,  0.309 sec
 *  cpu-time:     0 d,  0 h,  0 min,  2.383 sec
 * ratio c/w:     7.707 speedup
 SCF:
 * wall-time:     0 d,  0 h,  0 min,  0.250 sec
 *  cpu-time:     0 d,  0 h,  0 min,  1.982 sec
 * ratio c/w:     7.924 speedup

