      -----------------------------------------------------------      
     |                   =====================                   |     
     |                           x T B                           |     
     |                   =====================                   |     
     |                         S. Grimme                         |     
     |          Mulliken Center for Theoretical Chemistry        |     
     |                    University of Bonn                     |     
      -----------------------------------------------------------      

   * xtb version 6.4.1 (unknown) compiled by 'oda6@login1.crc.pitt.edu' on 2021-06-25

   xtb is free software: you can redistribute it and/or modify it under
   the terms of the GNU Lesser General Public License as published by
   the Free Software Foundation, either version 3 of the License, or
   (at your option) any later version.
   
   xtb is distributed in the hope that it will be useful,
   but WITHOUT ANY WARRANTY; without even the implied warranty of
   MERCHANTABILITY or FITNESS FOR A PARTICULAR PURPOSE.  See the
   GNU Lesser General Public License for more details.
   
   Cite this work as:
   * C. Bannwarth, E. Caldeweyher, S. Ehlert, A. Hansen, P. Pracht,
     J. Seibert, S. Spicher, S. Grimme, WIREs Comput. Mol. Sci., 2020, 11,
     e01493. DOI: 10.1002/wcms.1493
   
   for GFN2-xTB:
   * C. Bannwarth, S. Ehlert and S. Grimme., J. Chem. Theory Comput., 2019,
     15, 1652-1671. DOI: 10.1021/acs.jctc.8b01176
   for GFN1-xTB:
   * S. Grimme, C. Bannwarth, P. Shushkov, J. Chem. Theory Comput., 2017,
     13, 1989-2009. DOI: 10.1021/acs.jctc.7b00118
   for GFN0-xTB:
   * P. Pracht, E. Caldeweyher, S. Ehlert, S. Grimme, ChemRxiv, 2019, preprint.
     DOI: 10.26434/chemrxiv.8326202.v1
   for GFN-FF:
   * S. Spicher and S. Grimme, Angew. Chem. Int. Ed., 2020, 59, 15665-15673.
     DOI: 10.1002/anie.202004239
   
   for DFT-D4:
   * E. Caldeweyher, C. Bannwarth and S. Grimme, J. Chem. Phys., 2017,
     147, 034112. DOI: 10.1063/1.4993215
   * E. Caldeweyher, S. Ehlert, A. Hansen, H. Neugebauer, S. Spicher,
     C. Bannwarth and S. Grimme, J. Chem. Phys., 2019, 150, 154122.
     DOI: 10.1063/1.5090222
   * E. Caldeweyher, J.-M. Mewes, S. Ehlert and S. Grimme, Phys. Chem. Chem. Phys.
     2020, 22, 8499-8512. DOI: 10.1039/D0CP00502A
   
   for sTDA-xTB:
   * S. Grimme and C. Bannwarth, J. Chem. Phys., 2016, 145, 054103.
     DOI: 10.1063/1.4959605
   
   in the mass-spec context:
   * V. Asgeirsson, C. Bauer and S. Grimme, Chem. Sci., 2017, 8, 4879.
     DOI: 10.1039/c7sc00601b
   * J. Koopman and S. Grimme, ACS Omega 2019, 4, 12, 15120-15133.
     DOI: 10.1021/acsomega.9b02011
   
   for metadynamics refer to:
   * S. Grimme, J. Chem. Theory Comput., 2019, 155, 2847-2862
     DOI: 10.1021/acs.jctc.9b00143
   
   for SPH calculations refer to:
   * S. Spicher and S. Grimme, J. Chem. Theory Comput., 2021, 17, 1701-1714
     DOI: 10.1021/acs.jctc.0c01306
   
   with help from (in alphabetical order)
   P. Atkinson, C. Bannwarth, F. Bohle, G. Brandenburg, E. Caldeweyher
   M. Checinski, S. Dohm, S. Ehlert, S. Ehrlich, I. Gerasimov, J. Koopman
   C. Lavigne, S. Lehtola, F. März, M. Müller, F. Musil, H. Neugebauer
   J. Pisarek, C. Plett, P. Pracht, J. Seibert, P. Shushkov, S. Spicher
   M. Stahn, M. Steiner, T. Strunk, J. Stückrath, T. Rose, and J. Unsleber
   
 * started run on 2022/02/02 at 05:39:22.027     

           -------------------------------------------------
          |                Calculation Setup                |
           -------------------------------------------------

          program call               : /ihome/ghutchison/oda6/xtb/xtb-641/bin/xtb ../../GFN2_output/39_132_51.mol --sp --alpb water
          hostname                   : smp-n98
          coordinate file            : ../../GFN2_output/39_132_51.mol
          omp threads                :                     8
          number of atoms            :                   116
          number of electrons        :                   364
          charge                     :                     0
          spin                       :                   0.0
          first test random number   :      0.92472928371373

   ID    Z sym.   atoms
    1    6 C      1-3, 5-13, 15, 17-34, 36-39, 43, 44, 46-56, 58, 59, 61, 62,
                  64, 65, 67-73, 75
    2    8 O      4
    3    7 N      14, 16, 40, 42, 60, 63, 74, 76
    4   16 S      35, 41, 45, 57, 66
    5    1 H      77-116

           -------------------------------------------------
          |                 G F N 2 - x T B                 |
           -------------------------------------------------

        Reference                      10.1021/acs.jctc.8b01176
      * Hamiltonian:
        H0-scaling (s, p, d)           1.850000    2.230000    2.230000
        zeta-weighting                 0.500000
      * Dispersion:
        s8                             2.700000
        a1                             0.520000
        a2                             5.000000
        s9                             5.000000
      * Repulsion:
        kExp                           1.500000    1.000000
        rExp                           1.000000
      * Coulomb:
        alpha                          2.000000
        third order                    shell-resolved
        anisotropic                    true
        a3                             3.000000
        a5                             4.000000
        cn-shift                       1.200000
        cn-exp                         4.000000
        max-rad                        5.000000

      * Solvation model:               ALPB
        Solvent                        water
        Parameter file                 internal GFN2-xTB/ALPB
        Dielectric constant                8.0200E+01
        Reference state                gsolv [1 M gas/solution]
        Free energy shift                  1.0808E-03 Eh       6.7819E-01 kcal/mol
        Temperature                        2.9815E+02 K
        Density                            1.0000E+00 kg/L
        Solvent mass                       1.8000E+01 g/mol
        Interaction kernel             P16
        Born radius scaling (c1)           1.4744E+00
        Born radii integrator          GBOBC
        Born offset                        0.0000E+00 a0       0.0000E+00 AA
        H-bond correction              true
        Ion screening                  false
        Surface tension                    1.0000E-05 Eh       1.5569E+01 dyn/cm
        Grid points                               230 per atom

          ...................................................
          :                      SETUP                      :
          :.................................................:
          :  # basis functions                 374          :
          :  # atomic orbitals                 369          :
          :  # shells                          197          :
          :  # electrons                       364          :
          :  max. iterations                   250          :
          :  Hamiltonian                  GFN2-xTB          :
          :  restarted?                      false          :
          :  GBSA solvation                   true          :
          :  PC potential                    false          :
          :  electronic temp.          300.0000000     K    :
          :  accuracy                    1.0000000          :
          :  -> integral cutoff          0.2500000E+02      :
          :  -> integral neglect         0.1000000E-07      :
          :  -> SCF convergence          0.1000000E-05 Eh   :
          :  -> wf. convergence          0.1000000E-03 e    :
          :  Broyden damping             0.4000000          :
          ...................................................

 iter      E             dE          RMSdq      gap      omega  full diag
   1   -199.7923799 -0.199792E+03  0.448E+00    1.26       0.0  T
   2   -199.9721939 -0.179814E+00  0.273E+00    1.11       1.0  T
   3   -199.9137746  0.584192E-01  0.141E+00    1.16       1.0  T
   4   -200.0320731 -0.118298E+00  0.453E-01    1.16       1.0  T
   5   -200.0458059 -0.137328E-01  0.154E-01    1.11       1.0  T
   6   -200.0467977 -0.991767E-03  0.824E-02    1.14       1.0  T
   7   -200.0470462 -0.248569E-03  0.300E-02    1.14       1.0  T
   8   -200.0470648 -0.185973E-04  0.144E-02    1.13       1.0  T
   9   -200.0470707 -0.580985E-05  0.780E-03    1.13       1.2  T
  10   -200.0470718 -0.116460E-05  0.393E-03    1.13       2.4  T
  11   -200.0470723 -0.446459E-06  0.219E-03    1.13       4.2  T
  12   -200.0470724 -0.916936E-07  0.104E-03    1.13       8.9  T
  13   -200.0470724 -0.490487E-07  0.389E-04    1.13      23.9  T
  14   -200.0470724 -0.486216E-08  0.217E-04    1.13      42.8  T

   *** convergence criteria satisfied after 14 iterations ***

         #    Occupation            Energy/Eh            Energy/eV
      -------------------------------------------------------------
         1        2.0000           -0.7628507             -20.7582
       ...           ...                  ...                  ...
       176        2.0000           -0.4012345             -10.9181
       177        2.0000           -0.3967313             -10.7956
       178        2.0000           -0.3917781             -10.6608
       179        2.0000           -0.3887588             -10.5787
       180        2.0000           -0.3850493             -10.4777
       181        2.0000           -0.3770402             -10.2598
       182        2.0000           -0.3722828             -10.1303 (HOMO)
       183                         -0.3306568              -8.9976 (LUMO)
       184                         -0.3229532              -8.7880
       185                         -0.3174488              -8.6382
       186                         -0.3024285              -8.2295
       187                         -0.2699189              -7.3449
       ...                                ...                  ...
       369                          1.1573443              31.4929
      -------------------------------------------------------------
                  HL-Gap            0.0416259 Eh            1.1327 eV
             Fermi-level           -0.3514668 Eh           -9.5639 eV

 SCC (total)                   0 d,  0 h,  0 min,  0.290 sec
 SCC setup                      ...        0 min,  0.003 sec (  0.878%)
 Dispersion                     ...        0 min,  0.004 sec (  1.313%)
 classical contributions        ...        0 min,  0.000 sec (  0.053%)
 integral evaluation            ...        0 min,  0.014 sec (  4.902%)
 iterations                     ...        0 min,  0.228 sec ( 78.630%)
 molecular gradient             ...        0 min,  0.040 sec ( 13.808%)
 printout                       ...        0 min,  0.001 sec (  0.388%)

         :::::::::::::::::::::::::::::::::::::::::::::::::::::
         ::                     SUMMARY                     ::
         :::::::::::::::::::::::::::::::::::::::::::::::::::::
         :: total energy            -196.801390580400 Eh    ::
         :: total w/o Gsasa/hb      -196.781537976898 Eh    ::
         :: gradient norm              0.033758529873 Eh/a0 ::
         :: HOMO-LUMO gap              1.132699105708 eV    ::
         ::.................................................::
         :: SCC energy              -200.047072413619 Eh    ::
         :: -> isotropic ES            0.122622669919 Eh    ::
         :: -> anisotropic ES          0.010581321451 Eh    ::
         :: -> anisotropic XC          0.139674347681 Eh    ::
         :: -> dispersion             -0.186536655006 Eh    ::
         :: -> Gsolv                  -0.052812309775 Eh    ::
         ::    -> Gelec               -0.032959706273 Eh    ::
         ::    -> Gsasa               -0.016563233696 Eh    ::
         ::    -> Ghb                 -0.004370129505 Eh    ::
         ::    -> Gshift               0.001080759698 Eh    ::
         :: repulsion energy           3.246649974327 Eh    ::
         :: add. restraining           0.000000000000 Eh    ::
         :: total charge               0.000000000004 e     ::
         :::::::::::::::::::::::::::::::::::::::::::::::::::::

           -------------------------------------------------
          |                Property Printout                |
           -------------------------------------------------

    * Orbital Energies and Occupations

         #    Occupation            Energy/Eh            Energy/eV
      -------------------------------------------------------------
         1        2.0000           -0.7628507             -20.7582
       ...           ...                  ...                  ...
       170        2.0000           -0.4155034             -11.3064
       171        2.0000           -0.4109101             -11.1814
       172        2.0000           -0.4101125             -11.1597
       173        2.0000           -0.4091751             -11.1342
       174        2.0000           -0.4084983             -11.1158
       175        2.0000           -0.4055132             -11.0346
       176        2.0000           -0.4012345             -10.9181
       177        2.0000           -0.3967313             -10.7956
       178        2.0000           -0.3917781             -10.6608
       179        2.0000           -0.3887588             -10.5787
       180        2.0000           -0.3850493             -10.4777
       181        2.0000           -0.3770402             -10.2598
       182        2.0000           -0.3722828             -10.1303 (HOMO)
       183                         -0.3306568              -8.9976 (LUMO)
       184                         -0.3229532              -8.7880
       185                         -0.3174488              -8.6382
       186                         -0.3024285              -8.2295
       187                         -0.2699189              -7.3449
       188                         -0.2610922              -7.1047
       189                         -0.2514551              -6.8424
       190                         -0.2471541              -6.7254
       191                         -0.2452652              -6.6740
       192                         -0.2434011              -6.6233
       193                         -0.2367649              -6.4427
       ...                                ...                  ...
       369                          1.1573443              31.4929
      -------------------------------------------------------------
                  HL-Gap            0.0416259 Eh            1.1327 eV
             Fermi-level           -0.3514668 Eh           -9.5639 eV

     #   Z          covCN         q      C6AA      α(0)
     1   6 C        2.920    -0.014    28.373     8.735
     2   6 C        3.006    -0.045    29.089     8.847
     3   6 C        2.876     0.227    23.239     7.903
     4   8 O        0.966    -0.412    21.860     6.271
     5   6 C        3.060    -0.023    28.515     8.757
     6   6 C        2.904    -0.025    28.628     8.773
     7   6 C        3.260     0.014    26.542     8.324
     8   6 C        3.258     0.014    26.574     8.333
     9   6 C        2.905    -0.033    28.830     8.804
    10   6 C        3.050     0.003    27.914     8.665
    11   6 C        3.020     0.035    27.190     8.553
    12   6 C        2.947    -0.002    28.085     8.692
    13   6 C        1.950     0.129    27.925     8.534
    14   7 N        0.911    -0.289    27.442     7.576
    15   6 C        1.952     0.134    27.798     8.514
    16   7 N        0.911    -0.289    27.452     7.578
    17   6 C        4.163    -0.028    20.981     6.506
    18   6 C        4.012    -0.016    20.788     6.477
    19   6 C        2.988    -0.042    29.044     8.840
    20   6 C        2.987    -0.043    29.062     8.843
    21   6 C        4.012    -0.017    20.792     6.478
    22   6 C        3.926    -0.066    21.694     6.619
    23   6 C        4.162    -0.028    20.980     6.505
    24   6 C        2.990     0.017    27.627     8.622
    25   6 C        3.105     0.003    27.828     8.644
    26   6 C        2.975     0.006    27.885     8.662
    27   6 C        2.922    -0.034    28.849     8.808
    28   6 C        2.924    -0.033    28.832     8.806
    29   6 C        2.971     0.025    27.445     8.593
    30   6 C        3.807    -0.065    21.740     6.637
    31   6 C        3.754    -0.108    22.619     6.782
    32   6 C        2.924    -0.038    28.938     8.822
    33   6 C        2.924    -0.033    28.829     8.805
    34   6 C        3.174     0.014    27.304     8.534
    35  16 S        2.166    -0.048   143.049    20.130
    36   6 C        3.095     0.008    27.722     8.629
    37   6 C        3.089    -0.039    28.868     8.807
    38   6 C        3.342     0.069    23.992     7.741
    39   6 C        3.343     0.069    23.978     7.735
    40   7 N        1.854    -0.301    28.641     7.932
    41  16 S        2.689     0.304   129.271    19.136
    42   7 N        1.855    -0.300    28.616     7.929
    43   6 C        3.089    -0.039    28.859     8.806
    44   6 C        3.099     0.006    27.764     8.635
    45  16 S        2.176    -0.043   142.818    20.114
    46   6 C        3.196     0.012    27.211     8.504
    47   6 C        3.100     0.004    27.799     8.640
    48   6 C        2.976     0.005    27.900     8.664
    49   6 C        2.923    -0.031    28.783     8.798
    50   6 C        2.925    -0.035    28.871     8.812
    51   6 C        2.972     0.021    27.527     8.606
    52   6 C        3.807    -0.065    21.735     6.637
    53   6 C        3.754    -0.108    22.621     6.782
    54   6 C        2.924    -0.040    28.996     8.831
    55   6 C        2.923    -0.037    28.909     8.817
    56   6 C        2.994     0.012    27.739     8.639
    57  16 S        2.277    -0.020   141.877    20.047
    58   6 C        3.117     0.013    27.569     8.600
    59   6 C        3.247     0.029    26.361     8.315
    60   7 N        2.799    -0.013    21.497     6.886
    61   6 C        3.066     0.036    27.120     8.539
    62   6 C        3.066     0.036    27.124     8.540
    63   7 N        2.800    -0.008    21.416     6.873
    64   6 C        3.251     0.029    26.314     8.302
    65   6 C        3.109     0.003    27.823     8.642
    66  16 S        2.321    -0.001   141.085    19.991
    67   6 C        3.744    -0.018    20.964     6.532
    68   6 C        3.752    -0.126    22.980     6.836
    69   6 C        3.744    -0.016    20.939     6.528
    70   6 C        3.752    -0.126    22.986     6.837
    71   6 C        2.969    -0.004    28.109     8.696
    72   6 C        2.945     0.003    27.946     8.670
    73   6 C        1.922     0.130    27.918     8.533
    74   7 N        0.911    -0.286    27.386     7.569
    75   6 C        1.933     0.128    27.956     8.539
    76   7 N        0.911    -0.285    27.342     7.563
    77   1 H        0.925     0.065     2.136     2.285
    78   1 H        0.926     0.069     2.091     2.262
    79   1 H        0.926     0.053     2.280     2.361
    80   1 H        0.925     0.060     2.201     2.320
    81   1 H        0.925     0.043     2.414     2.430
    82   1 H        0.926     0.028     2.613     2.528
    83   1 H        0.926     0.032     2.561     2.503
    84   1 H        0.925     0.046     2.365     2.405
    85   1 H        0.925     0.049     2.338     2.391
    86   1 H        0.925     0.050     2.317     2.381
    87   1 H        0.925     0.063     2.170     2.304
    88   1 H        0.926     0.031     2.570     2.507
    89   1 H        0.926     0.043     2.412     2.429
    90   1 H        0.924     0.048     2.348     2.396
    91   1 H        0.924     0.047     2.363     2.404
    92   1 H        0.925     0.047     2.355     2.400
    93   1 H        0.925     0.042     2.425     2.435
    94   1 H        0.925     0.040     2.453     2.449
    95   1 H        0.926     0.050     2.325     2.384
    96   1 H        0.926     0.045     2.389     2.417
    97   1 H        0.926     0.043     2.406     2.426
    98   1 H        0.926     0.050     2.321     2.383
    99   1 H        0.924     0.044     2.393     2.419
   100   1 H        0.924     0.048     2.339     2.392
   101   1 H        0.925     0.040     2.450     2.448
   102   1 H        0.925     0.042     2.422     2.434
   103   1 H        0.925     0.048     2.346     2.395
   104   1 H        0.926     0.043     2.415     2.430
   105   1 H        0.925     0.029     2.605     2.524
   106   1 H        0.925     0.092     1.861     2.133
   107   1 H        0.924     0.085     1.932     2.174
   108   1 H        0.925     0.073     2.056     2.242
   109   1 H        0.925     0.057     2.233     2.337
   110   1 H        0.925     0.051     2.304     2.374
   111   1 H        0.925     0.092     1.859     2.132
   112   1 H        0.924     0.084     1.941     2.179
   113   1 H        0.925     0.052     2.298     2.370
   114   1 H        0.925     0.073     2.051     2.240
   115   1 H        0.925     0.055     2.254     2.348
   116   1 H        0.925     0.080     1.975     2.198

 Mol. C6AA /au·bohr⁶  :     233248.891491
 Mol. C8AA /au·bohr⁸  :    6482696.241190
 Mol. α(0) /au        :        767.771619


Wiberg/Mayer (AO) data.
largest (>0.10) Wiberg bond orders for each atom

 ---------------------------------------------------------------------------
     #   Z sym  total        # sym  WBO       # sym  WBO       # sym  WBO
 ---------------------------------------------------------------------------
     1   6 C    3.944 --     2 C    1.470    24 C    1.328    77 H    0.931
     2   6 C    3.947 --     1 C    1.470    11 C    1.149     3 C    1.074
     3   6 C    3.908 --     4 O    1.668     2 C    1.074     5 C    1.034
     4   8 O    2.072 --     3 C    1.668    66 S    0.130
     5   6 C    3.969 --     6 C    1.382    10 C    1.303     3 C    1.034
     6   6 C    3.978 --     7 C    1.438     5 C    1.382    78 H    0.962
     7   6 C    3.952 --     6 C    1.438     8 C    1.326    23 C    0.997
     8   6 C    3.963 --     9 C    1.444     7 C    1.326    17 C    0.998
     9   6 C    3.977 --     8 C    1.444    10 C    1.369    79 H    0.958
    10   6 C    3.975 --     9 C    1.369     5 C    1.303    11 C    1.089
    11   6 C    3.966 --    12 C    1.461     2 C    1.149    10 C    1.089
    12   6 C    3.944 --    11 C    1.461    13 C    1.103    15 C    1.102
    13   6 C    3.940 --    14 N    2.734    12 C    1.103
    14   7 N    2.952 --    13 C    2.734
    15   6 C    3.939 --    16 N    2.742    12 C    1.102
    16   7 N    2.952 --    15 C    2.742
    17   6 C    3.983 --     8 C    0.998    23 C    0.977    80 H    0.957
                            18 C    0.946
    18   6 C    3.989 --    19 C    1.010    22 C    0.985    81 H    0.972
                            17 C    0.946
    19   6 C    3.987 --    20 C    1.924    18 C    1.010    82 H    0.972
    20   6 C    3.987 --    19 C    1.924    21 C    1.010    83 H    0.971
    21   6 C    3.987 --    20 C    1.010    22 C    0.985    84 H    0.971
                            23 C    0.945
    22   6 C    3.991 --    18 C    0.985    21 C    0.985    86 H    0.977
                            85 H    0.976
    23   6 C    3.982 --     7 C    0.997    17 C    0.977    87 H    0.957
                            21 C    0.945
    24   6 C    3.930 --     1 C    1.328    25 C    1.307    66 S    1.077
    25   6 C    3.957 --    34 C    1.338    24 C    1.307    26 C    1.062
    26   6 C    3.984 --    33 C    1.371    27 C    1.369    25 C    1.062
    27   6 C    3.987 --    28 C    1.460    26 C    1.369    88 H    0.968
                            32 C    0.102
    28   6 C    3.989 --    27 C    1.460    29 C    1.399    89 H    0.967
                            33 C    0.103
    29   6 C    3.973 --    32 C    1.400    28 C    1.399    30 C    1.016
    30   6 C    3.995 --    29 C    1.016    31 C    0.998    90 H    0.973
                            91 H    0.972
    31   6 C    3.992 --    30 C    0.998    94 H    0.988    93 H    0.988
                            92 H    0.985
    32   6 C    3.988 --    33 C    1.461    29 C    1.400    95 H    0.967
                            27 C    0.102
    33   6 C    3.982 --    32 C    1.461    26 C    1.371    96 H    0.967
                            28 C    0.103
    34   6 C    3.928 --    25 C    1.338    65 C    1.300    35 S    1.079
    35  16 S    2.502 --    36 C    1.111    34 C    1.079
    36   6 C    3.915 --    64 C    1.296    37 C    1.283    35 S    1.111
    37   6 C    3.955 --    36 C    1.283    62 C    1.259    38 C    1.173
    38   6 C    3.970 --    42 N    1.422    37 C    1.173    39 C    1.166
                            41 S    0.105
    39   6 C    3.970 --    40 N    1.422    43 C    1.173    38 C    1.166
                            41 S    0.106
    40   7 N    3.058 --    39 C    1.422    41 S    1.380    42 N    0.145
    41  16 S    3.095 --    42 N    1.381    40 N    1.380    39 C    0.106
                            38 C    0.105
    42   7 N    3.059 --    38 C    1.422    41 S    1.381    40 N    0.145
    43   6 C    3.955 --    44 C    1.276    61 C    1.267    39 C    1.173
    44   6 C    3.920 --    59 C    1.300    43 C    1.276    45 S    1.112
    45  16 S    2.520 --    44 C    1.112    46 C    1.092
    46   6 C    3.931 --    58 C    1.325    47 C    1.291    45 S    1.092
    47   6 C    3.967 --    56 C    1.382    46 C    1.291    48 C    1.052
    48   6 C    3.986 --    49 C    1.375    55 C    1.372    47 C    1.052
    49   6 C    3.987 --    50 C    1.458    48 C    1.375    97 H    0.966
                            54 C    0.102
    50   6 C    3.989 --    49 C    1.458    51 C    1.402    98 H    0.967
                            55 C    0.104
    51   6 C    3.979 --    50 C    1.402    54 C    1.400    52 C    1.016
    52   6 C    3.995 --    51 C    1.016    53 C    0.998    99 H    0.974
                           100 H    0.972
    53   6 C    3.993 --    52 C    0.998   101 H    0.988   102 H    0.988
                           103 H    0.985
    54   6 C    3.989 --    55 C    1.460    51 C    1.400   104 H    0.967
                            49 C    0.102
    55   6 C    3.990 --    54 C    1.460    48 C    1.372   105 H    0.969
                            50 C    0.104
    56   6 C    3.928 --    47 C    1.382    71 C    1.257    57 S    1.064
    57  16 S    2.544 --    58 C    1.136    56 C    1.064
    58   6 C    3.933 --    46 C    1.325    59 C    1.246    57 S    1.136
    59   6 C    3.942 --    44 C    1.300    58 C    1.246    60 N    1.167
    60   7 N    3.570 --    61 C    1.182    59 C    1.167    69 C    0.971
    61   6 C    3.935 --    43 C    1.267    62 C    1.218    60 N    1.182
    62   6 C    3.931 --    37 C    1.259    61 C    1.218    63 N    1.189
    63   7 N    3.578 --    62 C    1.189    64 C    1.168    67 C    0.972
    64   6 C    3.942 --    36 C    1.296    65 C    1.250    63 N    1.168
    65   6 C    3.939 --    34 C    1.300    64 C    1.250    66 S    1.150
    66  16 S    2.713 --    65 C    1.150    24 C    1.077     4 O    0.130
    67   6 C    3.945 --    68 C    1.005    63 N    0.972   107 H    0.960
                           106 H    0.949
    68   6 C    3.985 --    67 C    1.005   110 H    0.986   109 H    0.982
                           108 H    0.980
    69   6 C    3.946 --    70 C    1.006    60 N    0.971   112 H    0.961
                           111 H    0.949
    70   6 C    3.984 --    69 C    1.006   113 H    0.986   115 H    0.982
                           114 H    0.980
    71   6 C    3.966 --    72 C    1.509    56 C    1.257   116 H    0.956
    72   6 C    3.950 --    71 C    1.509    73 C    1.104    75 C    1.098
    73   6 C    3.943 --    74 N    2.754    72 C    1.104
    74   7 N    2.973 --    73 C    2.754
    75   6 C    3.940 --    76 N    2.762    72 C    1.098
    76   7 N    2.955 --    75 C    2.762
    77   1 H    0.994 --     1 C    0.931
    78   1 H    0.995 --     6 C    0.962
    79   1 H    0.997 --     9 C    0.958
    80   1 H    0.995 --    17 C    0.957
    81   1 H    0.998 --    18 C    0.972
    82   1 H    0.999 --    19 C    0.972
    83   1 H    0.999 --    20 C    0.971
    84   1 H    0.998 --    21 C    0.971
    85   1 H    0.995 --    22 C    0.976
    86   1 H    0.997 --    22 C    0.977
    87   1 H    0.994 --    23 C    0.957
    88   1 H    0.999 --    27 C    0.968
    89   1 H    0.997 --    28 C    0.967
    90   1 H    0.997 --    30 C    0.973
    91   1 H    0.997 --    30 C    0.972
    92   1 H    0.997 --    31 C    0.985
    93   1 H    0.998 --    31 C    0.988
    94   1 H    0.998 --    31 C    0.988
    95   1 H    0.996 --    32 C    0.967
    96   1 H    0.998 --    33 C    0.967
    97   1 H    0.998 --    49 C    0.966
    98   1 H    0.996 --    50 C    0.967
    99   1 H    0.997 --    52 C    0.974
   100   1 H    0.997 --    52 C    0.972
   101   1 H    0.998 --    53 C    0.988
   102   1 H    0.998 --    53 C    0.988
   103   1 H    0.997 --    53 C    0.985
   104   1 H    0.997 --    54 C    0.967
   105   1 H    0.999 --    55 C    0.969
   106   1 H    0.989 --    67 C    0.949
   107   1 H    0.992 --    67 C    0.960
   108   1 H    0.993 --    68 C    0.980
   109   1 H    0.996 --    68 C    0.982
   110   1 H    0.997 --    68 C    0.986
   111   1 H    0.989 --    69 C    0.949
   112   1 H    0.992 --    69 C    0.961
   113   1 H    0.997 --    70 C    0.986
   114   1 H    0.994 --    70 C    0.980
   115   1 H    0.996 --    70 C    0.982
   116   1 H    0.992 --    71 C    0.956
 ---------------------------------------------------------------------------

Topologies differ in bond orders
Writing corrected topology to xtbtopo.mol

molecular dipole:
                 x           y           z       tot (Debye)
 q only:        2.066      -0.383      -2.105
   full:        2.337      -0.233      -2.265       8.293
molecular quadrupole (traceless):
                xx          xy          yy          xz          yz          zz
 q only:       39.542     -91.642    -131.872      -6.315      67.597      92.330
  q+dip:       44.248     -99.636    -143.694       2.566      66.022      99.446
   full:       47.804     -97.935    -150.048      11.501      67.041     102.243


           -------------------------------------------------
          | TOTAL ENERGY             -196.801390580400 Eh   |
          | GRADIENT NORM               0.033758529873 Eh/α |
          | HOMO-LUMO GAP               1.132699105708 eV   |
           -------------------------------------------------

------------------------------------------------------------------------
 * finished run on 2022/02/02 at 05:39:22.387     
------------------------------------------------------------------------
 total:
 * wall-time:     0 d,  0 h,  0 min,  0.360 sec
 *  cpu-time:     0 d,  0 h,  0 min,  2.791 sec
 * ratio c/w:     7.760 speedup
 SCF:
 * wall-time:     0 d,  0 h,  0 min,  0.292 sec
 *  cpu-time:     0 d,  0 h,  0 min,  2.326 sec
 * ratio c/w:     7.976 speedup

