      -----------------------------------------------------------      
     |                   =====================                   |     
     |                           x T B                           |     
     |                   =====================                   |     
     |                         S. Grimme                         |     
     |          Mulliken Center for Theoretical Chemistry        |     
     |                    University of Bonn                     |     
      -----------------------------------------------------------      

   * xtb version 6.4.1 (unknown) compiled by 'oda6@login1.crc.pitt.edu' on 2021-06-25

   xtb is free software: you can redistribute it and/or modify it under
   the terms of the GNU Lesser General Public License as published by
   the Free Software Foundation, either version 3 of the License, or
   (at your option) any later version.
   
   xtb is distributed in the hope that it will be useful,
   but WITHOUT ANY WARRANTY; without even the implied warranty of
   MERCHANTABILITY or FITNESS FOR A PARTICULAR PURPOSE.  See the
   GNU Lesser General Public License for more details.
   
   Cite this work as:
   * C. Bannwarth, E. Caldeweyher, S. Ehlert, A. Hansen, P. Pracht,
     J. Seibert, S. Spicher, S. Grimme, WIREs Comput. Mol. Sci., 2020, 11,
     e01493. DOI: 10.1002/wcms.1493
   
   for GFN2-xTB:
   * C. Bannwarth, S. Ehlert and S. Grimme., J. Chem. Theory Comput., 2019,
     15, 1652-1671. DOI: 10.1021/acs.jctc.8b01176
   for GFN1-xTB:
   * S. Grimme, C. Bannwarth, P. Shushkov, J. Chem. Theory Comput., 2017,
     13, 1989-2009. DOI: 10.1021/acs.jctc.7b00118
   for GFN0-xTB:
   * P. Pracht, E. Caldeweyher, S. Ehlert, S. Grimme, ChemRxiv, 2019, preprint.
     DOI: 10.26434/chemrxiv.8326202.v1
   for GFN-FF:
   * S. Spicher and S. Grimme, Angew. Chem. Int. Ed., 2020, 59, 15665-15673.
     DOI: 10.1002/anie.202004239
   
   for DFT-D4:
   * E. Caldeweyher, C. Bannwarth and S. Grimme, J. Chem. Phys., 2017,
     147, 034112. DOI: 10.1063/1.4993215
   * E. Caldeweyher, S. Ehlert, A. Hansen, H. Neugebauer, S. Spicher,
     C. Bannwarth and S. Grimme, J. Chem. Phys., 2019, 150, 154122.
     DOI: 10.1063/1.5090222
   * E. Caldeweyher, J.-M. Mewes, S. Ehlert and S. Grimme, Phys. Chem. Chem. Phys.
     2020, 22, 8499-8512. DOI: 10.1039/D0CP00502A
   
   for sTDA-xTB:
   * S. Grimme and C. Bannwarth, J. Chem. Phys., 2016, 145, 054103.
     DOI: 10.1063/1.4959605
   
   in the mass-spec context:
   * V. Asgeirsson, C. Bauer and S. Grimme, Chem. Sci., 2017, 8, 4879.
     DOI: 10.1039/c7sc00601b
   * J. Koopman and S. Grimme, ACS Omega 2019, 4, 12, 15120-15133.
     DOI: 10.1021/acsomega.9b02011
   
   for metadynamics refer to:
   * S. Grimme, J. Chem. Theory Comput., 2019, 155, 2847-2862
     DOI: 10.1021/acs.jctc.9b00143
   
   for SPH calculations refer to:
   * S. Spicher and S. Grimme, J. Chem. Theory Comput., 2021, 17, 1701-1714
     DOI: 10.1021/acs.jctc.0c01306
   
   with help from (in alphabetical order)
   P. Atkinson, C. Bannwarth, F. Bohle, G. Brandenburg, E. Caldeweyher
   M. Checinski, S. Dohm, S. Ehlert, S. Ehrlich, I. Gerasimov, J. Koopman
   C. Lavigne, S. Lehtola, F. März, M. Müller, F. Musil, H. Neugebauer
   J. Pisarek, C. Plett, P. Pracht, J. Seibert, P. Shushkov, S. Spicher
   M. Stahn, M. Steiner, T. Strunk, J. Stückrath, T. Rose, and J. Unsleber
   
 * started run on 2022/02/10 at 21:18:12.432     

           -------------------------------------------------
          |                Calculation Setup                |
           -------------------------------------------------

          program call               : /ihome/ghutchison/oda6/xtb/xtb-641/bin/xtb ../../GFN2_output/39_135_64.mol --sp --alpb water
          hostname                   : smp-n32
          coordinate file            : ../../GFN2_output/39_135_64.mol
          omp threads                :                     8
          number of atoms            :                   101
          number of electrons        :                   340
          charge                     :                     0
          spin                       :                   0.0
          first test random number   :      0.83930649717387

   ID    Z sym.   atoms
    1    6 C      1-3, 5-13, 15, 17-24, 26-29, 33, 34, 36-40, 42, 43, 45, 46,
                  48-56, 58-60, 62, 64-68, 70
    2    8 O      4, 57
    3    7 N      14, 16, 30, 32, 44, 47, 69, 71
    4   34 Se     25
    5   16 S      31, 35, 41
    6   17 Cl     61
    7    9 F      63
    8    1 H      72-101

           -------------------------------------------------
          |                 G F N 2 - x T B                 |
           -------------------------------------------------

        Reference                      10.1021/acs.jctc.8b01176
      * Hamiltonian:
        H0-scaling (s, p, d)           1.850000    2.230000    2.230000
        zeta-weighting                 0.500000
      * Dispersion:
        s8                             2.700000
        a1                             0.520000
        a2                             5.000000
        s9                             5.000000
      * Repulsion:
        kExp                           1.500000    1.000000
        rExp                           1.000000
      * Coulomb:
        alpha                          2.000000
        third order                    shell-resolved
        anisotropic                    true
        a3                             3.000000
        a5                             4.000000
        cn-shift                       1.200000
        cn-exp                         4.000000
        max-rad                        5.000000

      * Solvation model:               ALPB
        Solvent                        water
        Parameter file                 internal GFN2-xTB/ALPB
        Dielectric constant                8.0200E+01
        Reference state                gsolv [1 M gas/solution]
        Free energy shift                  1.0808E-03 Eh       6.7819E-01 kcal/mol
        Temperature                        2.9815E+02 K
        Density                            1.0000E+00 kg/L
        Solvent mass                       1.8000E+01 g/mol
        Interaction kernel             P16
        Born radius scaling (c1)           1.4744E+00
        Born radii integrator          GBOBC
        Born offset                        0.0000E+00 a0       0.0000E+00 AA
        H-bond correction              true
        Ion screening                  false
        Surface tension                    1.0000E-05 Eh       1.5569E+01 dyn/cm
        Grid points                               230 per atom

          ...................................................
          :                      SETUP                      :
          :.................................................:
          :  # basis functions                 344          :
          :  # atomic orbitals                 339          :
          :  # shells                          177          :
          :  # electrons                       340          :
          :  max. iterations                   250          :
          :  Hamiltonian                  GFN2-xTB          :
          :  restarted?                      false          :
          :  GBSA solvation                   true          :
          :  PC potential                    false          :
          :  electronic temp.          300.0000000     K    :
          :  accuracy                    1.0000000          :
          :  -> integral cutoff          0.2500000E+02      :
          :  -> integral neglect         0.1000000E-07      :
          :  -> SCF convergence          0.1000000E-05 Eh   :
          :  -> wf. convergence          0.1000000E-03 e    :
          :  Broyden damping             0.4000000          :
          ...................................................

 iter      E             dE          RMSdq      gap      omega  full diag
   1   -189.3016448 -0.189302E+03  0.458E+00    1.20       0.0  T
   2   -189.4971346 -0.195490E+00  0.277E+00    0.98       1.0  T
   3   -189.4684434  0.286912E-01  0.151E+00    1.05       1.0  T
   4   -189.5682776 -0.998342E-01  0.485E-01    0.99       1.0  T
   5   -189.5817056 -0.134280E-01  0.160E-01    0.94       1.0  T
   6   -189.5825864 -0.880814E-03  0.904E-02    0.98       1.0  T
   7   -189.5828215 -0.235163E-03  0.429E-02    0.97       1.0  T
   8   -189.5828587 -0.372068E-04  0.282E-02    0.98       1.0  T
   9   -189.5828780 -0.192061E-04  0.211E-02    0.97       1.0  T
  10   -189.5828913 -0.133091E-04  0.140E-02    0.98       1.0  T
  11   -189.5828994 -0.813289E-05  0.857E-03    0.98       1.2  T
  12   -189.5829023 -0.285359E-05  0.452E-03    0.98       2.2  T
  13   -189.5829031 -0.802343E-06  0.256E-03    0.98       3.9  T
  14   -189.5829032 -0.141605E-06  0.154E-03    0.98       6.5  T
  15   -189.5829032 -0.527073E-07  0.710E-04    0.98      14.0  T
  16   -189.5829033 -0.207981E-07  0.362E-04    0.98      27.5  T

   *** convergence criteria satisfied after 16 iterations ***

         #    Occupation            Energy/Eh            Energy/eV
      -------------------------------------------------------------
         1        2.0000           -1.0822161             -29.4486
       ...           ...                  ...                  ...
       164        2.0000           -0.4073908             -11.0857
       165        2.0000           -0.4042831             -11.0011
       166        2.0000           -0.3965967             -10.7919
       167        2.0000           -0.3910075             -10.6399
       168        2.0000           -0.3863628             -10.5135
       169        2.0000           -0.3782449             -10.2926
       170        2.0000           -0.3750556             -10.2058 (HOMO)
       171                         -0.3390723              -9.2266 (LUMO)
       172                         -0.3298357              -8.9753
       173                         -0.3245265              -8.8308
       174                         -0.3174453              -8.6381
       175                         -0.3018158              -8.2128
       ...                                ...                  ...
       339                          1.1525339              31.3620
      -------------------------------------------------------------
                  HL-Gap            0.0359833 Eh            0.9792 eV
             Fermi-level           -0.3570477 Eh           -9.7158 eV

 SCC (total)                   0 d,  0 h,  0 min,  0.256 sec
 SCC setup                      ...        0 min,  0.002 sec (  0.861%)
 Dispersion                     ...        0 min,  0.004 sec (  1.523%)
 classical contributions        ...        0 min,  0.000 sec (  0.047%)
 integral evaluation            ...        0 min,  0.012 sec (  4.745%)
 iterations                     ...        0 min,  0.206 sec ( 80.558%)
 molecular gradient             ...        0 min,  0.030 sec ( 11.905%)
 printout                       ...        0 min,  0.001 sec (  0.330%)

         :::::::::::::::::::::::::::::::::::::::::::::::::::::
         ::                     SUMMARY                     ::
         :::::::::::::::::::::::::::::::::::::::::::::::::::::
         :: total energy            -186.712292028629 Eh    ::
         :: total w/o Gsasa/hb      -186.690146544203 Eh    ::
         :: gradient norm              0.033755246060 Eh/a0 ::
         :: HOMO-LUMO gap              0.979154917562 eV    ::
         ::.................................................::
         :: SCC energy              -189.582903269084 Eh    ::
         :: -> isotropic ES            0.165917134689 Eh    ::
         :: -> anisotropic ES          0.001108284398 Eh    ::
         :: -> anisotropic XC          0.118958757638 Eh    ::
         :: -> dispersion             -0.162652439210 Eh    ::
         :: -> Gsolv                  -0.059768251050 Eh    ::
         ::    -> Gelec               -0.037622766623 Eh    ::
         ::    -> Gsasa               -0.018096761500 Eh    ::
         ::    -> Ghb                 -0.005129482624 Eh    ::
         ::    -> Gshift               0.001080759698 Eh    ::
         :: repulsion energy           2.871787050060 Eh    ::
         :: add. restraining           0.000000000000 Eh    ::
         :: total charge               0.000000000414 e     ::
         :::::::::::::::::::::::::::::::::::::::::::::::::::::

           -------------------------------------------------
          |                Property Printout                |
           -------------------------------------------------

    * Orbital Energies and Occupations

         #    Occupation            Energy/Eh            Energy/eV
      -------------------------------------------------------------
         1        2.0000           -1.0822161             -29.4486
       ...           ...                  ...                  ...
       158        2.0000           -0.4216012             -11.4724
       159        2.0000           -0.4206563             -11.4466
       160        2.0000           -0.4197302             -11.4214
       161        2.0000           -0.4189749             -11.4009
       162        2.0000           -0.4143038             -11.2738
       163        2.0000           -0.4089131             -11.1271
       164        2.0000           -0.4073908             -11.0857
       165        2.0000           -0.4042831             -11.0011
       166        2.0000           -0.3965967             -10.7919
       167        2.0000           -0.3910075             -10.6399
       168        2.0000           -0.3863628             -10.5135
       169        2.0000           -0.3782449             -10.2926
       170        2.0000           -0.3750556             -10.2058 (HOMO)
       171                         -0.3390723              -9.2266 (LUMO)
       172                         -0.3298357              -8.9753
       173                         -0.3245265              -8.8308
       174                         -0.3174453              -8.6381
       175                         -0.3018158              -8.2128
       176                         -0.2790733              -7.5940
       177                         -0.2627204              -7.1490
       178                         -0.2569914              -6.9931
       179                         -0.2525958              -6.8735
       180                         -0.2498006              -6.7974
       181                         -0.2410547              -6.5594
       ...                                ...                  ...
       339                          1.1525339              31.3620
      -------------------------------------------------------------
                  HL-Gap            0.0359833 Eh            0.9792 eV
             Fermi-level           -0.3570477 Eh           -9.7158 eV

     #   Z          covCN         q      C6AA      α(0)
     1   6 C        2.938    -0.007    28.201     8.709
     2   6 C        2.999    -0.041    29.001     8.834
     3   6 C        2.869     0.230    23.185     7.893
     4   8 O        0.856    -0.427    22.230     6.321
     5   6 C        3.062    -0.022    28.496     8.754
     6   6 C        2.904    -0.025    28.631     8.774
     7   6 C        3.261     0.014    26.525     8.321
     8   6 C        3.257     0.014    26.582     8.336
     9   6 C        2.904    -0.033    28.826     8.803
    10   6 C        3.044     0.004    27.897     8.663
    11   6 C        3.025     0.037    27.151     8.547
    12   6 C        2.947    -0.002    28.071     8.690
    13   6 C        1.946     0.134    27.800     8.515
    14   7 N        0.911    -0.288    27.415     7.573
    15   6 C        1.944     0.130    27.902     8.530
    16   7 N        0.911    -0.290    27.480     7.582
    17   6 C        4.163    -0.028    20.981     6.506
    18   6 C        4.012    -0.016    20.787     6.477
    19   6 C        2.987    -0.042    29.043     8.840
    20   6 C        2.987    -0.043    29.064     8.843
    21   6 C        4.012    -0.017    20.792     6.478
    22   6 C        3.926    -0.066    21.694     6.619
    23   6 C        4.161    -0.028    20.981     6.506
    24   6 C        2.980     0.012    27.750     8.641
    25  34 Se       2.236    -0.011   236.109    26.775
    26   6 C        3.067    -0.002    28.009     8.678
    27   6 C        3.095    -0.036    28.775     8.792
    28   6 C        3.348     0.070    23.856     7.703
    29   6 C        3.341     0.069    24.029     7.751
    30   7 N        1.855    -0.296    28.522     7.916
    31  16 S        2.691     0.306   129.194    19.130
    32   7 N        1.854    -0.296    28.535     7.917
    33   6 C        3.090    -0.037    28.816     8.799
    34   6 C        3.097     0.006    27.771     8.637
    35  16 S        2.183    -0.027   142.152    20.067
    36   6 C        3.188     0.014    27.221     8.511
    37   6 C        3.085     0.023    27.390     8.579
    38   6 C        3.804    -0.054    21.534     6.606
    39   6 C        3.753    -0.117    22.802     6.809
    40   6 C        2.998     0.020    27.539     8.608
    41  16 S        2.274    -0.005   141.265    20.004
    42   6 C        3.119     0.016    27.473     8.585
    43   6 C        3.250     0.032    26.259     8.295
    44   7 N        2.802    -0.006    21.368     6.866
    45   6 C        3.064     0.034    27.188     8.550
    46   6 C        3.054     0.038    27.097     8.537
    47   7 N        2.804    -0.008    21.407     6.872
    48   6 C        3.265     0.040    25.897     8.215
    49   6 C        3.009    -0.044    29.078     8.845
    50   6 C        3.745    -0.018    20.967     6.532
    51   6 C        3.751    -0.128    23.014     6.841
    52   6 C        3.745    -0.019    20.982     6.534
    53   6 C        3.752    -0.131    23.084     6.852
    54   6 C        2.957    -0.006    28.159     8.704
    55   6 C        3.009    -0.038    28.919     8.821
    56   6 C        2.865     0.235    23.094     7.877
    57   8 O        0.856    -0.406    21.809     6.261
    58   6 C        3.045    -0.014    28.324     8.729
    59   6 C        2.947    -0.029    28.725     8.790
    60   6 C        2.885     0.093    25.942     8.350
    61  17 Cl       0.961    -0.137   103.419    15.558
    62   6 C        2.819     0.177    24.192     8.059
    63   9 F        0.788    -0.219    11.429     3.993
    64   6 C        2.913    -0.044    29.082     8.843
    65   6 C        3.035     0.012    27.709     8.634
    66   6 C        3.020     0.040    27.083     8.537
    67   6 C        2.947     0.009    27.806     8.649
    68   6 C        1.936     0.133    27.842     8.521
    69   7 N        0.911    -0.270    26.988     7.514
    70   6 C        1.936     0.134    27.812     8.517
    71   7 N        0.911    -0.274    27.080     7.526
    72   1 H        0.925     0.062     2.179     2.308
    73   1 H        0.926     0.071     2.074     2.252
    74   1 H        0.926     0.053     2.285     2.364
    75   1 H        0.925     0.059     2.206     2.323
    76   1 H        0.925     0.042     2.419     2.432
    77   1 H        0.926     0.028     2.615     2.529
    78   1 H        0.926     0.033     2.546     2.495
    79   1 H        0.925     0.047     2.364     2.404
    80   1 H        0.925     0.050     2.322     2.383
    81   1 H        0.925     0.048     2.339     2.392
    82   1 H        0.925     0.063     2.170     2.303
    83   1 H        0.924     0.046     2.369     2.407
    84   1 H        0.924     0.083     1.953     2.186
    85   1 H        0.925     0.055     2.258     2.350
    86   1 H        0.925     0.050     2.321     2.383
    87   1 H        0.925     0.058     2.223     2.331
    88   1 H        0.926     0.108     1.715     2.048
    89   1 H        0.925     0.092     1.858     2.132
    90   1 H        0.924     0.077     2.010     2.217
    91   1 H        0.925     0.073     2.049     2.239
    92   1 H        0.925     0.058     2.225     2.333
    93   1 H        0.925     0.055     2.255     2.349
    94   1 H        0.925     0.092     1.859     2.132
    95   1 H        0.924     0.080     1.977     2.199
    96   1 H        0.925     0.077     2.015     2.220
    97   1 H        0.925     0.059     2.216     2.328
    98   1 H        0.925     0.061     2.190     2.314
    99   1 H        0.925     0.078     1.999     2.211
   100   1 H        0.926     0.113     1.668     2.019
   101   1 H        0.926     0.098     1.806     2.102

 Mol. C6AA /au·bohr⁶  :     192421.536293
 Mol. C8AA /au·bohr⁸  :    5523720.514466
 Mol. α(0) /au        :        695.127087


Wiberg/Mayer (AO) data.
largest (>0.10) Wiberg bond orders for each atom

 ---------------------------------------------------------------------------
     #   Z sym  total        # sym  WBO       # sym  WBO       # sym  WBO
 ---------------------------------------------------------------------------
     1   6 C    3.942 --     2 C    1.505    24 C    1.284    72 H    0.939
     2   6 C    3.949 --     1 C    1.505    11 C    1.138     3 C    1.045
     3   6 C    3.914 --     4 O    1.709     2 C    1.045     5 C    1.033
     4   8 O    2.010 --     3 C    1.709
     5   6 C    3.973 --     6 C    1.380    10 C    1.303     3 C    1.033
     6   6 C    3.979 --     7 C    1.441     5 C    1.380    73 H    0.962
     7   6 C    3.952 --     6 C    1.441     8 C    1.322    23 C    0.997
     8   6 C    3.963 --     9 C    1.448     7 C    1.322    17 C    0.999
     9   6 C    3.979 --     8 C    1.448    10 C    1.365    74 H    0.959
    10   6 C    3.976 --     9 C    1.365     5 C    1.303    11 C    1.093
    11   6 C    3.967 --    12 C    1.467     2 C    1.138    10 C    1.093
    12   6 C    3.946 --    11 C    1.467    13 C    1.102    15 C    1.101
    13   6 C    3.939 --    14 N    2.746    12 C    1.102
    14   7 N    2.955 --    13 C    2.746
    15   6 C    3.940 --    16 N    2.739    12 C    1.101
    16   7 N    2.950 --    15 C    2.739
    17   6 C    3.983 --     8 C    0.999    23 C    0.977    75 H    0.957
                            18 C    0.946
    18   6 C    3.988 --    19 C    1.010    22 C    0.985    76 H    0.972
                            17 C    0.946
    19   6 C    3.987 --    20 C    1.924    18 C    1.010    77 H    0.972
    20   6 C    3.987 --    19 C    1.924    21 C    1.010    78 H    0.971
    21   6 C    3.987 --    20 C    1.010    22 C    0.985    79 H    0.971
                            23 C    0.945
    22   6 C    3.991 --    21 C    0.985    18 C    0.985    80 H    0.977
                            81 H    0.976
    23   6 C    3.982 --     7 C    0.997    17 C    0.977    82 H    0.957
                            21 C    0.945
    24   6 C    3.938 --    49 C    1.414     1 C    1.284    25 Se   1.077
    25  34 Se   2.659 --    26 C    1.176    24 C    1.077    49 C    0.121
    26   6 C    3.938 --    27 C    1.288    48 C    1.255    25 Se   1.176
    27   6 C    3.953 --    26 C    1.288    46 C    1.252    28 C    1.172
    28   6 C    3.971 --    32 N    1.422    27 C    1.172    29 C    1.169
                            31 S    0.104
    29   6 C    3.971 --    30 N    1.422    33 C    1.171    28 C    1.169
                            31 S    0.107
    30   7 N    3.059 --    29 C    1.422    31 S    1.384    32 N    0.145
    31  16 S    3.094 --    30 N    1.384    32 N    1.376    29 C    0.107
                            28 C    0.104
    32   7 N    3.069 --    28 C    1.422    31 S    1.376    30 N    0.145
    33   6 C    3.949 --    34 C    1.288    45 C    1.254    29 C    1.171
    34   6 C    3.918 --    33 C    1.288    43 C    1.288    35 S    1.114
    35  16 S    2.526 --    34 C    1.114    36 C    1.087
    36   6 C    3.926 --    37 C    1.323    42 C    1.309    35 S    1.087
    37   6 C    3.955 --    40 C    1.370    36 C    1.323    38 C    1.025
    38   6 C    3.992 --    37 C    1.025    39 C    1.003    83 H    0.968
                            84 H    0.933
    39   6 C    3.990 --    38 C    1.003    86 H    0.987    85 H    0.983
                            87 H    0.978
    40   6 C    3.928 --    37 C    1.370    54 C    1.293    41 S    1.062
    41  16 S    2.557 --    42 C    1.142    40 C    1.062
    42   6 C    3.934 --    36 C    1.309    43 C    1.256    41 S    1.142
    43   6 C    3.939 --    34 C    1.288    42 C    1.256    44 N    1.172
    44   7 N    3.583 --    45 C    1.192    43 C    1.172    52 C    0.971
    45   6 C    3.929 --    33 C    1.254    46 C    1.217    44 N    1.192
    46   6 C    3.924 --    27 C    1.252    45 C    1.217    47 N    1.198
    47   7 N    3.583 --    46 C    1.198    48 C    1.165    50 C    0.971
    48   6 C    3.944 --    49 C    1.318    26 C    1.255    47 N    1.165
    49   6 C    3.946 --    24 C    1.414    48 C    1.318    88 H    0.932
                            25 Se   0.121
    50   6 C    3.945 --    51 C    1.005    47 N    0.971    90 H    0.962
                            89 H    0.955
    51   6 C    3.983 --    50 C    1.005    92 H    0.983    91 H    0.980
                            93 H    0.979
    52   6 C    3.944 --    53 C    1.004    44 N    0.971    95 H    0.960
                            94 H    0.955
    53   6 C    3.982 --    52 C    1.004    98 H    0.980    96 H    0.980
                            97 H    0.978
    54   6 C    3.940 --    55 C    1.485    40 C    1.293    99 H    0.943
    55   6 C    3.956 --    54 C    1.485    66 C    1.153    56 C    1.050
    56   6 C    3.922 --    57 O    1.731    55 C    1.050    58 C    1.010
    57   8 O    2.024 --    56 C    1.731
    58   6 C    3.977 --    59 C    1.426    65 C    1.295    56 C    1.010
    59   6 C    3.969 --    58 C    1.426    60 C    1.381   100 H    0.955
    60   6 C    3.906 --    59 C    1.381    62 C    1.345    61 Cl   1.002
    61  17 Cl   1.145 --    60 C    1.002
    62   6 C    3.874 --    64 C    1.392    60 C    1.345    63 F    0.967
    63   9 F    1.099 --    62 C    0.967
    64   6 C    3.969 --    65 C    1.398    62 C    1.392   101 H    0.953
    65   6 C    3.983 --    64 C    1.398    58 C    1.295    66 C    1.084
    66   6 C    3.967 --    67 C    1.468    55 C    1.153    65 C    1.084
    67   6 C    3.943 --    66 C    1.468    70 C    1.102    68 C    1.101
    68   6 C    3.943 --    69 N    2.751    67 C    1.101
    69   7 N    2.954 --    68 C    2.751
    70   6 C    3.941 --    71 N    2.754    67 C    1.102
    71   7 N    2.957 --    70 C    2.754
    72   1 H    0.995 --     1 C    0.939
    73   1 H    0.994 --     6 C    0.962
    74   1 H    0.997 --     9 C    0.959
    75   1 H    0.995 --    17 C    0.957
    76   1 H    0.998 --    18 C    0.972
    77   1 H    0.999 --    19 C    0.972
    78   1 H    0.999 --    20 C    0.971
    79   1 H    0.998 --    21 C    0.971
    80   1 H    0.997 --    22 C    0.977
    81   1 H    0.995 --    22 C    0.976
    82   1 H    0.994 --    23 C    0.957
    83   1 H    0.997 --    38 C    0.968
    84   1 H    0.991 --    38 C    0.933
    85   1 H    0.996 --    39 C    0.983
    86   1 H    0.997 --    39 C    0.987
    87   1 H    0.997 --    39 C    0.978
    88   1 H    0.988 --    49 C    0.932
    89   1 H    0.990 --    50 C    0.955
    90   1 H    0.992 --    50 C    0.962
    91   1 H    0.994 --    51 C    0.980
    92   1 H    0.997 --    51 C    0.983
    93   1 H    0.997 --    51 C    0.979
    94   1 H    0.990 --    52 C    0.955
    95   1 H    0.991 --    52 C    0.960
    96   1 H    0.993 --    53 C    0.980
    97   1 H    0.996 --    53 C    0.978
    98   1 H    0.996 --    53 C    0.980
    99   1 H    0.991 --    54 C    0.943
   100   1 H    0.987 --    59 C    0.955
   101   1 H    0.990 --    64 C    0.953
 ---------------------------------------------------------------------------

Topologies differ in bond orders
Writing corrected topology to xtbtopo.mol

molecular dipole:
                 x           y           z       tot (Debye)
 q only:       -3.173      -1.183      -2.285
   full:       -2.319      -1.551      -2.694       9.859
molecular quadrupole (traceless):
                xx          xy          yy          xz          yz          zz
 q only:       50.538     -24.363      30.529     111.356     126.199     -81.067
  q+dip:       74.461     -19.063      16.807      91.473     130.317     -91.268
   full:       74.665     -23.752      19.776      92.427     137.543     -94.442


           -------------------------------------------------
          | TOTAL ENERGY             -186.712292028629 Eh   |
          | GRADIENT NORM               0.033755246060 Eh/α |
          | HOMO-LUMO GAP               0.979154917562 eV   |
           -------------------------------------------------

------------------------------------------------------------------------
 * finished run on 2022/02/10 at 21:18:12.742     
------------------------------------------------------------------------
 total:
 * wall-time:     0 d,  0 h,  0 min,  0.309 sec
 *  cpu-time:     0 d,  0 h,  0 min,  2.394 sec
 * ratio c/w:     7.743 speedup
 SCF:
 * wall-time:     0 d,  0 h,  0 min,  0.258 sec
 *  cpu-time:     0 d,  0 h,  0 min,  2.050 sec
 * ratio c/w:     7.951 speedup

