      -----------------------------------------------------------      
     |                   =====================                   |     
     |                           x T B                           |     
     |                   =====================                   |     
     |                         S. Grimme                         |     
     |          Mulliken Center for Theoretical Chemistry        |     
     |                    University of Bonn                     |     
      -----------------------------------------------------------      

   * xtb version 6.4.1 (unknown) compiled by 'oda6@login1.crc.pitt.edu' on 2021-06-25

   xtb is free software: you can redistribute it and/or modify it under
   the terms of the GNU Lesser General Public License as published by
   the Free Software Foundation, either version 3 of the License, or
   (at your option) any later version.
   
   xtb is distributed in the hope that it will be useful,
   but WITHOUT ANY WARRANTY; without even the implied warranty of
   MERCHANTABILITY or FITNESS FOR A PARTICULAR PURPOSE.  See the
   GNU Lesser General Public License for more details.
   
   Cite this work as:
   * C. Bannwarth, E. Caldeweyher, S. Ehlert, A. Hansen, P. Pracht,
     J. Seibert, S. Spicher, S. Grimme, WIREs Comput. Mol. Sci., 2020, 11,
     e01493. DOI: 10.1002/wcms.1493
   
   for GFN2-xTB:
   * C. Bannwarth, S. Ehlert and S. Grimme., J. Chem. Theory Comput., 2019,
     15, 1652-1671. DOI: 10.1021/acs.jctc.8b01176
   for GFN1-xTB:
   * S. Grimme, C. Bannwarth, P. Shushkov, J. Chem. Theory Comput., 2017,
     13, 1989-2009. DOI: 10.1021/acs.jctc.7b00118
   for GFN0-xTB:
   * P. Pracht, E. Caldeweyher, S. Ehlert, S. Grimme, ChemRxiv, 2019, preprint.
     DOI: 10.26434/chemrxiv.8326202.v1
   for GFN-FF:
   * S. Spicher and S. Grimme, Angew. Chem. Int. Ed., 2020, 59, 15665-15673.
     DOI: 10.1002/anie.202004239
   
   for DFT-D4:
   * E. Caldeweyher, C. Bannwarth and S. Grimme, J. Chem. Phys., 2017,
     147, 034112. DOI: 10.1063/1.4993215
   * E. Caldeweyher, S. Ehlert, A. Hansen, H. Neugebauer, S. Spicher,
     C. Bannwarth and S. Grimme, J. Chem. Phys., 2019, 150, 154122.
     DOI: 10.1063/1.5090222
   * E. Caldeweyher, J.-M. Mewes, S. Ehlert and S. Grimme, Phys. Chem. Chem. Phys.
     2020, 22, 8499-8512. DOI: 10.1039/D0CP00502A
   
   for sTDA-xTB:
   * S. Grimme and C. Bannwarth, J. Chem. Phys., 2016, 145, 054103.
     DOI: 10.1063/1.4959605
   
   in the mass-spec context:
   * V. Asgeirsson, C. Bauer and S. Grimme, Chem. Sci., 2017, 8, 4879.
     DOI: 10.1039/c7sc00601b
   * J. Koopman and S. Grimme, ACS Omega 2019, 4, 12, 15120-15133.
     DOI: 10.1021/acsomega.9b02011
   
   for metadynamics refer to:
   * S. Grimme, J. Chem. Theory Comput., 2019, 155, 2847-2862
     DOI: 10.1021/acs.jctc.9b00143
   
   for SPH calculations refer to:
   * S. Spicher and S. Grimme, J. Chem. Theory Comput., 2021, 17, 1701-1714
     DOI: 10.1021/acs.jctc.0c01306
   
   with help from (in alphabetical order)
   P. Atkinson, C. Bannwarth, F. Bohle, G. Brandenburg, E. Caldeweyher
   M. Checinski, S. Dohm, S. Ehlert, S. Ehrlich, I. Gerasimov, J. Koopman
   C. Lavigne, S. Lehtola, F. März, M. Müller, F. Musil, H. Neugebauer
   J. Pisarek, C. Plett, P. Pracht, J. Seibert, P. Shushkov, S. Spicher
   M. Stahn, M. Steiner, T. Strunk, J. Stückrath, T. Rose, and J. Unsleber
   
 * started run on 2022/02/02 at 12:52:14.106     

           -------------------------------------------------
          |                Calculation Setup                |
           -------------------------------------------------

          program call               : /ihome/ghutchison/oda6/xtb/xtb-641/bin/xtb ../../GFN2_output/39_128_39.mol --sp --alpb water
          hostname                   : smp-n98
          coordinate file            : ../../GFN2_output/39_128_39.mol
          omp threads                :                     8
          number of atoms            :                   160
          number of electrons        :                   470
          charge                     :                     0
          spin                       :                   0.0
          first test random number   :      0.75492025174583

   ID    Z sym.   atoms
    1    6 C      1-3, 5-13, 15, 17-26, 28-47, 49-53, 55-57, 59-78, 80-88,
                  90, 92-98
    2    8 O      4, 27, 58, 79
    3    7 N      14, 16, 89, 91
    4   16 S      48, 54
    5    1 H      99-160

           -------------------------------------------------
          |                 G F N 2 - x T B                 |
           -------------------------------------------------

        Reference                      10.1021/acs.jctc.8b01176
      * Hamiltonian:
        H0-scaling (s, p, d)           1.850000    2.230000    2.230000
        zeta-weighting                 0.500000
      * Dispersion:
        s8                             2.700000
        a1                             0.520000
        a2                             5.000000
        s9                             5.000000
      * Repulsion:
        kExp                           1.500000    1.000000
        rExp                           1.000000
      * Coulomb:
        alpha                          2.000000
        third order                    shell-resolved
        anisotropic                    true
        a3                             3.000000
        a5                             4.000000
        cn-shift                       1.200000
        cn-exp                         4.000000
        max-rad                        5.000000

      * Solvation model:               ALPB
        Solvent                        water
        Parameter file                 internal GFN2-xTB/ALPB
        Dielectric constant                8.0200E+01
        Reference state                gsolv [1 M gas/solution]
        Free energy shift                  1.0808E-03 Eh       6.7819E-01 kcal/mol
        Temperature                        2.9815E+02 K
        Density                            1.0000E+00 kg/L
        Solvent mass                       1.8000E+01 g/mol
        Interaction kernel             P16
        Born radius scaling (c1)           1.4744E+00
        Born radii integrator          GBOBC
        Born offset                        0.0000E+00 a0       0.0000E+00 AA
        H-bond correction              true
        Ion screening                  false
        Surface tension                    1.0000E-05 Eh       1.5569E+01 dyn/cm
        Grid points                               230 per atom

          ...................................................
          :                      SETUP                      :
          :.................................................:
          :  # basis functions                 466          :
          :  # atomic orbitals                 464          :
          :  # shells                          260          :
          :  # electrons                       470          :
          :  max. iterations                   250          :
          :  Hamiltonian                  GFN2-xTB          :
          :  restarted?                      false          :
          :  GBSA solvation                   true          :
          :  PC potential                    false          :
          :  electronic temp.          300.0000000     K    :
          :  accuracy                    1.0000000          :
          :  -> integral cutoff          0.2500000E+02      :
          :  -> integral neglect         0.1000000E-07      :
          :  -> SCF convergence          0.1000000E-05 Eh   :
          :  -> wf. convergence          0.1000000E-03 e    :
          :  Broyden damping             0.4000000          :
          ...................................................

 iter      E             dE          RMSdq      gap      omega  full diag
   1   -258.5837205 -0.258584E+03  0.439E+00    1.01       0.0  T
   2   -258.6976199 -0.113899E+00  0.256E+00    1.10       1.0  T
   3   -258.5597382  0.137882E+00  0.124E+00    0.87       1.0  T
   4   -258.7330686 -0.173330E+00  0.350E-01    0.99       1.0  T
   5   -258.7427948 -0.972615E-02  0.110E-01    0.98       1.0  T
   6   -258.7434180 -0.623234E-03  0.524E-02    0.99       1.0  T
   7   -258.7434865 -0.685228E-04  0.224E-02    0.98       1.0  T
   8   -258.7435272 -0.406923E-04  0.937E-03    0.99       1.0  T
   9   -258.7435334 -0.619211E-05  0.418E-03    0.99       1.9  T
  10   -258.7435344 -0.102125E-05  0.224E-03    0.99       3.5  T
  11   -258.7435346 -0.185127E-06  0.109E-03    0.99       7.2  T
  12   -258.7435346 -0.260412E-07  0.628E-04    0.99      12.6  T
  13   -258.7435346 -0.207958E-07  0.282E-04    0.99      28.0  T

   *** convergence criteria satisfied after 13 iterations ***

         #    Occupation            Energy/Eh            Energy/eV
      -------------------------------------------------------------
         1        2.0000           -0.7435159             -20.2321
       ...           ...                  ...                  ...
       229        2.0000           -0.3954412             -10.7605
       230        2.0000           -0.3948700             -10.7450
       231        2.0000           -0.3937226             -10.7137
       232        2.0000           -0.3902884             -10.6203
       233        2.0000           -0.3893018             -10.5934
       234        2.0000           -0.3875088             -10.5447
       235        2.0000           -0.3716776             -10.1139 (HOMO)
       236                         -0.3353136              -9.1243 (LUMO)
       237                         -0.3294601              -8.9651
       238                         -0.3215341              -8.7494
       239                         -0.3154785              -8.5846
       240                         -0.2776940              -7.5564
       ...                                ...                  ...
       464                          1.1512104              31.3260
      -------------------------------------------------------------
                  HL-Gap            0.0363640 Eh            0.9895 eV
             Fermi-level           -0.3534966 Eh           -9.6191 eV

 SCC (total)                   0 d,  0 h,  0 min,  0.403 sec
 SCC setup                      ...        0 min,  0.004 sec (  1.075%)
 Dispersion                     ...        0 min,  0.008 sec (  1.947%)
 classical contributions        ...        0 min,  0.000 sec (  0.071%)
 integral evaluation            ...        0 min,  0.021 sec (  5.269%)
 iterations                     ...        0 min,  0.291 sec ( 72.171%)
 molecular gradient             ...        0 min,  0.077 sec ( 19.021%)
 printout                       ...        0 min,  0.002 sec (  0.426%)

         :::::::::::::::::::::::::::::::::::::::::::::::::::::
         ::                     SUMMARY                     ::
         :::::::::::::::::::::::::::::::::::::::::::::::::::::
         :: total energy            -254.370409583948 Eh    ::
         :: total w/o Gsasa/hb      -254.343593014609 Eh    ::
         :: gradient norm              0.026587494777 Eh/a0 ::
         :: HOMO-LUMO gap              0.989513971363 eV    ::
         ::.................................................::
         :: SCC energy              -258.743534647625 Eh    ::
         :: -> isotropic ES            0.150194613224 Eh    ::
         :: -> anisotropic ES          0.018482454675 Eh    ::
         :: -> anisotropic XC          0.166343235797 Eh    ::
         :: -> dispersion             -0.239878509817 Eh    ::
         :: -> Gsolv                  -0.051918844252 Eh    ::
         ::    -> Gelec               -0.025102274912 Eh    ::
         ::    -> Gsasa               -0.022950022111 Eh    ::
         ::    -> Ghb                 -0.004947306927 Eh    ::
         ::    -> Gshift               0.001080759698 Eh    ::
         :: repulsion energy           4.370459315509 Eh    ::
         :: add. restraining           0.000000000000 Eh    ::
         :: total charge              -0.000000000020 e     ::
         :::::::::::::::::::::::::::::::::::::::::::::::::::::

           -------------------------------------------------
          |                Property Printout                |
           -------------------------------------------------

    * Orbital Energies and Occupations

         #    Occupation            Energy/Eh            Energy/eV
      -------------------------------------------------------------
         1        2.0000           -0.7435159             -20.2321
       ...           ...                  ...                  ...
       223        2.0000           -0.4069944             -11.0749
       224        2.0000           -0.4060106             -11.0481
       225        2.0000           -0.4055272             -11.0350
       226        2.0000           -0.4050792             -11.0228
       227        2.0000           -0.4007252             -10.9043
       228        2.0000           -0.3964680             -10.7884
       229        2.0000           -0.3954412             -10.7605
       230        2.0000           -0.3948700             -10.7450
       231        2.0000           -0.3937226             -10.7137
       232        2.0000           -0.3902884             -10.6203
       233        2.0000           -0.3893018             -10.5934
       234        2.0000           -0.3875088             -10.5447
       235        2.0000           -0.3716776             -10.1139 (HOMO)
       236                         -0.3353136              -9.1243 (LUMO)
       237                         -0.3294601              -8.9651
       238                         -0.3215341              -8.7494
       239                         -0.3154785              -8.5846
       240                         -0.2776940              -7.5564
       241                         -0.2618680              -7.1258
       242                         -0.2513908              -6.8407
       243                         -0.2513747              -6.8403
       244                         -0.2491741              -6.7804
       245                         -0.2447528              -6.6601
       246                         -0.2352236              -6.4008
       ...                                ...                  ...
       464                          1.1512104              31.3260
      -------------------------------------------------------------
                  HL-Gap            0.0363640 Eh            0.9895 eV
             Fermi-level           -0.3534966 Eh           -9.6191 eV

     #   Z          covCN         q      C6AA      α(0)
     1   6 C        2.919    -0.014    28.353     8.732
     2   6 C        3.007    -0.037    28.902     8.819
     3   6 C        2.875     0.228    23.215     7.898
     4   8 O        0.958    -0.403    21.690     6.247
     5   6 C        3.062    -0.021    28.464     8.749
     6   6 C        2.904    -0.022    28.553     8.762
     7   6 C        3.260     0.016    26.497     8.317
     8   6 C        3.256     0.016    26.561     8.334
     9   6 C        2.904    -0.032    28.807     8.801
    10   6 C        3.050     0.005    27.874     8.659
    11   6 C        3.023     0.038    27.128     8.543
    12   6 C        2.947     0.002    27.988     8.677
    13   6 C        1.942     0.135    27.787     8.513
    14   7 N        0.911    -0.282    27.285     7.555
    15   6 C        1.941     0.131    27.878     8.527
    16   7 N        0.911    -0.285    27.363     7.565
    17   6 C        4.162    -0.025    20.933     6.498
    18   6 C        4.013    -0.016    20.785     6.476
    19   6 C        2.995    -0.044    29.073     8.845
    20   6 C        2.995    -0.044    29.086     8.847
    21   6 C        4.013    -0.016    20.786     6.477
    22   6 C        3.915    -0.063    21.640     6.612
    23   6 C        4.160    -0.025    20.929     6.497
    24   6 C        2.986     0.027    27.393     8.585
    25   6 C        3.079    -0.073    29.734     8.940
    26   6 C        3.031     0.143    24.853     8.177
    27   8 O        1.703    -0.275    18.570     5.818
    28   6 C        3.816     0.136    18.378     6.102
    29   6 C        2.977    -0.003    28.095     8.694
    30   6 C        2.920    -0.038    28.955     8.824
    31   6 C        2.926    -0.040    28.995     8.831
    32   6 C        2.971     0.017    27.628     8.622
    33   6 C        3.806    -0.063    21.709     6.633
    34   6 C        3.754    -0.104    22.546     6.771
    35   6 C        2.925    -0.040    28.998     8.831
    36   6 C        2.924    -0.033    28.816     8.803
    37   6 C        2.976    -0.011    28.282     8.723
    38   6 C        2.922    -0.035    28.882     8.813
    39   6 C        2.925    -0.042    29.032     8.836
    40   6 C        2.971     0.015    27.675     8.629
    41   6 C        3.806    -0.065    21.736     6.637
    42   6 C        3.754    -0.108    22.614     6.781
    43   6 C        2.925    -0.041    29.013     8.833
    44   6 C        2.921    -0.040    28.995     8.830
    45   6 C        2.989     0.000    28.017     8.683
    46   6 C        3.007     0.013    27.709     8.635
    47   6 C        3.009    -0.013    28.310     8.728
    48  16 S        2.367     0.037   139.549    19.882
    49   6 C        2.921    -0.039    28.972     8.827
    50   6 C        2.987     0.000    28.017     8.683
    51   6 C        3.008     0.014    27.691     8.632
    52   6 C        2.921    -0.039    28.963     8.825
    53   6 C        3.008    -0.013    28.319     8.729
    54  16 S        2.362     0.039   139.473    19.877
    55   6 C        2.985     0.027    27.397     8.586
    56   6 C        3.079    -0.074    29.752     8.942
    57   6 C        3.028     0.143    24.857     8.178
    58   8 O        1.702    -0.272    18.518     5.810
    59   6 C        3.812     0.135    18.388     6.104
    60   6 C        2.977    -0.003    28.097     8.695
    61   6 C        2.922    -0.035    28.861     8.810
    62   6 C        2.925    -0.041    29.024     8.835
    63   6 C        2.971     0.016    27.652     8.626
    64   6 C        3.806    -0.061    21.669     6.627
    65   6 C        3.753    -0.108    22.622     6.782
    66   6 C        2.926    -0.040    28.990     8.830
    67   6 C        2.921    -0.039    28.976     8.827
    68   6 C        2.976    -0.010    28.266     8.721
    69   6 C        2.923    -0.034    28.857     8.809
    70   6 C        2.925    -0.041    29.021     8.834
    71   6 C        2.971     0.015    27.666     8.628
    72   6 C        3.806    -0.065    21.743     6.638
    73   6 C        3.754    -0.107    22.607     6.780
    74   6 C        2.926    -0.041    29.020     8.834
    75   6 C        2.920    -0.040    28.993     8.830
    76   6 C        2.919    -0.014    28.356     8.732
    77   6 C        3.007    -0.037    28.902     8.819
    78   6 C        2.876     0.228    23.218     7.899
    79   8 O        0.951    -0.403    21.702     6.248
    80   6 C        3.061    -0.021    28.457     8.748
    81   6 C        2.904    -0.023    28.566     8.764
    82   6 C        3.260     0.016    26.496     8.317
    83   6 C        3.255     0.016    26.569     8.336
    84   6 C        2.904    -0.033    28.810     8.801
    85   6 C        3.050     0.004    27.878     8.659
    86   6 C        3.024     0.038    27.131     8.544
    87   6 C        2.947     0.002    27.990     8.677
    88   6 C        1.941     0.131    27.879     8.527
    89   7 N        0.911    -0.286    27.369     7.566
    90   6 C        1.942     0.135    27.788     8.513
    91   7 N        0.911    -0.282    27.288     7.555
    92   6 C        4.163    -0.025    20.930     6.498
    93   6 C        4.013    -0.016    20.785     6.477
    94   6 C        2.995    -0.044    29.073     8.845
    95   6 C        2.995    -0.044    29.089     8.847
    96   6 C        4.013    -0.016    20.783     6.476
    97   6 C        3.915    -0.063    21.642     6.612
    98   6 C        4.160    -0.025    20.926     6.497
    99   1 H        0.925     0.071     2.070     2.250
   100   1 H        0.926     0.066     2.129     2.282
   101   1 H        0.926     0.056     2.243     2.342
   102   1 H        0.925     0.055     2.255     2.348
   103   1 H        0.925     0.042     2.423     2.434
   104   1 H        0.926     0.044     2.398     2.422
   105   1 H        0.926     0.045     2.379     2.412
   106   1 H        0.925     0.045     2.377     2.411
   107   1 H        0.925     0.045     2.380     2.413
   108   1 H        0.925     0.034     2.530     2.487
   109   1 H        0.925     0.058     2.222     2.331
   110   1 H        0.926     0.078     2.005     2.214
   111   1 H        0.926     0.039     2.467     2.456
   112   1 H        0.926     0.046     2.367     2.406
   113   1 H        0.924     0.047     2.355     2.400
   114   1 H        0.924     0.042     2.425     2.435
   115   1 H        0.925     0.042     2.418     2.432
   116   1 H        0.925     0.041     2.432     2.439
   117   1 H        0.925     0.037     2.492     2.468
   118   1 H        0.926     0.040     2.443     2.444
   119   1 H        0.926     0.031     2.573     2.508
   120   1 H        0.926     0.038     2.470     2.458
   121   1 H        0.926     0.042     2.425     2.435
   122   1 H        0.924     0.045     2.384     2.415
   123   1 H        0.924     0.044     2.398     2.422
   124   1 H        0.925     0.039     2.456     2.451
   125   1 H        0.925     0.040     2.445     2.445
   126   1 H        0.925     0.045     2.377     2.411
   127   1 H        0.926     0.043     2.405     2.425
   128   1 H        0.926     0.029     2.597     2.520
   129   1 H        0.926     0.058     2.221     2.331
   130   1 H        0.926     0.059     2.213     2.326
   131   1 H        0.926     0.078     2.004     2.214
   132   1 H        0.926     0.036     2.502     2.474
   133   1 H        0.926     0.042     2.428     2.437
   134   1 H        0.924     0.043     2.404     2.425
   135   1 H        0.924     0.041     2.437     2.441
   136   1 H        0.925     0.040     2.445     2.445
   137   1 H        0.925     0.047     2.362     2.403
   138   1 H        0.925     0.039     2.456     2.451
   139   1 H        0.926     0.045     2.387     2.416
   140   1 H        0.926     0.036     2.497     2.471
   141   1 H        0.926     0.040     2.449     2.447
   142   1 H        0.926     0.043     2.411     2.428
   143   1 H        0.924     0.046     2.374     2.409
   144   1 H        0.924     0.045     2.381     2.413
   145   1 H        0.925     0.038     2.473     2.459
   146   1 H        0.925     0.039     2.459     2.452
   147   1 H        0.925     0.046     2.373     2.409
   148   1 H        0.926     0.043     2.408     2.427
   149   1 H        0.926     0.028     2.615     2.529
   150   1 H        0.925     0.071     2.075     2.253
   151   1 H        0.926     0.069     2.092     2.262
   152   1 H        0.926     0.056     2.248     2.345
   153   1 H        0.925     0.054     2.265     2.354
   154   1 H        0.925     0.042     2.421     2.433
   155   1 H        0.926     0.043     2.406     2.426
   156   1 H        0.926     0.045     2.386     2.415
   157   1 H        0.925     0.046     2.376     2.410
   158   1 H        0.925     0.045     2.379     2.412
   159   1 H        0.925     0.035     2.512     2.478
   160   1 H        0.925     0.057     2.234     2.338

 Mol. C6AA /au·bohr⁶  :     371243.032271
 Mol. C8AA /au·bohr⁸  :    9633604.731114
 Mol. α(0) /au        :        964.094379


Wiberg/Mayer (AO) data.
largest (>0.10) Wiberg bond orders for each atom

 ---------------------------------------------------------------------------
     #   Z sym  total        # sym  WBO       # sym  WBO       # sym  WBO
 ---------------------------------------------------------------------------
     1   6 C    3.946 --     2 C    1.502    24 C    1.292    99 H    0.942
     2   6 C    3.954 --     1 C    1.502    11 C    1.136     3 C    1.060
     3   6 C    3.912 --     4 O    1.684     2 C    1.060     5 C    1.033
     4   8 O    2.084 --     3 C    1.684    48 S    0.124
     5   6 C    3.969 --     6 C    1.379    10 C    1.303     3 C    1.033
     6   6 C    3.977 --     7 C    1.439     5 C    1.379   100 H    0.963
     7   6 C    3.952 --     6 C    1.439     8 C    1.322    23 C    0.994
     8   6 C    3.962 --     9 C    1.446     7 C    1.322    17 C    0.995
     9   6 C    3.976 --     8 C    1.446    10 C    1.365   101 H    0.959
    10   6 C    3.974 --     9 C    1.365     5 C    1.303    11 C    1.090
    11   6 C    3.964 --    12 C    1.470     2 C    1.136    10 C    1.090
    12   6 C    3.944 --    11 C    1.470    13 C    1.102    15 C    1.102
    13   6 C    3.940 --    14 N    2.749    12 C    1.102
    14   7 N    2.956 --    13 C    2.749
    15   6 C    3.940 --    16 N    2.743    12 C    1.102
    16   7 N    2.951 --    15 C    2.743
    17   6 C    3.983 --     8 C    0.995    23 C    0.975   102 H    0.959
                            18 C    0.949
    18   6 C    3.988 --    19 C    1.004    22 C    0.989   103 H    0.970
                            17 C    0.949
    19   6 C    3.980 --    20 C    1.923    18 C    1.004   104 H    0.970
    20   6 C    3.980 --    19 C    1.923    21 C    1.004   105 H    0.970
    21   6 C    3.987 --    20 C    1.004    22 C    0.989   106 H    0.970
                            23 C    0.949
    22   6 C    3.993 --    18 C    0.989    21 C    0.989   107 H    0.978
                           108 H    0.974
    23   6 C    3.981 --     7 C    0.994    17 C    0.975   109 H    0.959
                            21 C    0.949
    24   6 C    3.935 --    25 C    1.364     1 C    1.292    48 S    1.116
    25   6 C    3.957 --    24 C    1.364    26 C    1.360   110 H    0.959
                            48 S    0.109
    26   6 C    3.924 --    25 C    1.360    47 C    1.308    27 O    1.088
    27   8 O    2.239 --    26 C    1.088    28 C    0.914
    28   6 C    3.923 --    45 C    0.966    29 C    0.961    37 C    0.957
                            27 O    0.914
    29   6 C    3.981 --    30 C    1.417    36 C    1.405    28 C    0.961
                            32 C    0.107
    30   6 C    3.990 --    31 C    1.446    29 C    1.417   111 H    0.965
                            35 C    0.106
    31   6 C    3.990 --    30 C    1.446    32 C    1.411   112 H    0.968
                            36 C    0.110
    32   6 C    3.986 --    31 C    1.411    35 C    1.406    33 C    1.014
                            29 C    0.107
    33   6 C    3.996 --    32 C    1.014    34 C    1.000   114 H    0.976
                           113 H    0.970
    34   6 C    3.994 --    33 C    1.000   117 H    0.988   116 H    0.985
                           115 H    0.983
    35   6 C    3.990 --    36 C    1.453    32 C    1.406   118 H    0.968
                            30 C    0.106
    36   6 C    3.991 --    35 C    1.453    29 C    1.405   119 H    0.969
                            31 C    0.110
    37   6 C    3.979 --    38 C    1.413    44 C    1.406    28 C    0.957
                            40 C    0.106
    38   6 C    3.990 --    39 C    1.446    37 C    1.413   120 H    0.968
                            43 C    0.108
    39   6 C    3.990 --    38 C    1.446    40 C    1.411   121 H    0.968
                            44 C    0.109
    40   6 C    3.987 --    39 C    1.411    43 C    1.407    41 C    1.014
                            37 C    0.106
    41   6 C    3.996 --    40 C    1.014    42 C    1.000   122 H    0.973
                           123 H    0.973
    42   6 C    3.995 --    41 C    1.000   124 H    0.988   125 H    0.988
                           126 H    0.985
    43   6 C    3.990 --    44 C    1.451    40 C    1.407   127 H    0.968
                            38 C    0.108
    44   6 C    3.990 --    43 C    1.451    37 C    1.406   128 H    0.966
                            39 C    0.109
    45   6 C    3.964 --    52 C    1.477    46 C    1.286    28 C    0.966
    46   6 C    3.952 --    49 C    1.326    45 C    1.286    47 C    1.166
    47   6 C    3.920 --    26 C    1.308    48 S    1.187    46 C    1.166
    48  16 S    2.757 --    47 C    1.187    24 C    1.116     4 O    0.124
                            25 C    0.109
    49   6 C    3.970 --    50 C    1.477    46 C    1.326   129 H    0.956
    50   6 C    3.964 --    49 C    1.477    51 C    1.285    59 C    0.968
    51   6 C    3.951 --    52 C    1.325    50 C    1.285    53 C    1.167
    52   6 C    3.969 --    45 C    1.477    51 C    1.325   130 H    0.957
    53   6 C    3.919 --    57 C    1.307    54 S    1.185    51 C    1.167
    54  16 S    2.753 --    53 C    1.185    55 C    1.116    79 O    0.121
                            56 C    0.110
    55   6 C    3.935 --    56 C    1.365    76 C    1.291    54 S    1.116
    56   6 C    3.957 --    55 C    1.365    57 C    1.357   131 H    0.959
                            54 S    0.110
    57   6 C    3.924 --    56 C    1.357    53 C    1.307    58 O    1.092
    58   8 O    2.245 --    57 C    1.092    59 C    0.914
    59   6 C    3.923 --    50 C    0.968    60 C    0.962    68 C    0.953
                            58 O    0.914
    60   6 C    3.981 --    61 C    1.412    67 C    1.408    59 C    0.962
                            63 C    0.106
    61   6 C    3.990 --    62 C    1.447    60 C    1.412   132 H    0.968
                            66 C    0.109
    62   6 C    3.989 --    61 C    1.447    63 C    1.411   133 H    0.968
                            67 C    0.108
    63   6 C    3.987 --    62 C    1.411    66 C    1.408    64 C    1.014
                            60 C    0.106
    64   6 C    3.997 --    63 C    1.014    65 C    1.000   135 H    0.975
                           134 H    0.972
    65   6 C    3.994 --    64 C    1.000   138 H    0.988   136 H    0.988
                           137 H    0.985
    66   6 C    3.990 --    67 C    1.450    63 C    1.408   139 H    0.968
                            61 C    0.109
    67   6 C    3.990 --    66 C    1.450    60 C    1.408   140 H    0.966
                            62 C    0.108
    68   6 C    3.979 --    75 C    1.413    69 C    1.409    59 C    0.953
                            71 C    0.106
    69   6 C    3.990 --    70 C    1.452    68 C    1.409   141 H    0.968
                            74 C    0.109
    70   6 C    3.989 --    69 C    1.452    71 C    1.406   142 H    0.968
                            75 C    0.108
    71   6 C    3.987 --    74 C    1.411    70 C    1.406    72 C    1.014
                            68 C    0.106
    72   6 C    3.996 --    71 C    1.014    73 C    1.000   143 H    0.973
                           144 H    0.973
    73   6 C    3.995 --    72 C    1.000   145 H    0.988   146 H    0.988
                           147 H    0.985
    74   6 C    3.990 --    75 C    1.445    71 C    1.411   148 H    0.968
                            69 C    0.109
    75   6 C    3.990 --    74 C    1.445    68 C    1.413   149 H    0.966
                            70 C    0.108
    76   6 C    3.946 --    77 C    1.501    55 C    1.291   150 H    0.942
    77   6 C    3.954 --    76 C    1.501    86 C    1.136    78 C    1.061
    78   6 C    3.912 --    79 O    1.681    77 C    1.061    80 C    1.033
    79   8 O    2.083 --    78 C    1.681    54 S    0.121
    80   6 C    3.969 --    81 C    1.379    85 C    1.302    78 C    1.033
    81   6 C    3.976 --    82 C    1.438    80 C    1.379   151 H    0.961
    82   6 C    3.952 --    81 C    1.438    83 C    1.322    98 C    0.994
    83   6 C    3.962 --    84 C    1.446    82 C    1.322    92 C    0.995
    84   6 C    3.976 --    83 C    1.446    85 C    1.366   152 H    0.959
    85   6 C    3.974 --    84 C    1.366    80 C    1.302    86 C    1.090
    86   6 C    3.964 --    87 C    1.470    77 C    1.136    85 C    1.090
    87   6 C    3.945 --    86 C    1.470    90 C    1.102    88 C    1.102
    88   6 C    3.940 --    89 N    2.743    87 C    1.102
    89   7 N    2.951 --    88 C    2.743
    90   6 C    3.940 --    91 N    2.749    87 C    1.102
    91   7 N    2.956 --    90 C    2.749
    92   6 C    3.983 --    83 C    0.995    98 C    0.974   153 H    0.959
                            93 C    0.950
    93   6 C    3.988 --    94 C    1.004    97 C    0.989   154 H    0.970
                            92 C    0.950
    94   6 C    3.981 --    95 C    1.923    93 C    1.004   155 H    0.970
    95   6 C    3.981 --    94 C    1.923    96 C    1.004   156 H    0.970
    96   6 C    3.987 --    95 C    1.004    97 C    0.989   157 H    0.970
                            98 C    0.949
    97   6 C    3.993 --    93 C    0.989    96 C    0.989   158 H    0.978
                           159 H    0.974
    98   6 C    3.981 --    82 C    0.994    92 C    0.974   160 H    0.959
                            96 C    0.949
    99   1 H    0.994 --     1 C    0.942
   100   1 H    0.995 --     6 C    0.963
   101   1 H    0.996 --     9 C    0.959
   102   1 H    0.995 --    17 C    0.959
   103   1 H    0.998 --    18 C    0.970
   104   1 H    0.998 --    19 C    0.970
   105   1 H    0.998 --    20 C    0.970
   106   1 H    0.998 --    21 C    0.970
   107   1 H    0.998 --    22 C    0.978
   108   1 H    0.999 --    22 C    0.974
   109   1 H    0.994 --    23 C    0.959
   110   1 H    0.993 --    25 C    0.959
   111   1 H    0.998 --    30 C    0.965
   112   1 H    0.997 --    31 C    0.968
   113   1 H    0.997 --    33 C    0.970
   114   1 H    0.998 --    33 C    0.976
   115   1 H    0.998 --    34 C    0.983
   116   1 H    0.997 --    34 C    0.985
   117   1 H    0.999 --    34 C    0.988
   118   1 H    0.998 --    35 C    0.968
   119   1 H    0.999 --    36 C    0.969
   120   1 H    0.998 --    38 C    0.968
   121   1 H    0.998 --    39 C    0.968
   122   1 H    0.998 --    41 C    0.973
   123   1 H    0.998 --    41 C    0.973
   124   1 H    0.998 --    42 C    0.988
   125   1 H    0.998 --    42 C    0.988
   126   1 H    0.997 --    42 C    0.985
   127   1 H    0.998 --    43 C    0.968
   128   1 H    0.999 --    44 C    0.966
   129   1 H    0.995 --    49 C    0.956
   130   1 H    0.995 --    52 C    0.957
   131   1 H    0.993 --    56 C    0.959
   132   1 H    0.998 --    61 C    0.968
   133   1 H    0.998 --    62 C    0.968
   134   1 H    0.998 --    64 C    0.972
   135   1 H    0.998 --    64 C    0.975
   136   1 H    0.998 --    65 C    0.988
   137   1 H    0.997 --    65 C    0.985
   138   1 H    0.998 --    65 C    0.988
   139   1 H    0.998 --    66 C    0.968
   140   1 H    0.998 --    67 C    0.966
   141   1 H    0.998 --    69 C    0.968
   142   1 H    0.998 --    70 C    0.968
   143   1 H    0.998 --    72 C    0.973
   144   1 H    0.998 --    72 C    0.973
   145   1 H    0.999 --    73 C    0.988
   146   1 H    0.998 --    73 C    0.988
   147   1 H    0.997 --    73 C    0.985
   148   1 H    0.998 --    74 C    0.968
   149   1 H    0.999 --    75 C    0.966
   150   1 H    0.994 --    76 C    0.942
   151   1 H    0.995 --    81 C    0.961
   152   1 H    0.996 --    84 C    0.959
   153   1 H    0.995 --    92 C    0.959
   154   1 H    0.998 --    93 C    0.970
   155   1 H    0.998 --    94 C    0.970
   156   1 H    0.998 --    95 C    0.970
   157   1 H    0.998 --    96 C    0.970
   158   1 H    0.998 --    97 C    0.978
   159   1 H    0.999 --    97 C    0.974
   160   1 H    0.994 --    98 C    0.959
 ---------------------------------------------------------------------------

Topologies differ in bond orders
Writing corrected topology to xtbtopo.mol

molecular dipole:
                 x           y           z       tot (Debye)
 q only:        0.262      -0.075      -0.109
   full:        0.138       0.100      -0.081       0.479
molecular quadrupole (traceless):
                xx          xy          yy          xz          yz          zz
 q only:      -86.823     -55.341      85.084     129.782      83.686       1.739
  q+dip:      -86.972     -55.148      88.760     139.308      77.709      -1.788
   full:      -88.467     -60.119      87.933     140.326      78.936       0.534


           -------------------------------------------------
          | TOTAL ENERGY             -254.370409583948 Eh   |
          | GRADIENT NORM               0.026587494777 Eh/α |
          | HOMO-LUMO GAP               0.989513971363 eV   |
           -------------------------------------------------

------------------------------------------------------------------------
 * finished run on 2022/02/02 at 12:52:14.592     
------------------------------------------------------------------------
 total:
 * wall-time:     0 d,  0 h,  0 min,  0.485 sec
 *  cpu-time:     0 d,  0 h,  0 min,  3.776 sec
 * ratio c/w:     7.779 speedup
 SCF:
 * wall-time:     0 d,  0 h,  0 min,  0.405 sec
 *  cpu-time:     0 d,  0 h,  0 min,  3.224 sec
 * ratio c/w:     7.962 speedup

