      -----------------------------------------------------------      
     |                   =====================                   |     
     |                           x T B                           |     
     |                   =====================                   |     
     |                         S. Grimme                         |     
     |          Mulliken Center for Theoretical Chemistry        |     
     |                    University of Bonn                     |     
      -----------------------------------------------------------      

   * xtb version 6.4.1 (unknown) compiled by 'oda6@login1.crc.pitt.edu' on 2021-06-25

   xtb is free software: you can redistribute it and/or modify it under
   the terms of the GNU Lesser General Public License as published by
   the Free Software Foundation, either version 3 of the License, or
   (at your option) any later version.
   
   xtb is distributed in the hope that it will be useful,
   but WITHOUT ANY WARRANTY; without even the implied warranty of
   MERCHANTABILITY or FITNESS FOR A PARTICULAR PURPOSE.  See the
   GNU Lesser General Public License for more details.
   
   Cite this work as:
   * C. Bannwarth, E. Caldeweyher, S. Ehlert, A. Hansen, P. Pracht,
     J. Seibert, S. Spicher, S. Grimme, WIREs Comput. Mol. Sci., 2020, 11,
     e01493. DOI: 10.1002/wcms.1493
   
   for GFN2-xTB:
   * C. Bannwarth, S. Ehlert and S. Grimme., J. Chem. Theory Comput., 2019,
     15, 1652-1671. DOI: 10.1021/acs.jctc.8b01176
   for GFN1-xTB:
   * S. Grimme, C. Bannwarth, P. Shushkov, J. Chem. Theory Comput., 2017,
     13, 1989-2009. DOI: 10.1021/acs.jctc.7b00118
   for GFN0-xTB:
   * P. Pracht, E. Caldeweyher, S. Ehlert, S. Grimme, ChemRxiv, 2019, preprint.
     DOI: 10.26434/chemrxiv.8326202.v1
   for GFN-FF:
   * S. Spicher and S. Grimme, Angew. Chem. Int. Ed., 2020, 59, 15665-15673.
     DOI: 10.1002/anie.202004239
   
   for DFT-D4:
   * E. Caldeweyher, C. Bannwarth and S. Grimme, J. Chem. Phys., 2017,
     147, 034112. DOI: 10.1063/1.4993215
   * E. Caldeweyher, S. Ehlert, A. Hansen, H. Neugebauer, S. Spicher,
     C. Bannwarth and S. Grimme, J. Chem. Phys., 2019, 150, 154122.
     DOI: 10.1063/1.5090222
   * E. Caldeweyher, J.-M. Mewes, S. Ehlert and S. Grimme, Phys. Chem. Chem. Phys.
     2020, 22, 8499-8512. DOI: 10.1039/D0CP00502A
   
   for sTDA-xTB:
   * S. Grimme and C. Bannwarth, J. Chem. Phys., 2016, 145, 054103.
     DOI: 10.1063/1.4959605
   
   in the mass-spec context:
   * V. Asgeirsson, C. Bauer and S. Grimme, Chem. Sci., 2017, 8, 4879.
     DOI: 10.1039/c7sc00601b
   * J. Koopman and S. Grimme, ACS Omega 2019, 4, 12, 15120-15133.
     DOI: 10.1021/acsomega.9b02011
   
   for metadynamics refer to:
   * S. Grimme, J. Chem. Theory Comput., 2019, 155, 2847-2862
     DOI: 10.1021/acs.jctc.9b00143
   
   for SPH calculations refer to:
   * S. Spicher and S. Grimme, J. Chem. Theory Comput., 2021, 17, 1701-1714
     DOI: 10.1021/acs.jctc.0c01306
   
   with help from (in alphabetical order)
   P. Atkinson, C. Bannwarth, F. Bohle, G. Brandenburg, E. Caldeweyher
   M. Checinski, S. Dohm, S. Ehlert, S. Ehrlich, I. Gerasimov, J. Koopman
   C. Lavigne, S. Lehtola, F. März, M. Müller, F. Musil, H. Neugebauer
   J. Pisarek, C. Plett, P. Pracht, J. Seibert, P. Shushkov, S. Spicher
   M. Stahn, M. Steiner, T. Strunk, J. Stückrath, T. Rose, and J. Unsleber
   
 * started run on 2022/02/02 at 14:15:29.376     

           -------------------------------------------------
          |                Calculation Setup                |
           -------------------------------------------------

          program call               : /ihome/ghutchison/oda6/xtb/xtb-641/bin/xtb ../../GFN2_output/39_126_23.mol --sp --alpb water
          hostname                   : smp-n98
          coordinate file            : ../../GFN2_output/39_126_23.mol
          omp threads                :                     8
          number of atoms            :                    95
          number of electrons        :                   332
          charge                     :                     0
          spin                       :                   0.0
          first test random number   :      0.99718996498787

   ID    Z sym.   atoms
    1    6 C      1-3, 5-13, 15, 17-26, 28-31, 35-37, 39-42, 44, 45, 47-50,
                  52, 53, 55-57, 59, 61, 63-67, 69
    2    8 O      4, 58
    3    7 N      14, 16, 32, 34, 38, 43, 68, 70
    4   16 S      27, 33, 51, 60
    5   34 Se     46, 54
    6   35 Br     62
    7    1 H      71-95

           -------------------------------------------------
          |                 G F N 2 - x T B                 |
           -------------------------------------------------

        Reference                      10.1021/acs.jctc.8b01176
      * Hamiltonian:
        H0-scaling (s, p, d)           1.850000    2.230000    2.230000
        zeta-weighting                 0.500000
      * Dispersion:
        s8                             2.700000
        a1                             0.520000
        a2                             5.000000
        s9                             5.000000
      * Repulsion:
        kExp                           1.500000    1.000000
        rExp                           1.000000
      * Coulomb:
        alpha                          2.000000
        third order                    shell-resolved
        anisotropic                    true
        a3                             3.000000
        a5                             4.000000
        cn-shift                       1.200000
        cn-exp                         4.000000
        max-rad                        5.000000

      * Solvation model:               ALPB
        Solvent                        water
        Parameter file                 internal GFN2-xTB/ALPB
        Dielectric constant                8.0200E+01
        Reference state                gsolv [1 M gas/solution]
        Free energy shift                  1.0808E-03 Eh       6.7819E-01 kcal/mol
        Temperature                        2.9815E+02 K
        Density                            1.0000E+00 kg/L
        Solvent mass                       1.8000E+01 g/mol
        Interaction kernel             P16
        Born radius scaling (c1)           1.4744E+00
        Born radii integrator          GBOBC
        Born offset                        0.0000E+00 a0       0.0000E+00 AA
        H-bond correction              true
        Ion screening                  false
        Surface tension                    1.0000E-05 Eh       1.5569E+01 dyn/cm
        Grid points                               230 per atom

          ...................................................
          :                      SETUP                      :
          :.................................................:
          :  # basis functions                 347          :
          :  # atomic orbitals                 340          :
          :  # shells                          172          :
          :  # electrons                       332          :
          :  max. iterations                   250          :
          :  Hamiltonian                  GFN2-xTB          :
          :  restarted?                      false          :
          :  GBSA solvation                   true          :
          :  PC potential                    false          :
          :  electronic temp.          300.0000000     K    :
          :  accuracy                    1.0000000          :
          :  -> integral cutoff          0.2500000E+02      :
          :  -> integral neglect         0.1000000E-07      :
          :  -> SCF convergence          0.1000000E-05 Eh   :
          :  -> wf. convergence          0.1000000E-03 e    :
          :  Broyden damping             0.4000000          :
          ...................................................

 iter      E             dE          RMSdq      gap      omega  full diag
   1   -183.5484431 -0.183548E+03  0.479E+00    0.99       0.0  T
   2   -183.7428598 -0.194417E+00  0.301E+00    0.86       1.0  T
   3   -183.7125668  0.302930E-01  0.161E+00    0.88       1.0  T
   4   -183.8275256 -0.114959E+00  0.547E-01    0.90       1.0  T
   5   -183.8409476 -0.134220E-01  0.227E-01    0.79       1.0  T
   6   -183.8423481 -0.140042E-02  0.120E-01    0.83       1.0  T
   7   -183.8426504 -0.302328E-03  0.638E-02    0.82       1.0  T
   8   -183.8426994 -0.490050E-04  0.442E-02    0.82       1.0  T
   9   -183.8427235 -0.240597E-04  0.308E-02    0.81       1.0  T
  10   -183.8427403 -0.168798E-04  0.179E-02    0.81       1.0  T
  11   -183.8427484 -0.805702E-05  0.102E-02    0.81       1.0  T
  12   -183.8427501 -0.174041E-05  0.672E-03    0.81       1.5  T
  13   -183.8427510 -0.836435E-06  0.443E-03    0.81       2.3  T
  14   -183.8427513 -0.283932E-06  0.277E-03    0.81       3.7  T
  15   -183.8427514 -0.192791E-06  0.133E-03    0.81       7.7  T
  16   -183.8427515 -0.297619E-07  0.728E-04    0.81      14.1  T
  17   -183.8427515 -0.636862E-08  0.326E-04    0.81      31.5  T

   *** convergence criteria satisfied after 17 iterations ***

         #    Occupation            Energy/Eh            Energy/eV
      -------------------------------------------------------------
         1        2.0000           -0.8679506             -23.6181
       ...           ...                  ...                  ...
       160        2.0000           -0.4066491             -11.0655
       161        2.0000           -0.4012527             -10.9186
       162        2.0000           -0.3957924             -10.7701
       163        2.0000           -0.3907265             -10.6322
       164        2.0000           -0.3853361             -10.4855
       165        2.0000           -0.3776972             -10.2777
       166        2.0000           -0.3731745             -10.1546 (HOMO)
       167        0.0000           -0.3435375              -9.3481 (LUMO)
       168                         -0.3341937              -9.0939
       169                         -0.3296725              -8.9708
       170                         -0.3198604              -8.7038
       171                         -0.3032495              -8.2518
       ...                                ...                  ...
       340                          1.1505062              31.3069
      -------------------------------------------------------------
                  HL-Gap            0.0296370 Eh            0.8065 eV
             Fermi-level           -0.3583520 Eh           -9.7513 eV

 SCC (total)                   0 d,  0 h,  0 min,  0.286 sec
 SCC setup                      ...        0 min,  0.011 sec (  3.706%)
 Dispersion                     ...        0 min,  0.004 sec (  1.376%)
 classical contributions        ...        0 min,  0.000 sec (  0.101%)
 integral evaluation            ...        0 min,  0.013 sec (  4.561%)
 iterations                     ...        0 min,  0.228 sec ( 79.723%)
 molecular gradient             ...        0 min,  0.029 sec ( 10.184%)
 printout                       ...        0 min,  0.001 sec (  0.317%)

         :::::::::::::::::::::::::::::::::::::::::::::::::::::
         ::                     SUMMARY                     ::
         :::::::::::::::::::::::::::::::::::::::::::::::::::::
         :: total energy            -181.084729514741 Eh    ::
         :: total w/o Gsasa/hb      -181.065334289054 Eh    ::
         :: gradient norm              0.035171096153 Eh/a0 ::
         :: HOMO-LUMO gap              0.806463027871 eV    ::
         ::.................................................::
         :: SCC energy              -183.842751479182 Eh    ::
         :: -> isotropic ES            0.152122472962 Eh    ::
         :: -> anisotropic ES         -0.002012229973 Eh    ::
         :: -> anisotropic XC          0.116143966168 Eh    ::
         :: -> dispersion             -0.162156161545 Eh    ::
         :: -> Gsolv                  -0.057630193130 Eh    ::
         ::    -> Gelec               -0.038234967444 Eh    ::
         ::    -> Gsasa               -0.016153721021 Eh    ::
         ::    -> Ghb                 -0.004322264363 Eh    ::
         ::    -> Gshift               0.001080759698 Eh    ::
         :: repulsion energy           2.759935121882 Eh    ::
         :: add. restraining           0.000000000000 Eh    ::
         :: total charge               0.000000000001 e     ::
         :::::::::::::::::::::::::::::::::::::::::::::::::::::

           -------------------------------------------------
          |                Property Printout                |
           -------------------------------------------------

    * Orbital Energies and Occupations

         #    Occupation            Energy/Eh            Energy/eV
      -------------------------------------------------------------
         1        2.0000           -0.8679506             -23.6181
       ...           ...                  ...                  ...
       154        2.0000           -0.4206908             -11.4476
       155        2.0000           -0.4202711             -11.4362
       156        2.0000           -0.4199574             -11.4276
       157        2.0000           -0.4189924             -11.4014
       158        2.0000           -0.4115984             -11.2002
       159        2.0000           -0.4105209             -11.1708
       160        2.0000           -0.4066491             -11.0655
       161        2.0000           -0.4012527             -10.9186
       162        2.0000           -0.3957924             -10.7701
       163        2.0000           -0.3907265             -10.6322
       164        2.0000           -0.3853361             -10.4855
       165        2.0000           -0.3776972             -10.2777
       166        2.0000           -0.3731745             -10.1546 (HOMO)
       167        0.0000           -0.3435375              -9.3481 (LUMO)
       168                         -0.3341937              -9.0939
       169                         -0.3296725              -8.9708
       170                         -0.3198604              -8.7038
       171                         -0.3032495              -8.2518
       172                         -0.2805529              -7.6342
       173                         -0.2705459              -7.3619
       174                         -0.2587093              -7.0398
       175                         -0.2583071              -7.0289
       176                         -0.2532485              -6.8912
       177                         -0.2527482              -6.8776
       ...                                ...                  ...
       340                          1.1505062              31.3069
      -------------------------------------------------------------
                  HL-Gap            0.0296370 Eh            0.8065 eV
             Fermi-level           -0.3583520 Eh           -9.7513 eV

     #   Z          covCN         q      C6AA      α(0)
     1   6 C        2.916    -0.009    28.244     8.715
     2   6 C        3.006    -0.040    28.980     8.831
     3   6 C        2.882     0.224    23.296     7.913
     4   8 O        1.076    -0.359    20.767     6.115
     5   6 C        3.060    -0.019    28.415     8.742
     6   6 C        2.904    -0.024    28.605     8.770
     7   6 C        3.261     0.016    26.486     8.314
     8   6 C        3.257     0.015    26.562     8.333
     9   6 C        2.904    -0.032    28.798     8.799
    10   6 C        3.052     0.003    27.900     8.663
    11   6 C        3.021     0.037    27.141     8.546
    12   6 C        2.947     0.000    28.020     8.682
    13   6 C        1.947     0.132    27.842     8.521
    14   7 N        0.911    -0.292    27.529     7.588
    15   6 C        1.948     0.135    27.786     8.513
    16   7 N        0.911    -0.285    27.350     7.564
    17   6 C        4.163    -0.028    20.984     6.506
    18   6 C        4.011    -0.016    20.786     6.477
    19   6 C        2.987    -0.043    29.050     8.841
    20   6 C        2.987    -0.043    29.062     8.843
    21   6 C        4.012    -0.017    20.795     6.478
    22   6 C        3.926    -0.066    21.694     6.619
    23   6 C        4.162    -0.028    20.982     6.506
    24   6 C        2.970     0.007    27.852     8.657
    25   6 C        3.061    -0.042    28.992     8.830
    26   6 C        3.163     0.026    27.094     8.508
    27  16 S        2.168    -0.068   143.860    20.187
    28   6 C        3.088     0.012    27.651     8.620
    29   6 C        3.092    -0.038    28.841     8.802
    30   6 C        3.343     0.070    23.966     7.735
    31   6 C        3.344     0.070    23.951     7.729
    32   7 N        1.855    -0.299    28.607     7.927
    33  16 S        2.690     0.301   129.381    19.144
    34   7 N        1.855    -0.300    28.631     7.931
    35   6 C        3.091    -0.038    28.832     8.801
    36   6 C        3.092     0.012    27.632     8.616
    37   6 C        3.248     0.034    26.258     8.298
    38   7 N        2.803    -0.002    21.293     6.853
    39   6 C        3.745    -0.022    21.030     6.542
    40   6 C        3.751    -0.134    23.143     6.861
    41   6 C        3.057     0.037    27.127     8.541
    42   6 C        3.059     0.034    27.176     8.549
    43   7 N        2.803    -0.003    21.313     6.857
    44   6 C        3.261     0.034    26.097     8.253
    45   6 C        3.087    -0.021    28.429     8.740
    46  34 Se       2.448     0.031   234.691    26.694
    47   6 C        3.746    -0.020    20.995     6.536
    48   6 C        3.751    -0.131    23.088     6.852
    49   6 C        3.093    -0.007    28.071     8.684
    50   6 C        3.175     0.024    27.072     8.497
    51  16 S        2.173    -0.040   142.696    20.105
    52   6 C        3.040    -0.040    28.950     8.825
    53   6 C        2.974     0.001    28.000     8.680
    54  34 Se       2.280     0.056   233.868    26.647
    55   6 C        2.954    -0.009    28.242     8.716
    56   6 C        3.018    -0.046    29.128     8.853
    57   6 C        2.866     0.233    23.131     7.884
    58   8 O        0.856    -0.430    22.294     6.330
    59   6 C        3.079    -0.021    28.445     8.744
    60  16 S        2.391     0.099   137.093    19.707
    61   6 C        2.956     0.083    26.142     8.386
    62  35 Br       1.141    -0.113   188.147    22.116
    63   6 C        3.097    -0.051    29.132     8.846
    64   6 C        3.230    -0.002    27.243     8.476
    65   6 C        3.031     0.038    27.122     8.542
    66   6 C        2.947     0.007    27.863     8.657
    67   6 C        1.934     0.133    27.845     8.522
    68   7 N        0.911    -0.269    26.950     7.508
    69   6 C        1.940     0.134    27.812     8.517
    70   7 N        0.911    -0.271    27.006     7.516
    71   1 H        0.925     0.058     2.227     2.334
    72   1 H        0.926     0.077     2.009     2.216
    73   1 H        0.926     0.054     2.273     2.357
    74   1 H        0.925     0.060     2.199     2.319
    75   1 H        0.925     0.042     2.422     2.434
    76   1 H        0.926     0.028     2.617     2.530
    77   1 H        0.926     0.034     2.529     2.487
    78   1 H        0.925     0.048     2.349     2.397
    79   1 H        0.925     0.048     2.340     2.392
    80   1 H        0.925     0.050     2.321     2.383
    81   1 H        0.925     0.064     2.148     2.292
    82   1 H        0.926     0.059     2.212     2.326
    83   1 H        0.923     0.087     1.908     2.160
    84   1 H        0.925     0.102     1.771     2.081
    85   1 H        0.925     0.085     1.928     2.172
    86   1 H        0.925     0.066     2.131     2.283
    87   1 H        0.925     0.065     2.137     2.286
    88   1 H        0.925     0.101     1.772     2.082
    89   1 H        0.923     0.086     1.919     2.166
    90   1 H        0.925     0.064     2.152     2.294
    91   1 H        0.925     0.065     2.140     2.288
    92   1 H        0.925     0.084     1.935     2.175
    93   1 H        0.926     0.092     1.856     2.131
    94   1 H        0.925     0.071     2.073     2.251
    95   1 H        0.926     0.086     1.915     2.164

 Mol. C6AA /au·bohr⁶  :     202021.129309
 Mol. C8AA /au·bohr⁸  :    6333902.757650
 Mol. α(0) /au        :        719.694915


Wiberg/Mayer (AO) data.
largest (>0.10) Wiberg bond orders for each atom

 ---------------------------------------------------------------------------
     #   Z sym  total        # sym  WBO       # sym  WBO       # sym  WBO
 ---------------------------------------------------------------------------
     1   6 C    3.940 --     2 C    1.473    24 C    1.321    71 H    0.939
     2   6 C    3.953 --     1 C    1.473    11 C    1.141     3 C    1.090
     3   6 C    3.907 --     4 O    1.632     2 C    1.090     5 C    1.042
     4   8 O    2.176 --     3 C    1.632    46 Se   0.274
     5   6 C    3.969 --     6 C    1.380    10 C    1.298     3 C    1.042
     6   6 C    3.975 --     7 C    1.437     5 C    1.380    72 H    0.961
     7   6 C    3.952 --     6 C    1.437     8 C    1.325    23 C    0.997
     8   6 C    3.961 --     9 C    1.442     7 C    1.325    17 C    0.999
     9   6 C    3.977 --     8 C    1.442    10 C    1.371    73 H    0.958
    10   6 C    3.973 --     9 C    1.371     5 C    1.298    11 C    1.089
    11   6 C    3.966 --    12 C    1.468     2 C    1.141    10 C    1.089
    12   6 C    3.944 --    11 C    1.468    13 C    1.103    15 C    1.100
    13   6 C    3.939 --    14 N    2.736    12 C    1.103
    14   7 N    2.949 --    13 C    2.736
    15   6 C    3.939 --    16 N    2.747    12 C    1.100
    16   7 N    2.955 --    15 C    2.747
    17   6 C    3.983 --     8 C    0.999    23 C    0.977    74 H    0.957
                            18 C    0.945
    18   6 C    3.988 --    19 C    1.010    22 C    0.985    75 H    0.972
                            17 C    0.945
    19   6 C    3.987 --    20 C    1.924    18 C    1.010    76 H    0.972
    20   6 C    3.987 --    19 C    1.924    21 C    1.010    77 H    0.971
    21   6 C    3.987 --    20 C    1.010    22 C    0.985    78 H    0.971
                            23 C    0.946
    22   6 C    3.991 --    21 C    0.985    18 C    0.985    80 H    0.977
                            79 H    0.976
    23   6 C    3.982 --     7 C    0.997    17 C    0.977    81 H    0.956
                            21 C    0.946
    24   6 C    3.943 --    25 C    1.362     1 C    1.321    46 Se   1.083
    25   6 C    3.958 --    26 C    1.401    24 C    1.362    82 H    0.959
                            46 Se   0.101
    26   6 C    3.925 --    25 C    1.401    45 C    1.281    27 S    1.074
    27  16 S    2.493 --    28 C    1.109    26 C    1.074
    28   6 C    3.913 --    29 C    1.293    44 C    1.287    27 S    1.109
    29   6 C    3.949 --    28 C    1.293    42 C    1.248    30 C    1.171
    30   6 C    3.969 --    34 N    1.422    29 C    1.171    31 C    1.168
                            33 S    0.106
    31   6 C    3.970 --    32 N    1.423    35 C    1.171    30 C    1.168
                            33 S    0.106
    32   7 N    3.057 --    31 C    1.423    33 S    1.381    34 N    0.145
    33  16 S    3.095 --    32 N    1.381    34 N    1.380    31 C    0.106
                            30 C    0.106
    34   7 N    3.058 --    30 C    1.422    33 S    1.380    32 N    0.145
    35   6 C    3.951 --    36 C    1.290    41 C    1.251    31 C    1.171
    36   6 C    3.915 --    35 C    1.290    37 C    1.279    51 S    1.117
    37   6 C    3.937 --    36 C    1.279    49 C    1.267    38 N    1.168
    38   7 N    3.584 --    41 C    1.194    37 C    1.168    39 C    0.973
    39   6 C    3.942 --    40 C    1.004    38 N    0.973    84 H    0.952
                            83 H    0.946
    40   6 C    3.979 --    39 C    1.004    85 H    0.978    87 H    0.977
                            86 H    0.964
    41   6 C    3.928 --    35 C    1.251    42 C    1.219    38 N    1.194
    42   6 C    3.929 --    29 C    1.248    41 C    1.219    43 N    1.195
    43   7 N    3.587 --    42 C    1.195    44 C    1.171    47 C    0.974
    44   6 C    3.934 --    28 C    1.287    45 C    1.259    43 N    1.171
    45   6 C    3.944 --    26 C    1.281    44 C    1.259    46 Se   1.164
    46  34 Se   2.973 --    45 C    1.164    24 C    1.083     4 O    0.274
                            25 C    0.101
    47   6 C    3.943 --    48 C    1.004    43 N    0.974    88 H    0.951
                            89 H    0.943
    48   6 C    3.980 --    47 C    1.004    92 H    0.978    91 H    0.977
                            90 H    0.964
    49   6 C    3.937 --    50 C    1.276    37 C    1.267    54 Se   1.172
    50   6 C    3.929 --    52 C    1.385    49 C    1.276    51 S    1.084
    51  16 S    2.516 --    36 C    1.117    50 C    1.084
    52   6 C    3.951 --    53 C    1.394    50 C    1.385    93 H    0.937
    53   6 C    3.941 --    52 C    1.394    55 C    1.316    54 Se   1.058
    54  34 Se   2.689 --    49 C    1.172    53 C    1.058
    55   6 C    3.929 --    56 C    1.481    53 C    1.316    94 H    0.937
    56   6 C    3.945 --    55 C    1.481    65 C    1.143    57 C    1.041
    57   6 C    3.914 --    58 O    1.695    59 C    1.059    56 C    1.041
    58   8 O    2.008 --    57 C    1.695
    59   6 C    3.927 --    64 C    1.396    60 S    1.193    57 C    1.059
    60  16 S    2.689 --    59 C    1.193    61 C    1.178
    61   6 C    3.893 --    63 C    1.540    60 S    1.178    62 Br   1.032
    62  35 Br   1.178 --    61 C    1.032
    63   6 C    3.975 --    61 C    1.540    64 C    1.278    95 H    0.954
    64   6 C    3.971 --    59 C    1.396    63 C    1.278    65 C    1.087
    65   6 C    3.963 --    66 C    1.466    56 C    1.143    64 C    1.087
    66   6 C    3.953 --    65 C    1.466    67 C    1.105    69 C    1.098
    67   6 C    3.942 --    68 N    2.741    66 C    1.105
    68   7 N    2.951 --    67 C    2.741
    69   6 C    3.941 --    70 N    2.759    66 C    1.098
    70   7 N    2.960 --    69 C    2.759
    71   1 H    0.996 --     1 C    0.939
    72   1 H    0.994 --     6 C    0.961
    73   1 H    0.997 --     9 C    0.958
    74   1 H    0.994 --    17 C    0.957
    75   1 H    0.998 --    18 C    0.972
    76   1 H    0.999 --    19 C    0.972
    77   1 H    0.999 --    20 C    0.971
    78   1 H    0.997 --    21 C    0.971
    79   1 H    0.995 --    22 C    0.976
    80   1 H    0.997 --    22 C    0.977
    81   1 H    0.993 --    23 C    0.956
    82   1 H    0.996 --    25 C    0.959
    83   1 H    0.990 --    39 C    0.946
    84   1 H    0.988 --    39 C    0.952
    85   1 H    0.992 --    40 C    0.978
    86   1 H    0.996 --    40 C    0.964
    87   1 H    0.996 --    40 C    0.977
    88   1 H    0.988 --    47 C    0.951
    89   1 H    0.990 --    47 C    0.943
    90   1 H    0.996 --    48 C    0.964
    91   1 H    0.996 --    48 C    0.977
    92   1 H    0.992 --    48 C    0.978
    93   1 H    0.991 --    52 C    0.937
    94   1 H    0.993 --    55 C    0.937
    95   1 H    0.992 --    63 C    0.954
 ---------------------------------------------------------------------------

Topologies differ in bond orders
Writing corrected topology to xtbtopo.mol

molecular dipole:
                 x           y           z       tot (Debye)
 q only:        2.529       3.039      -3.157
   full:        2.015       2.519      -2.910      11.043
molecular quadrupole (traceless):
                xx          xy          yy          xz          yz          zz
 q only:      -48.454     -19.774      96.922    -155.098     -22.500     -48.468
  q+dip:      -53.451     -27.016      99.857    -159.408     -21.787     -46.407
   full:      -55.265     -34.389     106.665    -164.246     -15.366     -51.400


           -------------------------------------------------
          | TOTAL ENERGY             -181.084729514741 Eh   |
          | GRADIENT NORM               0.035171096153 Eh/α |
          | HOMO-LUMO GAP               0.806463027871 eV   |
           -------------------------------------------------

------------------------------------------------------------------------
 * finished run on 2022/02/02 at 14:15:29.718     
------------------------------------------------------------------------
 total:
 * wall-time:     0 d,  0 h,  0 min,  0.342 sec
 *  cpu-time:     0 d,  0 h,  0 min,  2.644 sec
 * ratio c/w:     7.738 speedup
 SCF:
 * wall-time:     0 d,  0 h,  0 min,  0.287 sec
 *  cpu-time:     0 d,  0 h,  0 min,  2.279 sec
 * ratio c/w:     7.928 speedup

