      -----------------------------------------------------------      
     |                   =====================                   |     
     |                           x T B                           |     
     |                   =====================                   |     
     |                         S. Grimme                         |     
     |          Mulliken Center for Theoretical Chemistry        |     
     |                    University of Bonn                     |     
      -----------------------------------------------------------      

   * xtb version 6.4.1 (unknown) compiled by 'oda6@login1.crc.pitt.edu' on 2021-06-25

   xtb is free software: you can redistribute it and/or modify it under
   the terms of the GNU Lesser General Public License as published by
   the Free Software Foundation, either version 3 of the License, or
   (at your option) any later version.
   
   xtb is distributed in the hope that it will be useful,
   but WITHOUT ANY WARRANTY; without even the implied warranty of
   MERCHANTABILITY or FITNESS FOR A PARTICULAR PURPOSE.  See the
   GNU Lesser General Public License for more details.
   
   Cite this work as:
   * C. Bannwarth, E. Caldeweyher, S. Ehlert, A. Hansen, P. Pracht,
     J. Seibert, S. Spicher, S. Grimme, WIREs Comput. Mol. Sci., 2020, 11,
     e01493. DOI: 10.1002/wcms.1493
   
   for GFN2-xTB:
   * C. Bannwarth, S. Ehlert and S. Grimme., J. Chem. Theory Comput., 2019,
     15, 1652-1671. DOI: 10.1021/acs.jctc.8b01176
   for GFN1-xTB:
   * S. Grimme, C. Bannwarth, P. Shushkov, J. Chem. Theory Comput., 2017,
     13, 1989-2009. DOI: 10.1021/acs.jctc.7b00118
   for GFN0-xTB:
   * P. Pracht, E. Caldeweyher, S. Ehlert, S. Grimme, ChemRxiv, 2019, preprint.
     DOI: 10.26434/chemrxiv.8326202.v1
   for GFN-FF:
   * S. Spicher and S. Grimme, Angew. Chem. Int. Ed., 2020, 59, 15665-15673.
     DOI: 10.1002/anie.202004239
   
   for DFT-D4:
   * E. Caldeweyher, C. Bannwarth and S. Grimme, J. Chem. Phys., 2017,
     147, 034112. DOI: 10.1063/1.4993215
   * E. Caldeweyher, S. Ehlert, A. Hansen, H. Neugebauer, S. Spicher,
     C. Bannwarth and S. Grimme, J. Chem. Phys., 2019, 150, 154122.
     DOI: 10.1063/1.5090222
   * E. Caldeweyher, J.-M. Mewes, S. Ehlert and S. Grimme, Phys. Chem. Chem. Phys.
     2020, 22, 8499-8512. DOI: 10.1039/D0CP00502A
   
   for sTDA-xTB:
   * S. Grimme and C. Bannwarth, J. Chem. Phys., 2016, 145, 054103.
     DOI: 10.1063/1.4959605
   
   in the mass-spec context:
   * V. Asgeirsson, C. Bauer and S. Grimme, Chem. Sci., 2017, 8, 4879.
     DOI: 10.1039/c7sc00601b
   * J. Koopman and S. Grimme, ACS Omega 2019, 4, 12, 15120-15133.
     DOI: 10.1021/acsomega.9b02011
   
   for metadynamics refer to:
   * S. Grimme, J. Chem. Theory Comput., 2019, 155, 2847-2862
     DOI: 10.1021/acs.jctc.9b00143
   
   for SPH calculations refer to:
   * S. Spicher and S. Grimme, J. Chem. Theory Comput., 2021, 17, 1701-1714
     DOI: 10.1021/acs.jctc.0c01306
   
   with help from (in alphabetical order)
   P. Atkinson, C. Bannwarth, F. Bohle, G. Brandenburg, E. Caldeweyher
   M. Checinski, S. Dohm, S. Ehlert, S. Ehrlich, I. Gerasimov, J. Koopman
   C. Lavigne, S. Lehtola, F. März, M. Müller, F. Musil, H. Neugebauer
   J. Pisarek, C. Plett, P. Pracht, J. Seibert, P. Shushkov, S. Spicher
   M. Stahn, M. Steiner, T. Strunk, J. Stückrath, T. Rose, and J. Unsleber
   
 * started run on 2022/02/01 at 22:04:24.627     

           -------------------------------------------------
          |                Calculation Setup                |
           -------------------------------------------------

          program call               : /ihome/ghutchison/oda6/xtb/xtb-641/bin/xtb ../../GFN2_output/39_100_2.mol --sp --alpb water
          hostname                   : smp-n98
          coordinate file            : ../../GFN2_output/39_100_2.mol
          omp threads                :                     8
          number of atoms            :                   127
          number of electrons        :                   406
          charge                     :                     0
          spin                       :                   0.0
          first test random number   :      0.20744680829019

   ID    Z sym.   atoms
    1    6 C      1-3, 5-13, 15, 17-34, 36-39, 43, 44, 46-56, 58, 59, 61, 62,
                  64, 65, 67-73, 75-77, 79-82, 84
    2    8 O      4, 74
    3    7 N      14, 16, 40, 42, 60, 63, 83, 85
    4   16 S      35, 41, 45, 57, 66, 78
    5    1 H      86-127

           -------------------------------------------------
          |                 G F N 2 - x T B                 |
           -------------------------------------------------

        Reference                      10.1021/acs.jctc.8b01176
      * Hamiltonian:
        H0-scaling (s, p, d)           1.850000    2.230000    2.230000
        zeta-weighting                 0.500000
      * Dispersion:
        s8                             2.700000
        a1                             0.520000
        a2                             5.000000
        s9                             5.000000
      * Repulsion:
        kExp                           1.500000    1.000000
        rExp                           1.000000
      * Coulomb:
        alpha                          2.000000
        third order                    shell-resolved
        anisotropic                    true
        a3                             3.000000
        a5                             4.000000
        cn-shift                       1.200000
        cn-exp                         4.000000
        max-rad                        5.000000

      * Solvation model:               ALPB
        Solvent                        water
        Parameter file                 internal GFN2-xTB/ALPB
        Dielectric constant                8.0200E+01
        Reference state                gsolv [1 M gas/solution]
        Free energy shift                  1.0808E-03 Eh       6.7819E-01 kcal/mol
        Temperature                        2.9815E+02 K
        Density                            1.0000E+00 kg/L
        Solvent mass                       1.8000E+01 g/mol
        Interaction kernel             P16
        Born radius scaling (c1)           1.4744E+00
        Born radii integrator          GBOBC
        Born offset                        0.0000E+00 a0       0.0000E+00 AA
        H-bond correction              true
        Ion screening                  false
        Surface tension                    1.0000E-05 Eh       1.5569E+01 dyn/cm
        Grid points                               230 per atom

          ...................................................
          :                      SETUP                      :
          :.................................................:
          :  # basis functions                 418          :
          :  # atomic orbitals                 412          :
          :  # shells                          218          :
          :  # electrons                       406          :
          :  max. iterations                   250          :
          :  Hamiltonian                  GFN2-xTB          :
          :  restarted?                      false          :
          :  GBSA solvation                   true          :
          :  PC potential                    false          :
          :  electronic temp.          300.0000000     K    :
          :  accuracy                    1.0000000          :
          :  -> integral cutoff          0.2500000E+02      :
          :  -> integral neglect         0.1000000E-07      :
          :  -> SCF convergence          0.1000000E-05 Eh   :
          :  -> wf. convergence          0.1000000E-03 e    :
          :  Broyden damping             0.4000000          :
          ...................................................

 iter      E             dE          RMSdq      gap      omega  full diag
   1   -223.4043734 -0.223404E+03  0.429E+00    1.06       0.0  T
   2   -223.6052882 -0.200915E+00  0.258E+00    0.99       1.0  T
   3   -223.5560763  0.492119E-01  0.138E+00    1.01       1.0  T
   4   -223.6698725 -0.113796E+00  0.463E-01    1.02       1.0  T
   5   -223.6862037 -0.163311E-01  0.157E-01    0.93       1.0  T
   6   -223.6874624 -0.125873E-02  0.786E-02    0.97       1.0  T
   7   -223.6877279 -0.265464E-03  0.309E-02    0.96       1.0  T
   8   -223.6877479 -0.200004E-04  0.146E-02    0.96       1.0  T
   9   -223.6877556 -0.773361E-05  0.803E-03    0.96       1.1  T
  10   -223.6877569 -0.127204E-05  0.428E-03    0.96       2.1  T
  11   -223.6877576 -0.698802E-06  0.231E-03    0.96       3.8  T
  12   -223.6877577 -0.140997E-06  0.114E-03    0.96       7.8  T
  13   -223.6877578 -0.601835E-07  0.448E-04    0.96      19.8  T
  14   -223.6877578 -0.873695E-08  0.225E-04    0.96      39.4  T

   *** convergence criteria satisfied after 14 iterations ***

         #    Occupation            Energy/Eh            Energy/eV
      -------------------------------------------------------------
         1        2.0000           -0.7621155             -20.7382
       ...           ...                  ...                  ...
       197        2.0000           -0.4002957             -10.8926
       198        2.0000           -0.3984997             -10.8437
       199        2.0000           -0.3915990             -10.6560
       200        2.0000           -0.3886225             -10.5750
       201        2.0000           -0.3853214             -10.4851
       202        2.0000           -0.3772744             -10.2662
       203        2.0000           -0.3715563             -10.1106 (HOMO)
       204                         -0.3362044              -9.1486 (LUMO)
       205                         -0.3310885              -9.0094
       206                         -0.3208312              -8.7303
       207                         -0.3163209              -8.6075
       208                         -0.3017009              -8.2097
       ...                                ...                  ...
       412                          1.1520824              31.3498
      -------------------------------------------------------------
                  HL-Gap            0.0353519 Eh            0.9620 eV
             Fermi-level           -0.3538814 Eh           -9.6296 eV

 SCC (total)                   0 d,  0 h,  0 min,  0.334 sec
 SCC setup                      ...        0 min,  0.003 sec (  0.938%)
 Dispersion                     ...        0 min,  0.005 sec (  1.451%)
 classical contributions        ...        0 min,  0.000 sec (  0.085%)
 integral evaluation            ...        0 min,  0.019 sec (  5.715%)
 iterations                     ...        0 min,  0.255 sec ( 76.338%)
 molecular gradient             ...        0 min,  0.050 sec ( 15.009%)
 printout                       ...        0 min,  0.001 sec (  0.434%)

         :::::::::::::::::::::::::::::::::::::::::::::::::::::
         ::                     SUMMARY                     ::
         :::::::::::::::::::::::::::::::::::::::::::::::::::::
         :: total energy            -220.108099706989 Eh    ::
         :: total w/o Gsasa/hb      -220.090562544555 Eh    ::
         :: gradient norm              0.034531821931 Eh/a0 ::
         :: HOMO-LUMO gap              0.961975193678 eV    ::
         ::.................................................::
         :: SCC energy              -223.687757769929 Eh    ::
         :: -> isotropic ES            0.152750176922 Eh    ::
         :: -> anisotropic ES          0.010564720979 Eh    ::
         :: -> anisotropic XC          0.144987780238 Eh    ::
         :: -> dispersion             -0.213938422934 Eh    ::
         :: -> Gsolv                  -0.053462303804 Eh    ::
         ::    -> Gelec               -0.035925141371 Eh    ::
         ::    -> Gsasa               -0.013166910797 Eh    ::
         ::    -> Ghb                 -0.005451011335 Eh    ::
         ::    -> Gshift               0.001080759698 Eh    ::
         :: repulsion energy           3.578618194965 Eh    ::
         :: add. restraining           0.000000000000 Eh    ::
         :: total charge              -0.000000000036 e     ::
         :::::::::::::::::::::::::::::::::::::::::::::::::::::

           -------------------------------------------------
          |                Property Printout                |
           -------------------------------------------------

    * Orbital Energies and Occupations

         #    Occupation            Energy/Eh            Energy/eV
      -------------------------------------------------------------
         1        2.0000           -0.7621155             -20.7382
       ...           ...                  ...                  ...
       191        2.0000           -0.4133190             -11.2470
       192        2.0000           -0.4122031             -11.2166
       193        2.0000           -0.4082765             -11.1098
       194        2.0000           -0.4063699             -11.0579
       195        2.0000           -0.4048887             -11.0176
       196        2.0000           -0.4032866             -10.9740
       197        2.0000           -0.4002957             -10.8926
       198        2.0000           -0.3984997             -10.8437
       199        2.0000           -0.3915990             -10.6560
       200        2.0000           -0.3886225             -10.5750
       201        2.0000           -0.3853214             -10.4851
       202        2.0000           -0.3772744             -10.2662
       203        2.0000           -0.3715563             -10.1106 (HOMO)
       204                         -0.3362044              -9.1486 (LUMO)
       205                         -0.3310885              -9.0094
       206                         -0.3208312              -8.7303
       207                         -0.3163209              -8.6075
       208                         -0.3017009              -8.2097
       209                         -0.2719175              -7.3993
       210                         -0.2619934              -7.1292
       211                         -0.2500133              -6.8032
       212                         -0.2498740              -6.7994
       213                         -0.2493367              -6.7848
       214                         -0.2478876              -6.7454
       ...                                ...                  ...
       412                          1.1520824              31.3498
      -------------------------------------------------------------
                  HL-Gap            0.0353519 Eh            0.9620 eV
             Fermi-level           -0.3538814 Eh           -9.6296 eV

     #   Z          covCN         q      C6AA      α(0)
     1   6 C        2.926    -0.010    28.260     8.718
     2   6 C        3.009    -0.039    28.948     8.826
     3   6 C        2.872     0.232    23.149     7.887
     4   8 O        0.856    -0.433    22.360     6.340
     5   6 C        3.059    -0.023    28.511     8.757
     6   6 C        2.904    -0.025    28.617     8.771
     7   6 C        3.258     0.015    26.549     8.329
     8   6 C        3.257     0.017    26.518     8.325
     9   6 C        2.904    -0.033    28.815     8.802
    10   6 C        3.051     0.006    27.828     8.652
    11   6 C        3.023     0.041    27.045     8.530
    12   6 C        2.948     0.001    28.008     8.680
    13   6 C        1.932     0.133    27.834     8.520
    14   7 N        0.911    -0.281    27.247     7.549
    15   6 C        1.937     0.133    27.833     8.520
    16   7 N        0.911    -0.296    27.629     7.602
    17   6 C        4.162    -0.025    20.933     6.498
    18   6 C        4.013    -0.016    20.788     6.477
    19   6 C        2.995    -0.044    29.076     8.845
    20   6 C        2.995    -0.044    29.085     8.847
    21   6 C        4.013    -0.016    20.784     6.476
    22   6 C        3.915    -0.062    21.627     6.610
    23   6 C        4.161    -0.025    20.931     6.498
    24   6 C        2.998     0.017    27.628     8.622
    25   6 C        3.111     0.010    27.639     8.613
    26   6 C        2.980     0.002    27.982     8.677
    27   6 C        2.927    -0.033    28.814     8.803
    28   6 C        2.919    -0.036    28.894     8.815
    29   6 C        2.918    -0.034    28.840     8.806
    30   6 C        2.927    -0.039    28.969     8.827
    31   6 C        2.970     0.014    27.694     8.632
    32   6 C        3.806    -0.061    21.667     6.626
    33   6 C        3.753    -0.109    22.649     6.787
    34   6 C        3.185     0.015    27.236     8.517
    35  16 S        2.180    -0.025   142.089    20.062
    36   6 C        3.099     0.005    27.794     8.640
    37   6 C        3.088    -0.038    28.840     8.803
    38   6 C        3.342     0.069    23.997     7.742
    39   6 C        3.341     0.069    24.010     7.746
    40   7 N        1.854    -0.299    28.604     7.927
    41  16 S        2.688     0.307   129.165    19.128
    42   7 N        1.854    -0.299    28.601     7.927
    43   6 C        3.087    -0.039    28.858     8.806
    44   6 C        3.095     0.009    27.712     8.628
    45  16 S        2.162    -0.046   142.973    20.125
    46   6 C        3.176     0.016    27.260     8.526
    47   6 C        3.109     0.008    27.690     8.621
    48   6 C        2.979     0.001    27.989     8.678
    49   6 C        2.973     0.012    27.740     8.639
    50   6 C        3.806    -0.059    21.625     6.620
    51   6 C        3.754    -0.105    22.554     6.772
    52   6 C        2.926    -0.034    28.838     8.807
    53   6 C        2.919    -0.030    28.753     8.793
    54   6 C        2.919    -0.036    28.886     8.814
    55   6 C        2.927    -0.035    28.881     8.813
    56   6 C        2.993     0.017    27.632     8.623
    57  16 S        2.307     0.004   140.910    19.979
    58   6 C        3.108     0.003    27.813     8.641
    59   6 C        3.252     0.030    26.296     8.299
    60   7 N        2.799    -0.009    21.433     6.876
    61   6 C        3.071     0.037    27.102     8.536
    62   6 C        3.071     0.037    27.103     8.536
    63   7 N        2.798    -0.014    21.521     6.890
    64   6 C        3.253     0.031    26.256     8.290
    65   6 C        3.124     0.014    27.526     8.591
    66  16 S        2.248    -0.051   143.181    20.139
    67   6 C        3.744    -0.014    20.902     6.522
    68   6 C        3.752    -0.122    22.908     6.825
    69   6 C        3.743    -0.017    20.944     6.529
    70   6 C        3.752    -0.127    22.993     6.838
    71   6 C        2.919    -0.011    28.296     8.723
    72   6 C        3.026    -0.046    29.112     8.850
    73   6 C        2.880     0.231    23.165     7.890
    74   8 O        0.952    -0.402    21.669     6.243
    75   6 C        3.238    -0.031    27.843     8.558
    76   6 C        3.065    -0.035    28.796     8.799
    77   6 C        2.959    -0.020    28.502     8.757
    78  16 S        2.252     0.063   138.512    19.808
    79   6 C        3.083     0.010    27.713     8.630
    80   6 C        3.026     0.034    27.212     8.557
    81   6 C        2.947    -0.001    28.043     8.685
    82   6 C        1.934     0.130    27.912     8.532
    83   7 N        0.911    -0.275    27.097     7.529
    84   6 C        1.925     0.129    27.930     8.535
    85   7 N        0.911    -0.280    27.237     7.548
    86   1 H        0.925     0.073     2.050     2.239
    87   1 H        0.926     0.065     2.142     2.289
    88   1 H        0.926     0.060     2.198     2.318
    89   1 H        0.925     0.058     2.227     2.334
    90   1 H        0.925     0.044     2.400     2.423
    91   1 H        0.926     0.045     2.383     2.414
    92   1 H        0.926     0.045     2.389     2.417
    93   1 H        0.925     0.043     2.412     2.429
    94   1 H        0.925     0.033     2.547     2.496
    95   1 H        0.925     0.044     2.392     2.419
    96   1 H        0.925     0.057     2.239     2.340
    97   1 H        0.926     0.029     2.603     2.523
    98   1 H        0.926     0.041     2.430     2.438
    99   1 H        0.926     0.047     2.359     2.402
   100   1 H        0.926     0.050     2.314     2.379
   101   1 H        0.924     0.035     2.517     2.481
   102   1 H        0.924     0.052     2.300     2.372
   103   1 H        0.925     0.047     2.356     2.401
   104   1 H        0.925     0.045     2.379     2.412
   105   1 H        0.925     0.041     2.438     2.442
   106   1 H        0.924     0.042     2.420     2.433
   107   1 H        0.924     0.030     2.591     2.517
   108   1 H        0.925     0.035     2.514     2.479
   109   1 H        0.925     0.046     2.369     2.407
   110   1 H        0.925     0.044     2.395     2.420
   111   1 H        0.926     0.045     2.378     2.411
   112   1 H        0.926     0.046     2.368     2.406
   113   1 H        0.926     0.044     2.390     2.417
   114   1 H        0.926     0.036     2.499     2.472
   115   1 H        0.925     0.094     1.844     2.124
   116   1 H        0.924     0.079     1.989     2.205
   117   1 H        0.925     0.044     2.401     2.423
   118   1 H        0.925     0.058     2.227     2.334
   119   1 H        0.925     0.071     2.070     2.250
   120   1 H        0.924     0.089     1.890     2.150
   121   1 H        0.924     0.085     1.925     2.170
   122   1 H        0.925     0.073     2.052     2.240
   123   1 H        0.925     0.057     2.239     2.340
   124   1 H        0.925     0.054     2.271     2.357
   125   1 H        0.925     0.065     2.139     2.287
   126   1 H        0.926     0.089     1.889     2.150
   127   1 H        0.926     0.102     1.762     2.076

 Mol. C6AA /au·bohr⁶  :     290217.246028
 Mol. C8AA /au·bohr⁸  :    8154053.327903
 Mol. α(0) /au        :        858.190181


Wiberg/Mayer (AO) data.
largest (>0.10) Wiberg bond orders for each atom

 ---------------------------------------------------------------------------
     #   Z sym  total        # sym  WBO       # sym  WBO       # sym  WBO
 ---------------------------------------------------------------------------
     1   6 C    3.942 --     2 C    1.546    24 C    1.245    86 H    0.945
     2   6 C    3.951 --     1 C    1.546    11 C    1.136     3 C    1.019
     3   6 C    3.910 --     4 O    1.731     5 C    1.029     2 C    1.019
     4   8 O    2.005 --     3 C    1.731
     5   6 C    3.968 --     6 C    1.378    10 C    1.301     3 C    1.029
     6   6 C    3.979 --     7 C    1.442     5 C    1.378    87 H    0.963
     7   6 C    3.953 --     6 C    1.442     8 C    1.320    23 C    0.994
     8   6 C    3.963 --     9 C    1.448     7 C    1.320    17 C    0.995
     9   6 C    3.976 --     8 C    1.448    10 C    1.365    88 H    0.960
    10   6 C    3.976 --     9 C    1.365     5 C    1.301    11 C    1.089
    11   6 C    3.968 --    12 C    1.459     2 C    1.136    10 C    1.089
    12   6 C    3.965 --    11 C    1.459    13 C    1.108    15 C    1.103
    13   6 C    3.942 --    14 N    2.748    12 C    1.108
    14   7 N    2.956 --    13 C    2.748
    15   6 C    3.942 --    16 N    2.744    12 C    1.103
    16   7 N    2.963 --    15 C    2.744
    17   6 C    3.982 --     8 C    0.995    23 C    0.974    89 H    0.959
                            18 C    0.949
    18   6 C    3.988 --    19 C    1.004    22 C    0.989    90 H    0.970
                            17 C    0.949
    19   6 C    3.981 --    20 C    1.923    18 C    1.004    91 H    0.970
    20   6 C    3.981 --    19 C    1.923    21 C    1.004    92 H    0.970
    21   6 C    3.987 --    20 C    1.004    22 C    0.989    93 H    0.970
                            23 C    0.949
    22   6 C    3.994 --    18 C    0.989    21 C    0.989    95 H    0.978
                            94 H    0.974
    23   6 C    3.982 --     7 C    0.994    17 C    0.974    96 H    0.959
                            21 C    0.949
    24   6 C    3.924 --    25 C    1.389     1 C    1.245    66 S    1.068
    25   6 C    3.963 --    24 C    1.389    34 C    1.295    26 C    1.025
    26   6 C    3.983 --    27 C    1.382    31 C    1.373    25 C    1.025
                            29 C    0.102
    27   6 C    3.989 --    28 C    1.452    26 C    1.382    97 H    0.969
                            30 C    0.109
    28   6 C    3.990 --    27 C    1.452    29 C    1.426    98 H    0.969
                            31 C    0.106
    29   6 C    3.985 --    30 C    1.451    28 C    1.426    99 H    0.970
                            26 C    0.102
    30   6 C    3.989 --    29 C    1.451    31 C    1.409   100 H    0.966
                            27 C    0.109
    31   6 C    3.981 --    30 C    1.409    26 C    1.373    32 C    1.013
                            28 C    0.106
    32   6 C    3.996 --    31 C    1.013    33 C    1.004   101 H    0.974
                           102 H    0.964
    33   6 C    3.993 --    32 C    1.004   104 H    0.986   103 H    0.985
                           105 H    0.983
    34   6 C    3.929 --    65 C    1.323    25 C    1.295    35 S    1.091
    35  16 S    2.523 --    36 C    1.115    34 C    1.091
    36   6 C    3.918 --    64 C    1.293    37 C    1.277    35 S    1.115
    37   6 C    3.954 --    36 C    1.277    62 C    1.266    38 C    1.172
    38   6 C    3.970 --    42 N    1.424    37 C    1.172    39 C    1.165
                            41 S    0.106
    39   6 C    3.970 --    40 N    1.424    43 C    1.172    38 C    1.165
                            41 S    0.106
    40   7 N    3.059 --    39 C    1.424    41 S    1.380    42 N    0.145
    41  16 S    3.094 --    40 N    1.380    42 N    1.380    38 C    0.106
                            39 C    0.106
    42   7 N    3.059 --    38 C    1.424    41 S    1.380    40 N    0.145
    43   6 C    3.954 --    44 C    1.284    61 C    1.258    39 C    1.172
    44   6 C    3.914 --    59 C    1.293    43 C    1.284    45 S    1.111
    45  16 S    2.499 --    44 C    1.111    46 C    1.078
    46   6 C    3.927 --    47 C    1.353    58 C    1.290    45 S    1.078
    47   6 C    3.955 --    46 C    1.353    56 C    1.322    48 C    1.021
    48   6 C    3.985 --    55 C    1.392    49 C    1.368    47 C    1.021
                            53 C    0.105
    49   6 C    3.985 --    52 C    1.413    48 C    1.368    50 C    1.013
                            54 C    0.106
    50   6 C    3.997 --    49 C    1.013    51 C    1.000   106 H    0.974
                           107 H    0.971
    51   6 C    3.995 --    50 C    1.000   110 H    0.988   108 H    0.987
                           109 H    0.985
    52   6 C    3.990 --    53 C    1.445    49 C    1.413   111 H    0.967
                            55 C    0.109
    53   6 C    3.987 --    52 C    1.445    54 C    1.432   112 H    0.970
                            48 C    0.105
    54   6 C    3.989 --    55 C    1.446    53 C    1.432   113 H    0.969
                            49 C    0.106
    55   6 C    3.988 --    54 C    1.446    48 C    1.392   114 H    0.970
                            52 C    0.109
    56   6 C    3.931 --    47 C    1.322    71 C    1.314    57 S    1.077
    57  16 S    2.710 --    58 C    1.155    56 C    1.077    74 O    0.120
    58   6 C    3.940 --    46 C    1.290    59 C    1.254    57 S    1.155
    59   6 C    3.941 --    44 C    1.293    58 C    1.254    60 N    1.168
    60   7 N    3.576 --    61 C    1.189    59 C    1.168    69 C    0.971
    61   6 C    3.931 --    43 C    1.258    62 C    1.220    60 N    1.189
    62   6 C    3.931 --    37 C    1.266    61 C    1.220    63 N    1.180
    63   7 N    3.570 --    62 C    1.180    64 C    1.168    67 C    0.972
    64   6 C    3.941 --    36 C    1.293    65 C    1.254    63 N    1.168
    65   6 C    3.933 --    34 C    1.323    64 C    1.254    66 S    1.122
    66  16 S    2.552 --    65 C    1.122    24 C    1.068
    67   6 C    3.947 --    68 C    1.007    63 N    0.972   116 H    0.960
                           115 H    0.949
    68   6 C    3.986 --    67 C    1.007   117 H    0.987   118 H    0.982
                           119 H    0.980
    69   6 C    3.946 --    70 C    1.007    60 N    0.971   121 H    0.960
                           120 H    0.949
    70   6 C    3.984 --    69 C    1.007   124 H    0.986   123 H    0.982
                           122 H    0.980
    71   6 C    3.945 --    72 C    1.490    56 C    1.314   125 H    0.936
    72   6 C    3.947 --    71 C    1.490    80 C    1.129    73 C    1.061
    73   6 C    3.914 --    74 O    1.680    72 C    1.061    75 C    1.036
    74   8 O    2.081 --    73 C    1.680    57 S    0.120
    75   6 C    3.959 --    79 C    1.380    76 C    1.288    73 C    1.036
    76   6 C    3.978 --    77 C    1.589    75 C    1.288   126 H    0.957
    77   6 C    3.918 --    76 C    1.589    78 S    1.211   127 H    0.961
    78  16 S    2.711 --    77 C    1.211    79 C    1.200
    79   6 C    3.941 --    75 C    1.380    78 S    1.200    80 C    1.139
    80   6 C    3.971 --    81 C    1.442    79 C    1.139    72 C    1.129
    81   6 C    3.952 --    80 C    1.442    84 C    1.111    82 C    1.104
    82   6 C    3.943 --    83 N    2.754    81 C    1.104
    83   7 N    2.965 --    82 C    2.754
    84   6 C    3.942 --    85 N    2.740    81 C    1.111
    85   7 N    2.947 --    84 C    2.740
    86   1 H    0.992 --     1 C    0.945
    87   1 H    0.995 --     6 C    0.963
    88   1 H    0.996 --     9 C    0.960
    89   1 H    0.995 --    17 C    0.959
    90   1 H    0.998 --    18 C    0.970
    91   1 H    0.998 --    19 C    0.970
    92   1 H    0.998 --    20 C    0.970
    93   1 H    0.998 --    21 C    0.970
    94   1 H    0.999 --    22 C    0.974
    95   1 H    0.998 --    22 C    0.978
    96   1 H    0.995 --    23 C    0.959
    97   1 H    0.999 --    27 C    0.969
    98   1 H    0.997 --    28 C    0.969
    99   1 H    0.997 --    29 C    0.970
   100   1 H    0.996 --    30 C    0.966
   101   1 H    0.998 --    32 C    0.974
   102   1 H    0.997 --    32 C    0.964
   103   1 H    0.997 --    33 C    0.985
   104   1 H    0.998 --    33 C    0.986
   105   1 H    0.998 --    33 C    0.983
   106   1 H    0.998 --    50 C    0.974
   107   1 H    0.999 --    50 C    0.971
   108   1 H    0.999 --    51 C    0.987
   109   1 H    0.997 --    51 C    0.985
   110   1 H    0.998 --    51 C    0.988
   111   1 H    0.997 --    52 C    0.967
   112   1 H    0.997 --    53 C    0.970
   113   1 H    0.996 --    54 C    0.969
   114   1 H    0.998 --    55 C    0.970
   115   1 H    0.989 --    67 C    0.949
   116   1 H    0.993 --    67 C    0.960
   117   1 H    0.998 --    68 C    0.987
   118   1 H    0.996 --    68 C    0.982
   119   1 H    0.994 --    68 C    0.980
   120   1 H    0.989 --    69 C    0.949
   121   1 H    0.992 --    69 C    0.960
   122   1 H    0.993 --    70 C    0.980
   123   1 H    0.996 --    70 C    0.982
   124   1 H    0.997 --    70 C    0.986
   125   1 H    0.994 --    71 C    0.936
   126   1 H    0.992 --    76 C    0.957
   127   1 H    0.989 --    77 C    0.961
 ---------------------------------------------------------------------------

Topologies differ in bond orders
Writing corrected topology to xtbtopo.mol

molecular dipole:
                 x           y           z       tot (Debye)
 q only:        3.256       2.351       2.430
   full:        3.688       2.237       2.742      12.991
molecular quadrupole (traceless):
                xx          xy          yy          xz          yz          zz
 q only:      -54.141      65.892     -11.839     -24.506      52.878      65.981
  q+dip:      -48.787      66.139      -8.599     -24.359      46.700      57.385
   full:      -49.830      71.962      -8.173     -28.869      40.629      58.003


           -------------------------------------------------
          | TOTAL ENERGY             -220.108099706989 Eh   |
          | GRADIENT NORM               0.034531821931 Eh/α |
          | HOMO-LUMO GAP               0.961975193678 eV   |
           -------------------------------------------------

------------------------------------------------------------------------
 * finished run on 2022/02/01 at 22:04:25.036     
------------------------------------------------------------------------
 total:
 * wall-time:     0 d,  0 h,  0 min,  0.409 sec
 *  cpu-time:     0 d,  0 h,  0 min,  3.175 sec
 * ratio c/w:     7.768 speedup
 SCF:
 * wall-time:     0 d,  0 h,  0 min,  0.336 sec
 *  cpu-time:     0 d,  0 h,  0 min,  2.669 sec
 * ratio c/w:     7.955 speedup

