      -----------------------------------------------------------      
     |                   =====================                   |     
     |                           x T B                           |     
     |                   =====================                   |     
     |                         S. Grimme                         |     
     |          Mulliken Center for Theoretical Chemistry        |     
     |                    University of Bonn                     |     
      -----------------------------------------------------------      

   * xtb version 6.4.1 (unknown) compiled by 'oda6@login1.crc.pitt.edu' on 2021-06-25

   xtb is free software: you can redistribute it and/or modify it under
   the terms of the GNU Lesser General Public License as published by
   the Free Software Foundation, either version 3 of the License, or
   (at your option) any later version.
   
   xtb is distributed in the hope that it will be useful,
   but WITHOUT ANY WARRANTY; without even the implied warranty of
   MERCHANTABILITY or FITNESS FOR A PARTICULAR PURPOSE.  See the
   GNU Lesser General Public License for more details.
   
   Cite this work as:
   * C. Bannwarth, E. Caldeweyher, S. Ehlert, A. Hansen, P. Pracht,
     J. Seibert, S. Spicher, S. Grimme, WIREs Comput. Mol. Sci., 2020, 11,
     e01493. DOI: 10.1002/wcms.1493
   
   for GFN2-xTB:
   * C. Bannwarth, S. Ehlert and S. Grimme., J. Chem. Theory Comput., 2019,
     15, 1652-1671. DOI: 10.1021/acs.jctc.8b01176
   for GFN1-xTB:
   * S. Grimme, C. Bannwarth, P. Shushkov, J. Chem. Theory Comput., 2017,
     13, 1989-2009. DOI: 10.1021/acs.jctc.7b00118
   for GFN0-xTB:
   * P. Pracht, E. Caldeweyher, S. Ehlert, S. Grimme, ChemRxiv, 2019, preprint.
     DOI: 10.26434/chemrxiv.8326202.v1
   for GFN-FF:
   * S. Spicher and S. Grimme, Angew. Chem. Int. Ed., 2020, 59, 15665-15673.
     DOI: 10.1002/anie.202004239
   
   for DFT-D4:
   * E. Caldeweyher, C. Bannwarth and S. Grimme, J. Chem. Phys., 2017,
     147, 034112. DOI: 10.1063/1.4993215
   * E. Caldeweyher, S. Ehlert, A. Hansen, H. Neugebauer, S. Spicher,
     C. Bannwarth and S. Grimme, J. Chem. Phys., 2019, 150, 154122.
     DOI: 10.1063/1.5090222
   * E. Caldeweyher, J.-M. Mewes, S. Ehlert and S. Grimme, Phys. Chem. Chem. Phys.
     2020, 22, 8499-8512. DOI: 10.1039/D0CP00502A
   
   for sTDA-xTB:
   * S. Grimme and C. Bannwarth, J. Chem. Phys., 2016, 145, 054103.
     DOI: 10.1063/1.4959605
   
   in the mass-spec context:
   * V. Asgeirsson, C. Bauer and S. Grimme, Chem. Sci., 2017, 8, 4879.
     DOI: 10.1039/c7sc00601b
   * J. Koopman and S. Grimme, ACS Omega 2019, 4, 12, 15120-15133.
     DOI: 10.1021/acsomega.9b02011
   
   for metadynamics refer to:
   * S. Grimme, J. Chem. Theory Comput., 2019, 155, 2847-2862
     DOI: 10.1021/acs.jctc.9b00143
   
   for SPH calculations refer to:
   * S. Spicher and S. Grimme, J. Chem. Theory Comput., 2021, 17, 1701-1714
     DOI: 10.1021/acs.jctc.0c01306
   
   with help from (in alphabetical order)
   P. Atkinson, C. Bannwarth, F. Bohle, G. Brandenburg, E. Caldeweyher
   M. Checinski, S. Dohm, S. Ehlert, S. Ehrlich, I. Gerasimov, J. Koopman
   C. Lavigne, S. Lehtola, F. März, M. Müller, F. Musil, H. Neugebauer
   J. Pisarek, C. Plett, P. Pracht, J. Seibert, P. Shushkov, S. Spicher
   M. Stahn, M. Steiner, T. Strunk, J. Stückrath, T. Rose, and J. Unsleber
   
 * started run on 2022/02/02 at 22:16:09.327     

           -------------------------------------------------
          |                Calculation Setup                |
           -------------------------------------------------

          program call               : /ihome/ghutchison/oda6/xtb/xtb-641/bin/xtb ../../GFN2_output/39_24_7.mol --sp --alpb water
          hostname                   : smp-n39
          coordinate file            : ../../GFN2_output/39_24_7.mol
          omp threads                :                     8
          number of atoms            :                   108
          number of electrons        :                   348
          charge                     :                     0
          spin                       :                   0.0
          first test random number   :      0.37869352623306

   ID    Z sym.   atoms
    1    6 C      1-3, 5-13, 15, 17-28, 30-33, 37, 38, 40, 41, 43-47, 49, 50,
                  52, 53, 55, 56, 58-63, 65, 68-70
    2    8 O      4, 71
    3    7 N      14, 16, 34, 36, 51, 54, 67
    4   16 S      29, 35, 39, 42, 48, 57, 64, 66
    5    1 H      72-108

           -------------------------------------------------
          |                 G F N 2 - x T B                 |
           -------------------------------------------------

        Reference                      10.1021/acs.jctc.8b01176
      * Hamiltonian:
        H0-scaling (s, p, d)           1.850000    2.230000    2.230000
        zeta-weighting                 0.500000
      * Dispersion:
        s8                             2.700000
        a1                             0.520000
        a2                             5.000000
        s9                             5.000000
      * Repulsion:
        kExp                           1.500000    1.000000
        rExp                           1.000000
      * Coulomb:
        alpha                          2.000000
        third order                    shell-resolved
        anisotropic                    true
        a3                             3.000000
        a5                             4.000000
        cn-shift                       1.200000
        cn-exp                         4.000000
        max-rad                        5.000000

      * Solvation model:               ALPB
        Solvent                        water
        Parameter file                 internal GFN2-xTB/ALPB
        Dielectric constant                8.0200E+01
        Reference state                gsolv [1 M gas/solution]
        Free energy shift                  1.0808E-03 Eh       6.7819E-01 kcal/mol
        Temperature                        2.9815E+02 K
        Density                            1.0000E+00 kg/L
        Solvent mass                       1.8000E+01 g/mol
        Interaction kernel             P16
        Born radius scaling (c1)           1.4744E+00
        Born radii integrator          GBOBC
        Born offset                        0.0000E+00 a0       0.0000E+00 AA
        H-bond correction              true
        Ion screening                  false
        Surface tension                    1.0000E-05 Eh       1.5569E+01 dyn/cm
        Grid points                               230 per atom

          ...................................................
          :                      SETUP                      :
          :.................................................:
          :  # basis functions                 369          :
          :  # atomic orbitals                 361          :
          :  # shells                          187          :
          :  # electrons                       348          :
          :  max. iterations                   250          :
          :  Hamiltonian                  GFN2-xTB          :
          :  restarted?                      false          :
          :  GBSA solvation                   true          :
          :  PC potential                    false          :
          :  electronic temp.          300.0000000     K    :
          :  accuracy                    1.0000000          :
          :  -> integral cutoff          0.2500000E+02      :
          :  -> integral neglect         0.1000000E-07      :
          :  -> SCF convergence          0.1000000E-05 Eh   :
          :  -> wf. convergence          0.1000000E-03 e    :
          :  Broyden damping             0.4000000          :
          ...................................................

 iter      E             dE          RMSdq      gap      omega  full diag
   1   -191.5630555 -0.191563E+03  0.457E+00    1.22       0.0  T
   2   -191.8147888 -0.251733E+00  0.267E+00    0.92       1.0  T
   3   -191.8065529  0.823582E-02  0.135E+00    1.13       1.0  T
   4   -191.8712951 -0.647422E-01  0.492E-01    1.08       1.0  T
   5   -191.8840367 -0.127416E-01  0.182E-01    1.01       1.0  T
   6   -191.8854076 -0.137089E-02  0.943E-02    1.06       1.0  T
   7   -191.8857166 -0.309043E-03  0.324E-02    1.05       1.0  T
   8   -191.8857410 -0.243515E-04  0.170E-02    1.05       1.0  T
   9   -191.8857453 -0.435226E-05  0.917E-03    1.05       1.0  T
  10   -191.8857468 -0.149644E-05  0.445E-03    1.05       2.2  T
  11   -191.8857473 -0.508956E-06  0.243E-03    1.05       4.0  T
  12   -191.8857474 -0.717949E-07  0.121E-03    1.05       8.0  T
  13   -191.8857475 -0.583035E-07  0.500E-04    1.05      19.2  T
  14   -191.8857475 -0.660688E-08  0.263E-04    1.05      36.6  T

   *** convergence criteria satisfied after 14 iterations ***

         #    Occupation            Energy/Eh            Energy/eV
      -------------------------------------------------------------
         1        2.0000           -0.7615438             -20.7227
       ...           ...                  ...                  ...
       168        2.0000           -0.3967873             -10.7971
       169        2.0000           -0.3892671             -10.5925
       170        2.0000           -0.3860086             -10.5038
       171        2.0000           -0.3811589             -10.3719
       172        2.0000           -0.3795165             -10.3272
       173        2.0000           -0.3753969             -10.2151
       174        2.0000           -0.3680225             -10.0144 (HOMO)
       175                         -0.3295215              -8.9667 (LUMO)
       176                         -0.3239455              -8.8150
       177                         -0.3170184              -8.6265
       178                         -0.3014531              -8.2030
       179                         -0.2852108              -7.7610
       ...                                ...                  ...
       361                          1.1520653              31.3493
      -------------------------------------------------------------
                  HL-Gap            0.0385010 Eh            1.0477 eV
             Fermi-level           -0.3487731 Eh           -9.4906 eV

 SCC (total)                   0 d,  0 h,  0 min,  0.601 sec
 SCC setup                      ...        0 min,  0.003 sec (  0.457%)
 Dispersion                     ...        0 min,  0.006 sec (  0.921%)
 classical contributions        ...        0 min,  0.000 sec (  0.038%)
 integral evaluation            ...        0 min,  0.021 sec (  3.498%)
 iterations                     ...        0 min,  0.532 sec ( 88.492%)
 molecular gradient             ...        0 min,  0.038 sec (  6.304%)
 printout                       ...        0 min,  0.002 sec (  0.275%)

         :::::::::::::::::::::::::::::::::::::::::::::::::::::
         ::                     SUMMARY                     ::
         :::::::::::::::::::::::::::::::::::::::::::::::::::::
         :: total energy            -189.143160215161 Eh    ::
         :: total w/o Gsasa/hb      -189.136861323716 Eh    ::
         :: gradient norm              0.036599051021 Eh/a0 ::
         :: HOMO-LUMO gap              1.047664853490 eV    ::
         ::.................................................::
         :: SCC energy              -191.885747483094 Eh    ::
         :: -> isotropic ES            0.147658623300 Eh    ::
         :: -> anisotropic ES          0.001610307477 Eh    ::
         :: -> anisotropic XC          0.098839086539 Eh    ::
         :: -> dispersion             -0.175212835044 Eh    ::
         :: -> Gsolv                  -0.042967335411 Eh    ::
         ::    -> Gelec               -0.036668443965 Eh    ::
         ::    -> Gsasa               -0.002359387984 Eh    ::
         ::    -> Ghb                 -0.005020263159 Eh    ::
         ::    -> Gshift               0.001080759698 Eh    ::
         :: repulsion energy           2.744420216282 Eh    ::
         :: add. restraining           0.000000000000 Eh    ::
         :: total charge              -0.000000000008 e     ::
         :::::::::::::::::::::::::::::::::::::::::::::::::::::

           -------------------------------------------------
          |                Property Printout                |
           -------------------------------------------------

    * Orbital Energies and Occupations

         #    Occupation            Energy/Eh            Energy/eV
      -------------------------------------------------------------
         1        2.0000           -0.7615438             -20.7227
       ...           ...                  ...                  ...
       162        2.0000           -0.4184447             -11.3865
       163        2.0000           -0.4160509             -11.3213
       164        2.0000           -0.4132374             -11.2448
       165        2.0000           -0.4092004             -11.1349
       166        2.0000           -0.4042064             -10.9990
       167        2.0000           -0.4002708             -10.8919
       168        2.0000           -0.3967873             -10.7971
       169        2.0000           -0.3892671             -10.5925
       170        2.0000           -0.3860086             -10.5038
       171        2.0000           -0.3811589             -10.3719
       172        2.0000           -0.3795165             -10.3272
       173        2.0000           -0.3753969             -10.2151
       174        2.0000           -0.3680225             -10.0144 (HOMO)
       175                         -0.3295215              -8.9667 (LUMO)
       176                         -0.3239455              -8.8150
       177                         -0.3170184              -8.6265
       178                         -0.3014531              -8.2030
       179                         -0.2852108              -7.7610
       180                         -0.2679663              -7.2917
       181                         -0.2622169              -7.1353
       182                         -0.2508957              -6.8272
       183                         -0.2429720              -6.6116
       184                         -0.2419777              -6.5845
       185                         -0.2411609              -6.5623
       ...                                ...                  ...
       361                          1.1520653              31.3493
      -------------------------------------------------------------
                  HL-Gap            0.0385010 Eh            1.0477 eV
             Fermi-level           -0.3487731 Eh           -9.4906 eV

     #   Z          covCN         q      C6AA      α(0)
     1   6 C        2.920    -0.015    28.383     8.736
     2   6 C        3.006    -0.045    29.101     8.849
     3   6 C        2.876     0.227    23.247     7.904
     4   8 O        0.970    -0.409    21.812     6.264
     5   6 C        3.060    -0.023    28.509     8.756
     6   6 C        2.904    -0.025    28.639     8.775
     7   6 C        3.259     0.014    26.540     8.325
     8   6 C        3.256     0.014    26.588     8.337
     9   6 C        2.904    -0.034    28.840     8.806
    10   6 C        3.050     0.003    27.918     8.666
    11   6 C        3.021     0.035    27.194     8.554
    12   6 C        2.947    -0.003    28.107     8.695
    13   6 C        1.948     0.129    27.917     8.533
    14   7 N        0.911    -0.289    27.441     7.576
    15   6 C        1.949     0.134    27.811     8.516
    16   7 N        0.911    -0.291    27.507     7.585
    17   6 C        4.162    -0.025    20.927     6.497
    18   6 C        4.013    -0.016    20.782     6.476
    19   6 C        2.995    -0.044    29.077     8.845
    20   6 C        2.995    -0.044    29.090     8.847
    21   6 C        4.013    -0.016    20.787     6.477
    22   6 C        3.915    -0.062    21.631     6.610
    23   6 C        4.161    -0.025    20.927     6.497
    24   6 C        2.993     0.015    27.673     8.629
    25   6 C        3.095     0.008    27.733     8.631
    26   6 C        3.804    -0.059    21.631     6.621
    27   6 C        3.754    -0.107    22.607     6.780
    28   6 C        3.183     0.012    27.296     8.527
    29  16 S        2.166    -0.053   143.254    20.144
    30   6 C        3.094     0.008    27.738     8.632
    31   6 C        3.092    -0.042    28.922     8.815
    32   6 C        3.342     0.069    23.993     7.740
    33   6 C        3.344     0.069    23.973     7.733
    34   7 N        1.854    -0.304    28.722     7.943
    35  16 S        2.690     0.293   129.658    19.165
    36   7 N        1.855    -0.302    28.670     7.936
    37   6 C        3.093    -0.041    28.906     8.812
    38   6 C        3.099     0.003    27.835     8.646
    39  16 S        2.173    -0.056   143.372    20.153
    40   6 C        3.157     0.007    27.556     8.583
    41   6 C        3.147     0.017    27.365     8.558
    42  16 S        2.284    -0.038   142.631    20.101
    43   6 C        3.003     0.018    27.593     8.617
    44   6 C        3.085     0.009    27.728     8.632
    45   6 C        3.804    -0.061    21.679     6.629
    46   6 C        3.753    -0.117    22.799     6.809
    47   6 C        3.196     0.009    27.289     8.516
    48  16 S        2.208    -0.007   141.340    20.009
    49   6 C        3.131     0.003    27.738     8.622
    50   6 C        3.251     0.030    26.298     8.300
    51   7 N        2.804    -0.009    21.429     6.875
    52   6 C        3.061     0.030    27.273     8.564
    53   6 C        3.062     0.033    27.191     8.551
    54   7 N        2.803    -0.008    21.415     6.873
    55   6 C        3.253     0.030    26.286     8.295
    56   6 C        3.107     0.003    27.818     8.642
    57  16 S        2.330     0.004   140.885    19.977
    58   6 C        3.745    -0.017    20.954     6.530
    59   6 C        3.752    -0.128    23.027     6.843
    60   6 C        3.745    -0.019    20.980     6.534
    61   6 C        3.752    -0.130    23.054     6.847
    62   6 C        2.979    -0.018    28.454     8.750
    63   6 C        2.954    -0.011    28.288     8.724
    64  16 S        2.314    -0.034   142.477    20.090
    65   6 C        2.904     0.159    24.554     8.125
    66  16 S        1.166    -0.376   155.696    21.097
    67   7 N        2.894    -0.054    22.274     7.010
    68   6 C        3.746     0.002    20.608     6.475
    69   6 C        3.752    -0.118    22.826     6.813
    70   6 C        2.894     0.274    22.374     7.755
    71   8 O        0.858    -0.457    22.856     6.410
    72   1 H        0.925     0.070     2.081     2.256
    73   1 H        0.926     0.070     2.087     2.259
    74   1 H        0.926     0.052     2.293     2.368
    75   1 H        0.925     0.053     2.287     2.365
    76   1 H        0.925     0.040     2.443     2.444
    77   1 H        0.926     0.043     2.413     2.429
    78   1 H        0.926     0.045     2.386     2.415
    79   1 H        0.925     0.045     2.380     2.412
    80   1 H        0.925     0.045     2.388     2.417
    81   1 H        0.925     0.034     2.529     2.487
    82   1 H        0.925     0.056     2.249     2.345
    83   1 H        0.924     0.064     2.151     2.294
    84   1 H        0.924     0.054     2.273     2.357
    85   1 H        0.925     0.049     2.337     2.391
    86   1 H        0.925     0.039     2.463     2.454
    87   1 H        0.925     0.059     2.210     2.325
    88   1 H        0.924     0.075     2.032     2.229
    89   1 H        0.925     0.054     2.276     2.359
    90   1 H        0.925     0.058     2.224     2.332
    91   1 H        0.925     0.062     2.175     2.306
    92   1 H        0.925     0.047     2.358     2.401
    93   1 H        0.925     0.092     1.857     2.131
    94   1 H        0.924     0.078     2.000     2.211
    95   1 H        0.925     0.058     2.223     2.332
    96   1 H        0.925     0.075     2.029     2.227
    97   1 H        0.925     0.056     2.247     2.344
    98   1 H        0.924     0.080     1.976     2.198
    99   1 H        0.925     0.091     1.865     2.136
   100   1 H        0.925     0.059     2.205     2.322
   101   1 H        0.925     0.076     2.016     2.220
   102   1 H        0.925     0.055     2.255     2.348
   103   1 H        0.925     0.092     1.857     2.131
   104   1 H        0.924     0.084     1.940     2.178
   105   1 H        0.924     0.079     1.989     2.206
   106   1 H        0.925     0.056     2.250     2.346
   107   1 H        0.925     0.052     2.292     2.367
   108   1 H        0.925     0.073     2.048     2.238

 Mol. C6AA /au·bohr⁶  :     218503.125935
 Mol. C8AA /au·bohr⁸  :    6411696.093993
 Mol. α(0) /au        :        742.774220


Wiberg/Mayer (AO) data.
largest (>0.10) Wiberg bond orders for each atom

 ---------------------------------------------------------------------------
     #   Z sym  total        # sym  WBO       # sym  WBO       # sym  WBO
 ---------------------------------------------------------------------------
     1   6 C    3.940 --     2 C    1.468    24 C    1.330    72 H    0.932
     2   6 C    3.952 --     1 C    1.468    11 C    1.150     3 C    1.074
     3   6 C    3.908 --     4 O    1.670     2 C    1.074     5 C    1.033
     4   8 O    2.076 --     3 C    1.670    57 S    0.131
     5   6 C    3.969 --     6 C    1.380    10 C    1.306     3 C    1.033
     6   6 C    3.977 --     7 C    1.439     5 C    1.380    73 H    0.962
     7   6 C    3.953 --     6 C    1.439     8 C    1.324    23 C    0.994
     8   6 C    3.964 --     9 C    1.446     7 C    1.324    17 C    0.995
     9   6 C    3.976 --     8 C    1.446    10 C    1.366    74 H    0.958
    10   6 C    3.975 --     9 C    1.366     5 C    1.306    11 C    1.088
    11   6 C    3.964 --    12 C    1.458     2 C    1.150    10 C    1.088
    12   6 C    3.943 --    11 C    1.458    13 C    1.105    15 C    1.103
    13   6 C    3.940 --    14 N    2.732    12 C    1.105
    14   7 N    2.950 --    13 C    2.732
    15   6 C    3.938 --    16 N    2.742    12 C    1.103
    16   7 N    2.952 --    15 C    2.742
    17   6 C    3.983 --     8 C    0.995    23 C    0.975    75 H    0.960
                            18 C    0.950
    18   6 C    3.988 --    19 C    1.004    22 C    0.989    76 H    0.971
                            17 C    0.950
    19   6 C    3.981 --    20 C    1.923    18 C    1.004    77 H    0.970
    20   6 C    3.981 --    19 C    1.923    21 C    1.004    78 H    0.970
    21   6 C    3.987 --    20 C    1.004    22 C    0.989    79 H    0.970
                            23 C    0.949
    22   6 C    3.994 --    21 C    0.989    18 C    0.989    80 H    0.978
                            81 H    0.974
    23   6 C    3.982 --     7 C    0.994    17 C    0.975    82 H    0.959
                            21 C    0.949
    24   6 C    3.932 --     1 C    1.330    25 C    1.324    57 S    1.073
    25   6 C    3.953 --    28 C    1.369    24 C    1.324    26 C    1.018
    26   6 C    3.992 --    25 C    1.018    27 C    0.990    83 H    0.967
                            84 H    0.964
    27   6 C    3.988 --    26 C    0.990    85 H    0.988    86 H    0.987
                            87 H    0.983
    28   6 C    3.927 --    25 C    1.369    56 C    1.287    29 S    1.074
    29  16 S    2.493 --    30 C    1.109    28 C    1.074
    30   6 C    3.915 --    55 C    1.295    31 C    1.287    29 S    1.109
    31   6 C    3.954 --    30 C    1.287    53 C    1.253    32 C    1.174
    32   6 C    3.970 --    36 N    1.422    31 C    1.174    33 C    1.165
                            35 S    0.106
    33   6 C    3.970 --    34 N    1.422    37 C    1.174    32 C    1.165
                            35 S    0.107
    34   7 N    3.056 --    33 C    1.422    35 S    1.378    36 N    0.146
    35  16 S    3.091 --    36 N    1.378    34 N    1.378    33 C    0.107
                            32 C    0.106
    36   7 N    3.057 --    32 C    1.422    35 S    1.378    34 N    0.146
    37   6 C    3.953 --    38 C    1.276    52 C    1.265    33 C    1.174
    38   6 C    3.919 --    50 C    1.305    37 C    1.276    39 S    1.106
    39  16 S    2.513 --    38 C    1.106    40 C    1.095
    40   6 C    3.926 --    49 C    1.350    41 C    1.270    39 S    1.095
    41   6 C    3.932 --    47 C    1.329    40 C    1.270    42 S    1.137
    42  16 S    2.547 --    41 C    1.137    43 C    1.071
    43   6 C    3.923 --    44 C    1.424    62 C    1.219    42 S    1.071
    44   6 C    3.958 --    43 C    1.424    47 C    1.292    45 C    1.016
    45   6 C    3.990 --    44 C    1.016    46 C    1.002    89 H    0.967
                            88 H    0.947
    46   6 C    3.989 --    45 C    1.002    92 H    0.987    90 H    0.983
                            91 H    0.977
    47   6 C    3.927 --    41 C    1.329    44 C    1.292    48 S    1.089
    48  16 S    2.539 --    49 C    1.102    47 C    1.089
    49   6 C    3.924 --    40 C    1.350    50 C    1.238    48 S    1.102
    50   6 C    3.941 --    38 C    1.305    49 C    1.238    51 N    1.174
    51   7 N    3.582 --    52 C    1.187    50 C    1.174    60 C    0.972
    52   6 C    3.935 --    37 C    1.265    53 C    1.213    51 N    1.187
    53   6 C    3.929 --    31 C    1.253    52 C    1.213    54 N    1.198
    54   7 N    3.584 --    53 C    1.198    55 C    1.166    58 C    0.972
    55   6 C    3.942 --    30 C    1.295    56 C    1.255    54 N    1.166
    56   6 C    3.940 --    28 C    1.287    55 C    1.255    57 S    1.157
    57  16 S    2.721 --    56 C    1.157    24 C    1.073     4 O    0.131
    58   6 C    3.946 --    59 C    1.004    54 N    0.972    94 H    0.961
                            93 H    0.955
    59   6 C    3.983 --    58 C    1.004    97 H    0.981    96 H    0.980
                            95 H    0.978
    60   6 C    3.945 --    61 C    1.004    51 N    0.972    98 H    0.960
                            99 H    0.954
    61   6 C    3.983 --    60 C    1.004   100 H    0.982   101 H    0.980
                           102 H    0.979
    62   6 C    3.931 --    63 C    1.582    43 C    1.219   103 H    0.940
    63   6 C    3.927 --    62 C    1.582    64 S    1.061    70 C    1.056
    64  16 S    2.538 --    65 C    1.099    63 C    1.061    66 S    0.146
    65   6 C    3.949 --    66 S    1.540    67 N    1.228    64 S    1.099
    66  16 S    1.874 --    65 C    1.540    64 S    0.146    67 N    0.101
    67   7 N    3.610 --    65 C    1.228    70 C    1.113    68 C    0.955
                            71 O    0.124    66 S    0.101
    68   6 C    3.942 --    69 C    1.007   105 H    0.964   104 H    0.964
                            67 N    0.955
    69   6 C    3.988 --    68 C    1.007   107 H    0.986   106 H    0.985
                           108 H    0.979
    70   6 C    3.935 --    71 O    1.645    67 N    1.113    63 C    1.056
    71   8 O    1.981 --    70 C    1.645    67 N    0.124
    72   1 H    0.994 --     1 C    0.932
    73   1 H    0.995 --     6 C    0.962
    74   1 H    0.997 --     9 C    0.958
    75   1 H    0.996 --    17 C    0.960
    76   1 H    0.998 --    18 C    0.971
    77   1 H    0.998 --    19 C    0.970
    78   1 H    0.998 --    20 C    0.970
    79   1 H    0.998 --    21 C    0.970
    80   1 H    0.998 --    22 C    0.978
    81   1 H    0.999 --    22 C    0.974
    82   1 H    0.995 --    23 C    0.959
    83   1 H    0.995 --    26 C    0.967
    84   1 H    0.996 --    26 C    0.964
    85   1 H    0.998 --    27 C    0.988
    86   1 H    0.998 --    27 C    0.987
    87   1 H    0.995 --    27 C    0.983
    88   1 H    0.993 --    45 C    0.947
    89   1 H    0.997 --    45 C    0.967
    90   1 H    0.995 --    46 C    0.983
    91   1 H    0.996 --    46 C    0.977
    92   1 H    0.998 --    46 C    0.987
    93   1 H    0.990 --    58 C    0.955
    94   1 H    0.992 --    58 C    0.961
    95   1 H    0.997 --    59 C    0.978
    96   1 H    0.993 --    59 C    0.980
    97   1 H    0.997 --    59 C    0.981
    98   1 H    0.991 --    60 C    0.960
    99   1 H    0.990 --    60 C    0.954
   100   1 H    0.996 --    61 C    0.982
   101   1 H    0.993 --    61 C    0.980
   102   1 H    0.997 --    61 C    0.979
   103   1 H    0.989 --    62 C    0.940
   104   1 H    0.993 --    68 C    0.964
   105   1 H    0.993 --    68 C    0.964
   106   1 H    0.997 --    69 C    0.985
   107   1 H    0.997 --    69 C    0.986
   108   1 H    0.993 --    69 C    0.979
 ---------------------------------------------------------------------------

Topologies differ in bond orders
Writing corrected topology to xtbtopo.mol

molecular dipole:
                 x           y           z       tot (Debye)
 q only:        4.467      -0.668       1.016
   full:        4.309      -0.650       1.227      11.507
molecular quadrupole (traceless):
                xx          xy          yy          xz          yz          zz
 q only:       82.389      -9.579      21.863      11.547     -81.147    -104.251
  q+dip:       76.359     -13.387      20.660       0.839     -81.488     -97.019
   full:       72.771     -15.250      29.939       2.897     -86.084    -102.710


           -------------------------------------------------
          | TOTAL ENERGY             -189.143160215161 Eh   |
          | GRADIENT NORM               0.036599051021 Eh/α |
          | HOMO-LUMO GAP               1.047664853490 eV   |
           -------------------------------------------------

------------------------------------------------------------------------
 * finished run on 2022/02/02 at 22:16:10.007     
------------------------------------------------------------------------
 total:
 * wall-time:     0 d,  0 h,  0 min,  0.680 sec
 *  cpu-time:     0 d,  0 h,  0 min,  4.662 sec
 * ratio c/w:     6.855 speedup
 SCF:
 * wall-time:     0 d,  0 h,  0 min,  0.604 sec
 *  cpu-time:     0 d,  0 h,  0 min,  4.224 sec
 * ratio c/w:     6.997 speedup

