      -----------------------------------------------------------      
     |                   =====================                   |     
     |                           x T B                           |     
     |                   =====================                   |     
     |                         S. Grimme                         |     
     |          Mulliken Center for Theoretical Chemistry        |     
     |                    University of Bonn                     |     
      -----------------------------------------------------------      

   * xtb version 6.4.1 (unknown) compiled by 'oda6@login1.crc.pitt.edu' on 2021-06-25

   xtb is free software: you can redistribute it and/or modify it under
   the terms of the GNU Lesser General Public License as published by
   the Free Software Foundation, either version 3 of the License, or
   (at your option) any later version.
   
   xtb is distributed in the hope that it will be useful,
   but WITHOUT ANY WARRANTY; without even the implied warranty of
   MERCHANTABILITY or FITNESS FOR A PARTICULAR PURPOSE.  See the
   GNU Lesser General Public License for more details.
   
   Cite this work as:
   * C. Bannwarth, E. Caldeweyher, S. Ehlert, A. Hansen, P. Pracht,
     J. Seibert, S. Spicher, S. Grimme, WIREs Comput. Mol. Sci., 2020, 11,
     e01493. DOI: 10.1002/wcms.1493
   
   for GFN2-xTB:
   * C. Bannwarth, S. Ehlert and S. Grimme., J. Chem. Theory Comput., 2019,
     15, 1652-1671. DOI: 10.1021/acs.jctc.8b01176
   for GFN1-xTB:
   * S. Grimme, C. Bannwarth, P. Shushkov, J. Chem. Theory Comput., 2017,
     13, 1989-2009. DOI: 10.1021/acs.jctc.7b00118
   for GFN0-xTB:
   * P. Pracht, E. Caldeweyher, S. Ehlert, S. Grimme, ChemRxiv, 2019, preprint.
     DOI: 10.26434/chemrxiv.8326202.v1
   for GFN-FF:
   * S. Spicher and S. Grimme, Angew. Chem. Int. Ed., 2020, 59, 15665-15673.
     DOI: 10.1002/anie.202004239
   
   for DFT-D4:
   * E. Caldeweyher, C. Bannwarth and S. Grimme, J. Chem. Phys., 2017,
     147, 034112. DOI: 10.1063/1.4993215
   * E. Caldeweyher, S. Ehlert, A. Hansen, H. Neugebauer, S. Spicher,
     C. Bannwarth and S. Grimme, J. Chem. Phys., 2019, 150, 154122.
     DOI: 10.1063/1.5090222
   * E. Caldeweyher, J.-M. Mewes, S. Ehlert and S. Grimme, Phys. Chem. Chem. Phys.
     2020, 22, 8499-8512. DOI: 10.1039/D0CP00502A
   
   for sTDA-xTB:
   * S. Grimme and C. Bannwarth, J. Chem. Phys., 2016, 145, 054103.
     DOI: 10.1063/1.4959605
   
   in the mass-spec context:
   * V. Asgeirsson, C. Bauer and S. Grimme, Chem. Sci., 2017, 8, 4879.
     DOI: 10.1039/c7sc00601b
   * J. Koopman and S. Grimme, ACS Omega 2019, 4, 12, 15120-15133.
     DOI: 10.1021/acsomega.9b02011
   
   for metadynamics refer to:
   * S. Grimme, J. Chem. Theory Comput., 2019, 155, 2847-2862
     DOI: 10.1021/acs.jctc.9b00143
   
   for SPH calculations refer to:
   * S. Spicher and S. Grimme, J. Chem. Theory Comput., 2021, 17, 1701-1714
     DOI: 10.1021/acs.jctc.0c01306
   
   with help from (in alphabetical order)
   P. Atkinson, C. Bannwarth, F. Bohle, G. Brandenburg, E. Caldeweyher
   M. Checinski, S. Dohm, S. Ehlert, S. Ehrlich, I. Gerasimov, J. Koopman
   C. Lavigne, S. Lehtola, F. März, M. Müller, F. Musil, H. Neugebauer
   J. Pisarek, C. Plett, P. Pracht, J. Seibert, P. Shushkov, S. Spicher
   M. Stahn, M. Steiner, T. Strunk, J. Stückrath, T. Rose, and J. Unsleber
   
 * started run on 2022/02/11 at 01:31:12.758     

           -------------------------------------------------
          |                Calculation Setup                |
           -------------------------------------------------

          program call               : /ihome/ghutchison/oda6/xtb/xtb-641/bin/xtb ../../GFN2_output/39_28_28.mol --sp --alpb water
          hostname                   : smp-n28
          coordinate file            : ../../GFN2_output/39_28_28.mol
          omp threads                :                     8
          number of atoms            :                    77
          number of electrons        :                   262
          charge                     :                     0
          spin                       :                   0.0
          first test random number   :      0.02699401662428

   ID    Z sym.   atoms
    1    6 C      1-3, 5-13, 15, 17-27, 29, 30, 32-35, 38-42, 44-46, 48-53, 55
    2    8 O      4, 43
    3    7 N      14, 16, 28, 31, 54, 56
    4   16 S      36, 37
    5    9 F      47
    6    1 H      57-77

           -------------------------------------------------
          |                 G F N 2 - x T B                 |
           -------------------------------------------------

        Reference                      10.1021/acs.jctc.8b01176
      * Hamiltonian:
        H0-scaling (s, p, d)           1.850000    2.230000    2.230000
        zeta-weighting                 0.500000
      * Dispersion:
        s8                             2.700000
        a1                             0.520000
        a2                             5.000000
        s9                             5.000000
      * Repulsion:
        kExp                           1.500000    1.000000
        rExp                           1.000000
      * Coulomb:
        alpha                          2.000000
        third order                    shell-resolved
        anisotropic                    true
        a3                             3.000000
        a5                             4.000000
        cn-shift                       1.200000
        cn-exp                         4.000000
        max-rad                        5.000000

      * Solvation model:               ALPB
        Solvent                        water
        Parameter file                 internal GFN2-xTB/ALPB
        Dielectric constant                8.0200E+01
        Reference state                gsolv [1 M gas/solution]
        Free energy shift                  1.0808E-03 Eh       6.7819E-01 kcal/mol
        Temperature                        2.9815E+02 K
        Density                            1.0000E+00 kg/L
        Solvent mass                       1.8000E+01 g/mol
        Interaction kernel             P16
        Born radius scaling (c1)           1.4744E+00
        Born radii integrator          GBOBC
        Born offset                        0.0000E+00 a0       0.0000E+00 AA
        H-bond correction              true
        Ion screening                  false
        Surface tension                    1.0000E-05 Eh       1.5569E+01 dyn/cm
        Grid points                               230 per atom

          ...................................................
          :                      SETUP                      :
          :.................................................:
          :  # basis functions                 257          :
          :  # atomic orbitals                 255          :
          :  # shells                          135          :
          :  # electrons                       262          :
          :  max. iterations                   250          :
          :  Hamiltonian                  GFN2-xTB          :
          :  restarted?                      false          :
          :  GBSA solvation                   true          :
          :  PC potential                    false          :
          :  electronic temp.          300.0000000     K    :
          :  accuracy                    1.0000000          :
          :  -> integral cutoff          0.2500000E+02      :
          :  -> integral neglect         0.1000000E-07      :
          :  -> SCF convergence          0.1000000E-05 Eh   :
          :  -> wf. convergence          0.1000000E-03 e    :
          :  Broyden damping             0.4000000          :
          ...................................................

 iter      E             dE          RMSdq      gap      omega  full diag
   1   -145.9971105 -0.145997E+03  0.540E+00    0.90       0.0  T
   2   -146.0769757 -0.798652E-01  0.322E+00    0.89       1.0  T
   3   -145.9643489  0.112627E+00  0.173E+00    0.83       1.0  T
   4   -146.1185268 -0.154178E+00  0.436E-01    0.87       1.0  T
   5   -146.1260477 -0.752087E-02  0.141E-01    0.80       1.0  T
   6   -146.1264063 -0.358635E-03  0.610E-02    0.79       1.0  T
   7   -146.1264730 -0.667160E-04  0.253E-02    0.79       1.0  T
   8   -146.1264840 -0.109513E-04  0.936E-03    0.79       1.2  T
   9   -146.1264856 -0.166234E-05  0.451E-03    0.79       2.5  T
  10   -146.1264859 -0.321783E-06  0.235E-03    0.80       4.8  T
  11   -146.1264861 -0.116586E-06  0.117E-03    0.80       9.8  T
  12   -146.1264861 -0.208804E-07  0.541E-04    0.80      21.0  T
  13   -146.1264861 -0.495672E-08  0.250E-04    0.80      45.5  T

   *** convergence criteria satisfied after 13 iterations ***

         #    Occupation            Energy/Eh            Energy/eV
      -------------------------------------------------------------
         1        2.0000           -0.8452280             -22.9998
       ...           ...                  ...                  ...
       125        2.0000           -0.4157869             -11.3141
       126        2.0000           -0.4143977             -11.2763
       127        2.0000           -0.4133773             -11.2486
       128        2.0000           -0.4063876             -11.0584
       129        2.0000           -0.3901486             -10.6165
       130        2.0000           -0.3862011             -10.5091
       131        2.0000           -0.3718428             -10.1184 (HOMO)
       132        0.0000           -0.3426029              -9.3227 (LUMO)
       133                         -0.3324382              -9.0461
       134                         -0.3264856              -8.8841
       135                         -0.3154190              -8.5830
       136                         -0.3116086              -8.4793
       ...                                ...                  ...
       255                          1.1523133              31.3560
      -------------------------------------------------------------
                  HL-Gap            0.0292399 Eh            0.7957 eV
             Fermi-level           -0.3572229 Eh           -9.7205 eV

 SCC (total)                   0 d,  0 h,  0 min,  0.146 sec
 SCC setup                      ...        0 min,  0.003 sec (  2.089%)
 Dispersion                     ...        0 min,  0.003 sec (  1.896%)
 classical contributions        ...        0 min,  0.000 sec (  0.157%)
 integral evaluation            ...        0 min,  0.008 sec (  5.500%)
 iterations                     ...        0 min,  0.112 sec ( 77.269%)
 molecular gradient             ...        0 min,  0.018 sec ( 12.662%)
 printout                       ...        0 min,  0.001 sec (  0.367%)

         :::::::::::::::::::::::::::::::::::::::::::::::::::::
         ::                     SUMMARY                     ::
         :::::::::::::::::::::::::::::::::::::::::::::::::::::
         :: total energy            -143.747915604974 Eh    ::
         :: total w/o Gsasa/hb      -143.725351705099 Eh    ::
         :: gradient norm              0.028765243129 Eh/a0 ::
         :: HOMO-LUMO gap              0.795657483948 eV    ::
         ::.................................................::
         :: SCC energy              -146.126486082489 Eh    ::
         :: -> isotropic ES            0.138118198822 Eh    ::
         :: -> anisotropic ES          0.006457663102 Eh    ::
         :: -> anisotropic XC          0.118232504652 Eh    ::
         :: -> dispersion             -0.115583616754 Eh    ::
         :: -> Gsolv                  -0.046669684897 Eh    ::
         ::    -> Gelec               -0.024105785022 Eh    ::
         ::    -> Gsasa               -0.018646437418 Eh    ::
         ::    -> Ghb                 -0.004998222156 Eh    ::
         ::    -> Gshift               0.001080759698 Eh    ::
         :: repulsion energy           2.379831538667 Eh    ::
         :: add. restraining           0.000000000000 Eh    ::
         :: total charge              -0.000000000009 e     ::
         :::::::::::::::::::::::::::::::::::::::::::::::::::::

           -------------------------------------------------
          |                Property Printout                |
           -------------------------------------------------

    * Orbital Energies and Occupations

         #    Occupation            Energy/Eh            Energy/eV
      -------------------------------------------------------------
         1        2.0000           -0.8452280             -22.9998
       ...           ...                  ...                  ...
       119        2.0000           -0.4312895             -11.7360
       120        2.0000           -0.4275798             -11.6350
       121        2.0000           -0.4257943             -11.5865
       122        2.0000           -0.4222114             -11.4890
       123        2.0000           -0.4212087             -11.4617
       124        2.0000           -0.4169301             -11.3452
       125        2.0000           -0.4157869             -11.3141
       126        2.0000           -0.4143977             -11.2763
       127        2.0000           -0.4133773             -11.2486
       128        2.0000           -0.4063876             -11.0584
       129        2.0000           -0.3901486             -10.6165
       130        2.0000           -0.3862011             -10.5091
       131        2.0000           -0.3718428             -10.1184 (HOMO)
       132        0.0000           -0.3426029              -9.3227 (LUMO)
       133                         -0.3324382              -9.0461
       134                         -0.3264856              -8.8841
       135                         -0.3154190              -8.5830
       136                         -0.3116086              -8.4793
       137                         -0.2825469              -7.6885
       138                         -0.2618743              -7.1260
       139                         -0.2553009              -6.9471
       140                         -0.2501696              -6.8075
       141                         -0.2484878              -6.7617
       142                         -0.2338632              -6.3637
       ...                                ...                  ...
       255                          1.1523133              31.3560
      -------------------------------------------------------------
                  HL-Gap            0.0292399 Eh            0.7957 eV
             Fermi-level           -0.3572229 Eh           -9.7205 eV

     #   Z          covCN         q      C6AA      α(0)
     1   6 C        2.946    -0.009    28.253     8.718
     2   6 C        3.006    -0.030    28.741     8.794
     3   6 C        2.865     0.234    23.105     7.879
     4   8 O        0.856    -0.413    21.939     6.280
     5   6 C        3.061    -0.020    28.452     8.747
     6   6 C        2.904    -0.024    28.602     8.769
     7   6 C        3.259     0.017    26.493     8.318
     8   6 C        3.255     0.017    26.527     8.329
     9   6 C        2.904    -0.032    28.794     8.799
    10   6 C        3.045     0.007    27.823     8.651
    11   6 C        3.023     0.039    27.094     8.538
    12   6 C        2.947     0.005    27.910     8.665
    13   6 C        1.935     0.131    27.891     8.529
    14   7 N        0.911    -0.279    27.198     7.543
    15   6 C        1.935     0.135    27.781     8.512
    16   7 N        0.911    -0.278    27.172     7.539
    17   6 C        4.162    -0.025    20.932     6.498
    18   6 C        4.013    -0.016    20.785     6.477
    19   6 C        2.995    -0.044    29.070     8.844
    20   6 C        2.995    -0.044    29.083     8.846
    21   6 C        4.013    -0.016    20.786     6.477
    22   6 C        3.914    -0.063    21.643     6.612
    23   6 C        4.160    -0.025    20.932     6.498
    24   6 C        2.993     0.036    27.180     8.552
    25   6 C        3.071    -0.031    28.702     8.784
    26   6 C        3.158    -0.002    27.772     8.616
    27   6 C        3.850     0.054    19.634     6.302
    28   7 N        1.829    -0.223    26.701     7.657
    29   6 C        2.876     0.060    26.641     8.461
    30   6 C        2.877     0.060    26.655     8.464
    31   7 N        1.829    -0.223    26.700     7.657
    32   6 C        3.850     0.053    19.654     6.306
    33   6 C        3.129    -0.003    27.898     8.648
    34   6 C        3.025     0.012    27.714     8.635
    35   6 C        3.017     0.021    27.517     8.605
    36  16 S        2.316     0.032   139.770    19.898
    37  16 S        2.361     0.067   138.330    19.795
    38   6 C        2.985     0.032    27.283     8.568
    39   6 C        3.081    -0.041    28.935     8.818
    40   6 C        2.917    -0.009    28.241     8.714
    41   6 C        3.006    -0.034    28.836     8.809
    42   6 C        2.872     0.233    23.138     7.885
    43   8 O        0.965    -0.393    21.484     6.217
    44   6 C        3.051    -0.012    28.260     8.719
    45   6 C        2.910    -0.037    28.914     8.817
    46   6 C        2.789     0.187    24.004     8.025
    47   9 F        0.787    -0.236    11.614     4.026
    48   6 C        2.919    -0.042    29.048     8.838
    49   6 C        2.916    -0.022    28.546     8.761
    50   6 C        3.033     0.008    27.816     8.651
    51   6 C        3.018     0.041    27.069     8.534
    52   6 C        2.947     0.010    27.791     8.646
    53   6 C        1.945     0.134    27.808     8.516
    54   7 N        0.911    -0.271    27.019     7.518
    55   6 C        1.946     0.136    27.769     8.510
    56   7 N        0.911    -0.271    27.004     7.516
    57   1 H        0.925     0.076     2.021     2.223
    58   1 H        0.926     0.070     2.080     2.256
    59   1 H        0.926     0.058     2.219     2.329
    60   1 H        0.925     0.056     2.244     2.342
    61   1 H        0.925     0.043     2.403     2.424
    62   1 H        0.926     0.044     2.397     2.421
    63   1 H        0.926     0.045     2.388     2.417
    64   1 H        0.925     0.045     2.381     2.413
    65   1 H        0.925     0.046     2.375     2.410
    66   1 H        0.925     0.036     2.509     2.477
    67   1 H        0.925     0.058     2.227     2.334
    68   1 H        0.926     0.097     1.809     2.103
    69   1 H        0.922     0.061     2.192     2.315
    70   1 H        0.925     0.077     2.014     2.219
    71   1 H        0.925     0.079     1.993     2.208
    72   1 H        0.922     0.060     2.202     2.321
    73   1 H        0.926     0.095     1.833     2.117
    74   1 H        0.925     0.085     1.930     2.173
    75   1 H        0.926     0.096     1.822     2.111
    76   1 H        0.926     0.101     1.779     2.086
    77   1 H        0.926     0.081     1.973     2.196

 Mol. C6AA /au·bohr⁶  :     108161.571121
 Mol. C8AA /au·bohr⁸  :    2942053.733750
 Mol. α(0) /au        :        521.226673


Wiberg/Mayer (AO) data.
largest (>0.10) Wiberg bond orders for each atom

 ---------------------------------------------------------------------------
     #   Z sym  total        # sym  WBO       # sym  WBO       # sym  WBO
 ---------------------------------------------------------------------------
     1   6 C    3.950 --     2 C    1.565    24 C    1.229    57 H    0.945
     2   6 C    3.952 --     1 C    1.565    11 C    1.125     3 C    1.018
     3   6 C    3.920 --     4 O    1.740     5 C    1.031     2 C    1.018
     4   8 O    2.029 --     3 C    1.740
     5   6 C    3.971 --     6 C    1.376    10 C    1.300     3 C    1.031
     6   6 C    3.979 --     7 C    1.442     5 C    1.376    58 H    0.962
     7   6 C    3.952 --     6 C    1.442     8 C    1.317    23 C    0.995
     8   6 C    3.963 --     9 C    1.451     7 C    1.317    17 C    0.996
     9   6 C    3.977 --     8 C    1.451    10 C    1.360    59 H    0.959
    10   6 C    3.976 --     9 C    1.360     5 C    1.300    11 C    1.097
    11   6 C    3.971 --    12 C    1.478     2 C    1.125    10 C    1.097
    12   6 C    3.951 --    11 C    1.478    15 C    1.101    13 C    1.099
    13   6 C    3.942 --    14 N    2.753    12 C    1.099
    14   7 N    2.960 --    13 C    2.753
    15   6 C    3.941 --    16 N    2.754    12 C    1.101
    16   7 N    2.961 --    15 C    2.754
    17   6 C    3.982 --     8 C    0.996    23 C    0.974    60 H    0.959
                            18 C    0.949
    18   6 C    3.988 --    19 C    1.004    22 C    0.989    61 H    0.970
                            17 C    0.949
    19   6 C    3.980 --    20 C    1.923    18 C    1.004    62 H    0.970
    20   6 C    3.980 --    19 C    1.923    21 C    1.004    63 H    0.970
    21   6 C    3.987 --    20 C    1.004    22 C    0.989    64 H    0.970
                            23 C    0.949
    22   6 C    3.993 --    18 C    0.989    21 C    0.989    65 H    0.978
                            66 H    0.974
    23   6 C    3.981 --     7 C    0.995    17 C    0.974    67 H    0.958
                            21 C    0.949
    24   6 C    3.922 --    25 C    1.408     1 C    1.229    36 S    1.120
    25   6 C    3.962 --    24 C    1.408    26 C    1.383    68 H    0.951
    26   6 C    3.955 --    25 C    1.383    35 C    1.360    27 C    0.988
    27   6 C    3.985 --    28 N    1.013    26 C    0.988    32 C    0.951
                            69 H    0.920
    28   7 N    3.076 --    29 C    1.866    27 C    1.013
    29   6 C    3.963 --    28 N    1.866    30 C    1.044    70 H    0.953
    30   6 C    3.963 --    31 N    1.865    29 C    1.044    71 H    0.952
    31   7 N    3.073 --    30 C    1.865    32 C    1.010
    32   6 C    3.984 --    31 N    1.010    33 C    0.989    27 C    0.951
                            72 H    0.920
    33   6 C    3.958 --    39 C    1.442    34 C    1.319    32 C    0.989
    34   6 C    3.942 --    33 C    1.319    35 C    1.207    37 S    1.205
    35   6 C    3.936 --    26 C    1.360    34 C    1.207    36 S    1.170
    36  16 S    2.614 --    35 C    1.170    24 C    1.120
    37  16 S    2.786 --    34 C    1.205    38 C    1.117    43 O    0.130
    38   6 C    3.931 --    39 C    1.335    40 C    1.312    37 S    1.117
    39   6 C    3.963 --    33 C    1.442    38 C    1.335    73 H    0.955
    40   6 C    3.946 --    41 C    1.482    38 C    1.312    74 H    0.937
    41   6 C    3.953 --    40 C    1.482    51 C    1.143    42 C    1.073
    42   6 C    3.912 --    43 O    1.691    41 C    1.073    44 C    1.021
    43   8 O    2.094 --    42 C    1.691    37 S    0.130
    44   6 C    3.976 --    45 C    1.424    50 C    1.294    42 C    1.021
    45   6 C    3.976 --    44 C    1.424    46 C    1.378    75 H    0.959
    46   6 C    3.861 --    48 C    1.393    45 C    1.378    47 F    0.954
    47   9 F    1.079 --    46 C    0.954
    48   6 C    3.972 --    49 C    1.432    46 C    1.393    76 H    0.960
    49   6 C    3.972 --    48 C    1.432    50 C    1.401    77 H    0.958
    50   6 C    3.979 --    49 C    1.401    44 C    1.294    51 C    1.083
    51   6 C    3.969 --    52 C    1.480    41 C    1.143    50 C    1.083
    52   6 C    3.943 --    51 C    1.480    53 C    1.099    55 C    1.098
    53   6 C    3.942 --    54 N    2.746    52 C    1.099
    54   7 N    2.957 --    53 C    2.746
    55   6 C    3.941 --    56 N    2.755    52 C    1.098
    56   7 N    2.960 --    55 C    2.755
    57   1 H    0.992 --     1 C    0.945
    58   1 H    0.994 --     6 C    0.962
    59   1 H    0.996 --     9 C    0.959
    60   1 H    0.995 --    17 C    0.959
    61   1 H    0.998 --    18 C    0.970
    62   1 H    0.998 --    19 C    0.970
    63   1 H    0.998 --    20 C    0.970
    64   1 H    0.998 --    21 C    0.970
    65   1 H    0.998 --    22 C    0.978
    66   1 H    0.999 --    22 C    0.974
    67   1 H    0.994 --    23 C    0.958
    68   1 H    0.990 --    25 C    0.951
    69   1 H    0.993 --    27 C    0.920
    70   1 H    0.993 --    29 C    0.953
    71   1 H    0.993 --    30 C    0.952
    72   1 H    0.993 --    32 C    0.920
    73   1 H    0.990 --    39 C    0.955
    74   1 H    0.992 --    40 C    0.937
    75   1 H    0.990 --    45 C    0.959
    76   1 H    0.990 --    48 C    0.960
    77   1 H    0.993 --    49 C    0.958
 ---------------------------------------------------------------------------

Topologies differ in bond orders
Writing corrected topology to xtbtopo.mol

molecular dipole:
                 x           y           z       tot (Debye)
 q only:       -1.973       0.226      -2.896
   full:       -2.039       0.334      -3.111       9.493
molecular quadrupole (traceless):
                xx          xy          yy          xz          yz          zz
 q only:       15.763     -25.782     -49.630       6.681      36.867      33.867
  q+dip:       20.898     -39.627     -60.393       7.534      36.074      39.495
   full:       23.115     -40.569     -68.355      -0.343      36.106      45.240


           -------------------------------------------------
          | TOTAL ENERGY             -143.747915604974 Eh   |
          | GRADIENT NORM               0.028765243129 Eh/α |
          | HOMO-LUMO GAP               0.795657483948 eV   |
           -------------------------------------------------

------------------------------------------------------------------------
 * finished run on 2022/02/11 at 01:31:12.948     
------------------------------------------------------------------------
 total:
 * wall-time:     0 d,  0 h,  0 min,  0.190 sec
 *  cpu-time:     0 d,  0 h,  0 min,  1.432 sec
 * ratio c/w:     7.557 speedup
 SCF:
 * wall-time:     0 d,  0 h,  0 min,  0.147 sec
 *  cpu-time:     0 d,  0 h,  0 min,  1.154 sec
 * ratio c/w:     7.864 speedup

