      -----------------------------------------------------------      
     |                   =====================                   |     
     |                           x T B                           |     
     |                   =====================                   |     
     |                         S. Grimme                         |     
     |          Mulliken Center for Theoretical Chemistry        |     
     |                    University of Bonn                     |     
      -----------------------------------------------------------      

   * xtb version 6.4.1 (unknown) compiled by 'oda6@login1.crc.pitt.edu' on 2021-06-25

   xtb is free software: you can redistribute it and/or modify it under
   the terms of the GNU Lesser General Public License as published by
   the Free Software Foundation, either version 3 of the License, or
   (at your option) any later version.
   
   xtb is distributed in the hope that it will be useful,
   but WITHOUT ANY WARRANTY; without even the implied warranty of
   MERCHANTABILITY or FITNESS FOR A PARTICULAR PURPOSE.  See the
   GNU Lesser General Public License for more details.
   
   Cite this work as:
   * C. Bannwarth, E. Caldeweyher, S. Ehlert, A. Hansen, P. Pracht,
     J. Seibert, S. Spicher, S. Grimme, WIREs Comput. Mol. Sci., 2020, 11,
     e01493. DOI: 10.1002/wcms.1493
   
   for GFN2-xTB:
   * C. Bannwarth, S. Ehlert and S. Grimme., J. Chem. Theory Comput., 2019,
     15, 1652-1671. DOI: 10.1021/acs.jctc.8b01176
   for GFN1-xTB:
   * S. Grimme, C. Bannwarth, P. Shushkov, J. Chem. Theory Comput., 2017,
     13, 1989-2009. DOI: 10.1021/acs.jctc.7b00118
   for GFN0-xTB:
   * P. Pracht, E. Caldeweyher, S. Ehlert, S. Grimme, ChemRxiv, 2019, preprint.
     DOI: 10.26434/chemrxiv.8326202.v1
   for GFN-FF:
   * S. Spicher and S. Grimme, Angew. Chem. Int. Ed., 2020, 59, 15665-15673.
     DOI: 10.1002/anie.202004239
   
   for DFT-D4:
   * E. Caldeweyher, C. Bannwarth and S. Grimme, J. Chem. Phys., 2017,
     147, 034112. DOI: 10.1063/1.4993215
   * E. Caldeweyher, S. Ehlert, A. Hansen, H. Neugebauer, S. Spicher,
     C. Bannwarth and S. Grimme, J. Chem. Phys., 2019, 150, 154122.
     DOI: 10.1063/1.5090222
   * E. Caldeweyher, J.-M. Mewes, S. Ehlert and S. Grimme, Phys. Chem. Chem. Phys.
     2020, 22, 8499-8512. DOI: 10.1039/D0CP00502A
   
   for sTDA-xTB:
   * S. Grimme and C. Bannwarth, J. Chem. Phys., 2016, 145, 054103.
     DOI: 10.1063/1.4959605
   
   in the mass-spec context:
   * V. Asgeirsson, C. Bauer and S. Grimme, Chem. Sci., 2017, 8, 4879.
     DOI: 10.1039/c7sc00601b
   * J. Koopman and S. Grimme, ACS Omega 2019, 4, 12, 15120-15133.
     DOI: 10.1021/acsomega.9b02011
   
   for metadynamics refer to:
   * S. Grimme, J. Chem. Theory Comput., 2019, 155, 2847-2862
     DOI: 10.1021/acs.jctc.9b00143
   
   for SPH calculations refer to:
   * S. Spicher and S. Grimme, J. Chem. Theory Comput., 2021, 17, 1701-1714
     DOI: 10.1021/acs.jctc.0c01306
   
   with help from (in alphabetical order)
   P. Atkinson, C. Bannwarth, F. Bohle, G. Brandenburg, E. Caldeweyher
   M. Checinski, S. Dohm, S. Ehlert, S. Ehrlich, I. Gerasimov, J. Koopman
   C. Lavigne, S. Lehtola, F. März, M. Müller, F. Musil, H. Neugebauer
   J. Pisarek, C. Plett, P. Pracht, J. Seibert, P. Shushkov, S. Spicher
   M. Stahn, M. Steiner, T. Strunk, J. Stückrath, T. Rose, and J. Unsleber
   
 * started run on 2022/02/03 at 00:38:47.928     

           -------------------------------------------------
          |                Calculation Setup                |
           -------------------------------------------------

          program call               : /ihome/ghutchison/oda6/xtb/xtb-641/bin/xtb ../../GFN2_output/39_34_52.mol --sp --alpb water
          hostname                   : smp-n39
          coordinate file            : ../../GFN2_output/39_34_52.mol
          omp threads                :                     8
          number of atoms            :                   115
          number of electrons        :                   378
          charge                     :                     0
          spin                       :                   0.0
          first test random number   :      0.13373681594042

   ID    Z sym.   atoms
    1    6 C      1-3, 5-13, 15, 17-25, 27-29, 31-34, 38, 39, 41, 42, 44-46,
                  48, 49, 51, 52, 54, 55, 57-62, 64-66, 68, 71-77
    2    8 O      4, 26, 43, 78
    3    7 N      14, 16, 35, 37, 50, 53, 67, 69, 70
    4   16 S      30, 36, 40, 47, 56, 63
    5    1 H      79-115

           -------------------------------------------------
          |                 G F N 2 - x T B                 |
           -------------------------------------------------

        Reference                      10.1021/acs.jctc.8b01176
      * Hamiltonian:
        H0-scaling (s, p, d)           1.850000    2.230000    2.230000
        zeta-weighting                 0.500000
      * Dispersion:
        s8                             2.700000
        a1                             0.520000
        a2                             5.000000
        s9                             5.000000
      * Repulsion:
        kExp                           1.500000    1.000000
        rExp                           1.000000
      * Coulomb:
        alpha                          2.000000
        third order                    shell-resolved
        anisotropic                    true
        a3                             3.000000
        a5                             4.000000
        cn-shift                       1.200000
        cn-exp                         4.000000
        max-rad                        5.000000

      * Solvation model:               ALPB
        Solvent                        water
        Parameter file                 internal GFN2-xTB/ALPB
        Dielectric constant                8.0200E+01
        Reference state                gsolv [1 M gas/solution]
        Free energy shift                  1.0808E-03 Eh       6.7819E-01 kcal/mol
        Temperature                        2.9815E+02 K
        Density                            1.0000E+00 kg/L
        Solvent mass                       1.8000E+01 g/mol
        Interaction kernel             P16
        Born radius scaling (c1)           1.4744E+00
        Born radii integrator          GBOBC
        Born offset                        0.0000E+00 a0       0.0000E+00 AA
        H-bond correction              true
        Ion screening                  false
        Surface tension                    1.0000E-05 Eh       1.5569E+01 dyn/cm
        Grid points                               230 per atom

          ...................................................
          :                      SETUP                      :
          :.................................................:
          :  # basis functions                 385          :
          :  # atomic orbitals                 379          :
          :  # shells                          199          :
          :  # electrons                       378          :
          :  max. iterations                   250          :
          :  Hamiltonian                  GFN2-xTB          :
          :  restarted?                      false          :
          :  GBSA solvation                   true          :
          :  PC potential                    false          :
          :  electronic temp.          300.0000000     K    :
          :  accuracy                    1.0000000          :
          :  -> integral cutoff          0.2500000E+02      :
          :  -> integral neglect         0.1000000E-07      :
          :  -> SCF convergence          0.1000000E-05 Eh   :
          :  -> wf. convergence          0.1000000E-03 e    :
          :  Broyden damping             0.4000000          :
          ...................................................

 iter      E             dE          RMSdq      gap      omega  full diag
   1   -210.0296429 -0.210030E+03  0.482E+00    1.30       0.0  T
   2   -210.2711760 -0.241533E+00  0.290E+00    1.04       1.0  T
   3   -210.2293980  0.417780E-01  0.152E+00    1.09       1.0  T
   4   -210.3478842 -0.118486E+00  0.519E-01    1.06       1.0  T
   5   -210.3634995 -0.156153E-01  0.182E-01    1.01       1.0  T
   6   -210.3648522 -0.135264E-02  0.924E-02    1.05       1.0  T
   7   -210.3651563 -0.304102E-03  0.339E-02    1.04       1.0  T
   8   -210.3651789 -0.226030E-04  0.182E-02    1.04       1.0  T
   9   -210.3651876 -0.872668E-05  0.942E-03    1.04       1.0  T
  10   -210.3651897 -0.206575E-05  0.492E-03    1.04       1.9  T
  11   -210.3651906 -0.922009E-06  0.236E-03    1.04       3.9  T
  12   -210.3651907 -0.100202E-06  0.117E-03    1.04       8.0  T
  13   -210.3651907 -0.327522E-07  0.501E-04    1.04      18.6  T
  14   -210.3651907 -0.681490E-08  0.251E-04    1.04      37.2  T

   *** convergence criteria satisfied after 14 iterations ***

         #    Occupation            Energy/Eh            Energy/eV
      -------------------------------------------------------------
         1        2.0000           -0.7666605             -20.8619
       ...           ...                  ...                  ...
       183        2.0000           -0.4054223             -11.0321
       184        2.0000           -0.4024317             -10.9507
       185        2.0000           -0.3898686             -10.6089
       186        2.0000           -0.3875363             -10.5454
       187        2.0000           -0.3858186             -10.4987
       188        2.0000           -0.3791302             -10.3167
       189        2.0000           -0.3712461             -10.1021 (HOMO)
       190                         -0.3329522              -9.0601 (LUMO)
       191                         -0.3229740              -8.7886
       192                         -0.3181247              -8.6566
       193                         -0.3035432              -8.2598
       194                         -0.2867882              -7.8039
       ...                                ...                  ...
       379                          1.1558434              31.4521
      -------------------------------------------------------------
                  HL-Gap            0.0382939 Eh            1.0420 eV
             Fermi-level           -0.3520991 Eh           -9.5811 eV

 SCC (total)                   0 d,  0 h,  0 min,  1.391 sec
 SCC setup                      ...        0 min,  0.003 sec (  0.210%)
 Dispersion                     ...        0 min,  0.005 sec (  0.375%)
 classical contributions        ...        0 min,  0.000 sec (  0.016%)
 integral evaluation            ...        0 min,  0.021 sec (  1.511%)
 iterations                     ...        0 min,  1.312 sec ( 94.267%)
 molecular gradient             ...        0 min,  0.049 sec (  3.501%)
 printout                       ...        0 min,  0.002 sec (  0.114%)

         :::::::::::::::::::::::::::::::::::::::::::::::::::::
         ::                     SUMMARY                     ::
         :::::::::::::::::::::::::::::::::::::::::::::::::::::
         :: total energy            -207.235387477367 Eh    ::
         :: total w/o Gsasa/hb      -207.217092889779 Eh    ::
         :: gradient norm              0.041307462457 Eh/a0 ::
         :: HOMO-LUMO gap              1.042029763892 eV    ::
         ::.................................................::
         :: SCC energy              -210.365190730209 Eh    ::
         :: -> isotropic ES            0.192002409916 Eh    ::
         :: -> anisotropic ES          0.006015273447 Eh    ::
         :: -> anisotropic XC          0.127015756573 Eh    ::
         :: -> dispersion             -0.187530055280 Eh    ::
         :: -> Gsolv                  -0.058834452310 Eh    ::
         ::    -> Gelec               -0.040539864722 Eh    ::
         ::    -> Gsasa               -0.013205813734 Eh    ::
         ::    -> Ghb                 -0.006169533553 Eh    ::
         ::    -> Gshift               0.001080759698 Eh    ::
         :: repulsion energy           3.129781635522 Eh    ::
         :: add. restraining           0.000000000000 Eh    ::
         :: total charge               0.000000000001 e     ::
         :::::::::::::::::::::::::::::::::::::::::::::::::::::

           -------------------------------------------------
          |                Property Printout                |
           -------------------------------------------------

    * Orbital Energies and Occupations

         #    Occupation            Energy/Eh            Energy/eV
      -------------------------------------------------------------
         1        2.0000           -0.7666605             -20.8619
       ...           ...                  ...                  ...
       177        2.0000           -0.4211818             -11.4609
       178        2.0000           -0.4199813             -11.4283
       179        2.0000           -0.4179686             -11.3735
       180        2.0000           -0.4157863             -11.3141
       181        2.0000           -0.4141850             -11.2705
       182        2.0000           -0.4080435             -11.1034
       183        2.0000           -0.4054223             -11.0321
       184        2.0000           -0.4024317             -10.9507
       185        2.0000           -0.3898686             -10.6089
       186        2.0000           -0.3875363             -10.5454
       187        2.0000           -0.3858186             -10.4987
       188        2.0000           -0.3791302             -10.3167
       189        2.0000           -0.3712461             -10.1021 (HOMO)
       190                         -0.3329522              -9.0601 (LUMO)
       191                         -0.3229740              -8.7886
       192                         -0.3181247              -8.6566
       193                         -0.3035432              -8.2598
       194                         -0.2867882              -7.8039
       195                         -0.2734611              -7.4413
       196                         -0.2622647              -7.1366
       197                         -0.2572678              -7.0006
       198                         -0.2511216              -6.8334
       199                         -0.2494411              -6.7876
       200                         -0.2424016              -6.5961
       ...                                ...                  ...
       379                          1.1558434              31.4521
      -------------------------------------------------------------
                  HL-Gap            0.0382939 Eh            1.0420 eV
             Fermi-level           -0.3520991 Eh           -9.5811 eV

     #   Z          covCN         q      C6AA      α(0)
     1   6 C        2.928    -0.009    28.250     8.716
     2   6 C        3.010    -0.040    28.965     8.828
     3   6 C        2.872     0.232    23.143     7.886
     4   8 O        0.856    -0.434    22.382     6.343
     5   6 C        3.059    -0.023    28.510     8.756
     6   6 C        2.904    -0.024    28.609     8.770
     7   6 C        3.258     0.016    26.533     8.326
     8   6 C        3.257     0.017    26.505     8.323
     9   6 C        2.904    -0.032    28.805     8.800
    10   6 C        3.052     0.007    27.818     8.650
    11   6 C        3.022     0.042    27.040     8.530
    12   6 C        2.948     0.002    27.986     8.677
    13   6 C        1.937     0.133    27.834     8.520
    14   7 N        0.911    -0.295    27.602     7.599
    15   6 C        1.932     0.134    27.819     8.518
    16   7 N        0.911    -0.279    27.192     7.542
    17   6 C        4.162    -0.025    20.935     6.498
    18   6 C        4.013    -0.016    20.788     6.477
    19   6 C        2.995    -0.044    29.073     8.845
    20   6 C        2.995    -0.044    29.083     8.846
    21   6 C        4.013    -0.016    20.783     6.476
    22   6 C        3.915    -0.062    21.630     6.610
    23   6 C        4.161    -0.025    20.933     6.498
    24   6 C        2.986    -0.010    28.268     8.721
    25   6 C        2.998     0.144    24.855     8.178
    26   8 O        1.703    -0.301    19.014     5.887
    27   6 C        3.692     0.076    19.476     6.315
    28   6 C        3.750    -0.128    23.029     6.844
    29   6 C        3.187    -0.007    27.717     8.589
    30  16 S        2.175    -0.010   141.455    20.018
    31   6 C        3.102     0.005    27.779     8.637
    32   6 C        3.084    -0.038    28.839     8.803
    33   6 C        3.340     0.069    24.035     7.753
    34   6 C        3.340     0.069    24.035     7.752
    35   7 N        1.854    -0.296    28.514     7.914
    36  16 S        2.686     0.313   128.956    19.113
    37   7 N        1.854    -0.299    28.607     7.927
    38   6 C        3.083    -0.037    28.829     8.802
    39   6 C        3.098     0.006    27.767     8.636
    40  16 S        2.175    -0.032   142.397    20.084
    41   6 C        3.148    -0.014    28.093     8.670
    42   6 C        2.992     0.146    24.824     8.173
    43   8 O        1.704    -0.256    18.238     5.766
    44   6 C        3.692     0.064    19.676     6.347
    45   6 C        3.750    -0.132    23.092     6.853
    46   6 C        2.986    -0.005    28.131     8.700
    47  16 S        2.283    -0.005   141.254    20.003
    48   6 C        3.119     0.006    27.726     8.624
    49   6 C        3.259     0.032    26.160     8.265
    50   7 N        2.797    -0.015    21.532     6.892
    51   6 C        3.081     0.036    27.115     8.537
    52   6 C        3.078     0.035    27.128     8.539
    53   7 N        2.797    -0.011    21.470     6.882
    54   6 C        3.250     0.032    26.260     8.295
    55   6 C        3.119     0.014    27.528     8.593
    56  16 S        2.260    -0.032   142.389    20.084
    57   6 C        3.742    -0.009    20.818     6.509
    58   6 C        3.752    -0.134    23.144     6.861
    59   6 C        3.745    -0.019    20.984     6.535
    60   6 C        3.752    -0.122    22.905     6.825
    61   6 C        2.964    -0.018    28.459     8.750
    62   6 C        2.959    -0.019    28.489     8.755
    63  16 S        2.243    -0.037   142.574    20.097
    64   6 C        2.933     0.114    25.496     8.281
    65   6 C        2.989    -0.036    28.882     8.816
    66   6 C        1.930     0.126    27.993     8.544
    67   7 N        0.911    -0.290    27.483     7.582
    68   6 C        1.920     0.125    28.025     8.549
    69   7 N        0.911    -0.298    27.662     7.607
    70   7 N        2.860    -0.060    22.404     7.030
    71   6 C        2.926     0.065    26.542     8.449
    72   6 C        2.921    -0.037    28.914     8.818
    73   6 C        2.922    -0.027    28.673     8.781
    74   6 C        2.920    -0.027    28.684     8.783
    75   6 C        2.923    -0.027    28.680     8.782
    76   6 C        2.921    -0.033    28.820     8.804
    77   6 C        2.891     0.273    22.398     7.759
    78   8 O        0.937    -0.446    22.586     6.374
    79   1 H        0.925     0.074     2.046     2.237
    80   1 H        0.926     0.065     2.140     2.287
    81   1 H        0.926     0.061     2.183     2.310
    82   1 H        0.925     0.058     2.217     2.328
    83   1 H        0.925     0.044     2.392     2.419
    84   1 H        0.926     0.045     2.380     2.413
    85   1 H        0.926     0.044     2.391     2.418
    86   1 H        0.925     0.043     2.412     2.428
    87   1 H        0.925     0.033     2.543     2.494
    88   1 H        0.925     0.045     2.388     2.417
    89   1 H        0.925     0.057     2.233     2.337
    90   1 H        0.924     0.076     2.021     2.223
    91   1 H        0.924     0.034     2.527     2.486
    92   1 H        0.925     0.057     2.233     2.337
    93   1 H        0.925     0.062     2.177     2.307
    94   1 H        0.925     0.064     2.149     2.293
    95   1 H        0.924     0.084     1.938     2.177
    96   1 H        0.924     0.062     2.173     2.306
    97   1 H        0.925     0.064     2.155     2.296
    98   1 H        0.925     0.072     2.065     2.247
    99   1 H        0.925     0.054     2.267     2.354
   100   1 H        0.924     0.083     1.952     2.185
   101   1 H        0.924     0.068     2.105     2.269
   102   1 H        0.925     0.073     2.049     2.239
   103   1 H        0.925     0.072     2.065     2.247
   104   1 H        0.925     0.059     2.211     2.325
   105   1 H        0.924     0.085     1.926     2.170
   106   1 H        0.925     0.093     1.848     2.126
   107   1 H        0.925     0.054     2.273     2.358
   108   1 H        0.925     0.071     2.075     2.253
   109   1 H        0.925     0.049     2.337     2.391
   110   1 H        0.925     0.098     1.804     2.100
   111   1 H        0.926     0.044     2.400     2.423
   112   1 H        0.926     0.065     2.145     2.290
   113   1 H        0.926     0.069     2.092     2.262
   114   1 H        0.926     0.069     2.099     2.266
   115   1 H        0.926     0.053     2.278     2.360

 Mol. C6AA /au·bohr⁶  :     239375.594175
 Mol. C8AA /au·bohr⁸  :    6735804.074946
 Mol. α(0) /au        :        774.899325


Wiberg/Mayer (AO) data.
largest (>0.10) Wiberg bond orders for each atom

 ---------------------------------------------------------------------------
     #   Z sym  total        # sym  WBO       # sym  WBO       # sym  WBO
 ---------------------------------------------------------------------------
     1   6 C    3.944 --     2 C    1.544    24 C    1.249    79 H    0.944
     2   6 C    3.956 --     1 C    1.544    11 C    1.137     3 C    1.019
     3   6 C    3.910 --     4 O    1.730     5 C    1.030     2 C    1.019
     4   8 O    2.004 --     3 C    1.730
     5   6 C    3.968 --     6 C    1.378    10 C    1.300     3 C    1.030
     6   6 C    3.979 --     7 C    1.441     5 C    1.378    80 H    0.963
     7   6 C    3.952 --     6 C    1.441     8 C    1.319    23 C    0.995
     8   6 C    3.963 --     9 C    1.448     7 C    1.319    17 C    0.995
     9   6 C    3.976 --     8 C    1.448    10 C    1.365    81 H    0.959
    10   6 C    3.976 --     9 C    1.365     5 C    1.300    11 C    1.089
    11   6 C    3.967 --    12 C    1.459     2 C    1.137    10 C    1.089
    12   6 C    3.964 --    11 C    1.459    15 C    1.106    13 C    1.106
    13   6 C    3.942 --    14 N    2.741    12 C    1.106
    14   7 N    2.965 --    13 C    2.741
    15   6 C    3.942 --    16 N    2.751    12 C    1.106
    16   7 N    2.958 --    15 C    2.751
    17   6 C    3.982 --     8 C    0.995    23 C    0.974    82 H    0.959
                            18 C    0.949
    18   6 C    3.988 --    19 C    1.004    22 C    0.989    83 H    0.970
                            17 C    0.949
    19   6 C    3.980 --    20 C    1.923    18 C    1.004    84 H    0.970
    20   6 C    3.980 --    19 C    1.923    21 C    1.004    85 H    0.970
    21   6 C    3.987 --    20 C    1.004    22 C    0.989    86 H    0.970
                            23 C    0.949
    22   6 C    3.994 --    18 C    0.989    21 C    0.989    88 H    0.978
                            87 H    0.974
    23   6 C    3.981 --     7 C    0.995    17 C    0.974    89 H    0.959
                            21 C    0.949
    24   6 C    3.922 --    25 C    1.360     1 C    1.249    56 S    1.072
    25   6 C    3.927 --    24 C    1.360    29 C    1.278    26 O    1.068
    26   8 O    2.173 --    25 C    1.068    27 C    0.922
    27   6 C    3.919 --    28 C    1.014    90 H    0.969    91 H    0.968
                            26 O    0.922
    28   6 C    3.988 --    27 C    1.014    93 H    0.984    94 H    0.980
                            92 H    0.979
    29   6 C    3.929 --    55 C    1.327    25 C    1.278    30 S    1.094
    30  16 S    2.527 --    31 C    1.120    29 C    1.094
    31   6 C    3.919 --    54 C    1.294    32 C    1.275    30 S    1.120
    32   6 C    3.955 --    31 C    1.275    52 C    1.266    33 C    1.173
    33   6 C    3.971 --    37 N    1.425    32 C    1.173    34 C    1.164
                            36 S    0.105
    34   6 C    3.971 --    35 N    1.425    38 C    1.173    33 C    1.164
                            36 S    0.106
    35   7 N    3.060 --    34 C    1.425    36 S    1.382    37 N    0.145
    36  16 S    3.096 --    37 N    1.382    35 N    1.382    34 C    0.106
                            33 C    0.105
    37   7 N    3.060 --    33 C    1.425    36 S    1.382    35 N    0.145
    38   6 C    3.954 --    39 C    1.275    51 C    1.268    34 C    1.173
    39   6 C    3.921 --    49 C    1.304    38 C    1.275    40 S    1.109
    40  16 S    2.517 --    39 C    1.109    41 C    1.076
    41   6 C    3.926 --    48 C    1.308    42 C    1.303    40 S    1.076
    42   6 C    3.928 --    41 C    1.303    46 C    1.275    43 O    1.120
    43   8 O    2.276 --    42 C    1.120    44 C    0.936
    44   6 C    3.914 --    45 C    1.010    95 H    0.966    96 H    0.959
                            43 O    0.936
    45   6 C    3.984 --    44 C    1.010    97 H    0.984    99 H    0.983
                            98 H    0.980
    46   6 C    3.923 --    61 C    1.325    42 C    1.275    47 S    1.076
    47  16 S    2.682 --    48 C    1.148    46 C    1.076    78 O    0.106
    48   6 C    3.947 --    41 C    1.308    49 C    1.250    47 S    1.148
    49   6 C    3.944 --    39 C    1.304    48 C    1.250    50 N    1.164
    50   7 N    3.564 --    51 C    1.184    49 C    1.164    59 C    0.969
    51   6 C    3.935 --    38 C    1.268    52 C    1.217    50 N    1.184
    52   6 C    3.932 --    32 C    1.266    51 C    1.217    53 N    1.186
    53   7 N    3.572 --    52 C    1.186    54 C    1.166    57 C    0.970
    54   6 C    3.944 --    31 C    1.294    55 C    1.257    53 N    1.166
    55   6 C    3.935 --    29 C    1.327    54 C    1.257    56 S    1.119
    56  16 S    2.550 --    55 C    1.119    24 C    1.072
    57   6 C    3.949 --    58 C    1.007    53 N    0.970   101 H    0.962
                           100 H    0.959
    58   6 C    3.981 --    57 C    1.007   102 H    0.980   104 H    0.979
                           103 H    0.978
    59   6 C    3.945 --    60 C    1.005    50 N    0.969   105 H    0.960
                           106 H    0.951
    60   6 C    3.985 --    59 C    1.005   109 H    0.986   107 H    0.983
                           108 H    0.980
    61   6 C    3.954 --    62 C    1.492    46 C    1.325   110 H    0.944
    62   6 C    3.901 --    61 C    1.492    77 C    1.119    63 S    1.044
    63  16 S    2.506 --    64 C    1.129    62 C    1.044
    64   6 C    3.947 --    65 C    1.398    70 N    1.195    63 S    1.129
    65   6 C    3.930 --    64 C    1.398    68 C    1.118    66 C    1.112
    66   6 C    3.945 --    67 N    2.749    65 C    1.112
    67   7 N    2.971 --    66 C    2.749
    68   6 C    3.946 --    69 N    2.735    65 C    1.118
    69   7 N    2.972 --    68 C    2.735
    70   7 N    3.588 --    64 C    1.195    77 C    1.094    71 C    0.960
                            78 O    0.115
    71   6 C    3.945 --    76 C    1.404    72 C    1.397    70 N    0.960
                            74 C    0.106
    72   6 C    3.988 --    73 C    1.443    71 C    1.397   111 H    0.968
                            75 C    0.112
    73   6 C    3.988 --    72 C    1.443    74 C    1.437   112 H    0.967
                            76 C    0.111
    74   6 C    3.987 --    75 C    1.441    73 C    1.437   113 H    0.967
                            71 C    0.106
    75   6 C    3.987 --    74 C    1.441    76 C    1.438   114 H    0.967
                            72 C    0.112
    76   6 C    3.988 --    75 C    1.438    71 C    1.404   115 H    0.968
                            73 C    0.111
    77   6 C    3.937 --    78 O    1.587    62 C    1.119    70 N    1.094
    78   8 O    2.031 --    77 C    1.587    70 N    0.115    47 S    0.106
    79   1 H    0.992 --     1 C    0.944
    80   1 H    0.995 --     6 C    0.963
    81   1 H    0.996 --     9 C    0.959
    82   1 H    0.995 --    17 C    0.959
    83   1 H    0.998 --    18 C    0.970
    84   1 H    0.998 --    19 C    0.970
    85   1 H    0.998 --    20 C    0.970
    86   1 H    0.998 --    21 C    0.970
    87   1 H    0.999 --    22 C    0.974
    88   1 H    0.998 --    22 C    0.978
    89   1 H    0.994 --    23 C    0.959
    90   1 H    0.993 --    27 C    0.969
    91   1 H    0.999 --    27 C    0.968
    92   1 H    0.997 --    28 C    0.979
    93   1 H    0.996 --    28 C    0.984
    94   1 H    0.995 --    28 C    0.980
    95   1 H    0.992 --    44 C    0.966
    96   1 H    0.995 --    44 C    0.959
    97   1 H    0.996 --    45 C    0.984
    98   1 H    0.994 --    45 C    0.980
    99   1 H    0.997 --    45 C    0.983
   100   1 H    0.992 --    57 C    0.959
   101   1 H    0.992 --    57 C    0.962
   102   1 H    0.994 --    58 C    0.980
   103   1 H    0.995 --    58 C    0.978
   104   1 H    0.996 --    58 C    0.979
   105   1 H    0.992 --    59 C    0.960
   106   1 H    0.989 --    59 C    0.951
   107   1 H    0.997 --    60 C    0.983
   108   1 H    0.994 --    60 C    0.980
   109   1 H    0.998 --    60 C    0.986
   110   1 H    0.989 --    61 C    0.944
   111   1 H    0.998 --    72 C    0.968
   112   1 H    0.995 --    73 C    0.967
   113   1 H    0.995 --    74 C    0.967
   114   1 H    0.994 --    75 C    0.967
   115   1 H    0.997 --    76 C    0.968
 ---------------------------------------------------------------------------

Topologies differ in bond orders
Writing corrected topology to xtbtopo.mol

molecular dipole:
                 x           y           z       tot (Debye)
 q only:        1.187      -0.722       1.618
   full:        1.410      -1.280       2.044       7.101
molecular quadrupole (traceless):
                xx          xy          yy          xz          yz          zz
 q only:      160.116      11.416       8.653     -10.106      98.058    -168.770
  q+dip:      153.793       5.141      17.494       1.526     100.511    -171.287
   full:      146.588       5.072      19.969       0.824     106.414    -166.557


           -------------------------------------------------
          | TOTAL ENERGY             -207.235387477367 Eh   |
          | GRADIENT NORM               0.041307462457 Eh/α |
          | HOMO-LUMO GAP               1.042029763892 eV   |
           -------------------------------------------------

------------------------------------------------------------------------
 * finished run on 2022/02/03 at 00:38:49.395     
------------------------------------------------------------------------
 total:
 * wall-time:     0 d,  0 h,  0 min,  1.467 sec
 *  cpu-time:     0 d,  0 h,  0 min,  8.772 sec
 * ratio c/w:     5.981 speedup
 SCF:
 * wall-time:     0 d,  0 h,  0 min,  1.394 sec
 *  cpu-time:     0 d,  0 h,  0 min,  8.360 sec
 * ratio c/w:     5.999 speedup

