      -----------------------------------------------------------      
     |                   =====================                   |     
     |                           x T B                           |     
     |                   =====================                   |     
     |                         S. Grimme                         |     
     |          Mulliken Center for Theoretical Chemistry        |     
     |                    University of Bonn                     |     
      -----------------------------------------------------------      

   * xtb version 6.4.1 (unknown) compiled by 'oda6@login1.crc.pitt.edu' on 2021-06-25

   xtb is free software: you can redistribute it and/or modify it under
   the terms of the GNU Lesser General Public License as published by
   the Free Software Foundation, either version 3 of the License, or
   (at your option) any later version.
   
   xtb is distributed in the hope that it will be useful,
   but WITHOUT ANY WARRANTY; without even the implied warranty of
   MERCHANTABILITY or FITNESS FOR A PARTICULAR PURPOSE.  See the
   GNU Lesser General Public License for more details.
   
   Cite this work as:
   * C. Bannwarth, E. Caldeweyher, S. Ehlert, A. Hansen, P. Pracht,
     J. Seibert, S. Spicher, S. Grimme, WIREs Comput. Mol. Sci., 2020, 11,
     e01493. DOI: 10.1002/wcms.1493
   
   for GFN2-xTB:
   * C. Bannwarth, S. Ehlert and S. Grimme., J. Chem. Theory Comput., 2019,
     15, 1652-1671. DOI: 10.1021/acs.jctc.8b01176
   for GFN1-xTB:
   * S. Grimme, C. Bannwarth, P. Shushkov, J. Chem. Theory Comput., 2017,
     13, 1989-2009. DOI: 10.1021/acs.jctc.7b00118
   for GFN0-xTB:
   * P. Pracht, E. Caldeweyher, S. Ehlert, S. Grimme, ChemRxiv, 2019, preprint.
     DOI: 10.26434/chemrxiv.8326202.v1
   for GFN-FF:
   * S. Spicher and S. Grimme, Angew. Chem. Int. Ed., 2020, 59, 15665-15673.
     DOI: 10.1002/anie.202004239
   
   for DFT-D4:
   * E. Caldeweyher, C. Bannwarth and S. Grimme, J. Chem. Phys., 2017,
     147, 034112. DOI: 10.1063/1.4993215
   * E. Caldeweyher, S. Ehlert, A. Hansen, H. Neugebauer, S. Spicher,
     C. Bannwarth and S. Grimme, J. Chem. Phys., 2019, 150, 154122.
     DOI: 10.1063/1.5090222
   * E. Caldeweyher, J.-M. Mewes, S. Ehlert and S. Grimme, Phys. Chem. Chem. Phys.
     2020, 22, 8499-8512. DOI: 10.1039/D0CP00502A
   
   for sTDA-xTB:
   * S. Grimme and C. Bannwarth, J. Chem. Phys., 2016, 145, 054103.
     DOI: 10.1063/1.4959605
   
   in the mass-spec context:
   * V. Asgeirsson, C. Bauer and S. Grimme, Chem. Sci., 2017, 8, 4879.
     DOI: 10.1039/c7sc00601b
   * J. Koopman and S. Grimme, ACS Omega 2019, 4, 12, 15120-15133.
     DOI: 10.1021/acsomega.9b02011
   
   for metadynamics refer to:
   * S. Grimme, J. Chem. Theory Comput., 2019, 155, 2847-2862
     DOI: 10.1021/acs.jctc.9b00143
   
   for SPH calculations refer to:
   * S. Spicher and S. Grimme, J. Chem. Theory Comput., 2021, 17, 1701-1714
     DOI: 10.1021/acs.jctc.0c01306
   
   with help from (in alphabetical order)
   P. Atkinson, C. Bannwarth, F. Bohle, G. Brandenburg, E. Caldeweyher
   M. Checinski, S. Dohm, S. Ehlert, S. Ehrlich, I. Gerasimov, J. Koopman
   C. Lavigne, S. Lehtola, F. März, M. Müller, F. Musil, H. Neugebauer
   J. Pisarek, C. Plett, P. Pracht, J. Seibert, P. Shushkov, S. Spicher
   M. Stahn, M. Steiner, T. Strunk, J. Stückrath, T. Rose, and J. Unsleber
   
 * started run on 2022/02/01 at 17:58:19.317     

           -------------------------------------------------
          |                Calculation Setup                |
           -------------------------------------------------

          program call               : /ihome/ghutchison/oda6/xtb/xtb-641/bin/xtb ../../GFN2_output/39_65_62.mol --sp --alpb water
          hostname                   : smp-n98
          coordinate file            : ../../GFN2_output/39_65_62.mol
          omp threads                :                     8
          number of atoms            :                   168
          number of electrons        :                   514
          charge                     :                     0
          spin                       :                   0.0
          first test random number   :      0.14998346927976

   ID    Z sym.   atoms
    1    6 C      1-3, 5-13, 15, 17-24, 26, 27, 29-73, 75-79, 81-85, 88-92,
                  94-98, 100, 102-104, 106
    2    8 O      4, 93
    3    7 N      14, 16, 74, 105, 107
    4   16 S      25, 28, 80, 86, 87
    5   35 Br     99
    6   17 Cl     101
    7    1 H      108-168

           -------------------------------------------------
          |                 G F N 2 - x T B                 |
           -------------------------------------------------

        Reference                      10.1021/acs.jctc.8b01176
      * Hamiltonian:
        H0-scaling (s, p, d)           1.850000    2.230000    2.230000
        zeta-weighting                 0.500000
      * Dispersion:
        s8                             2.700000
        a1                             0.520000
        a2                             5.000000
        s9                             5.000000
      * Repulsion:
        kExp                           1.500000    1.000000
        rExp                           1.000000
      * Coulomb:
        alpha                          2.000000
        third order                    shell-resolved
        anisotropic                    true
        a3                             3.000000
        a5                             4.000000
        cn-shift                       1.200000
        cn-exp                         4.000000
        max-rad                        5.000000

      * Solvation model:               ALPB
        Solvent                        water
        Parameter file                 internal GFN2-xTB/ALPB
        Dielectric constant                8.0200E+01
        Reference state                gsolv [1 M gas/solution]
        Free energy shift                  1.0808E-03 Eh       6.7819E-01 kcal/mol
        Temperature                        2.9815E+02 K
        Density                            1.0000E+00 kg/L
        Solvent mass                       1.8000E+01 g/mol
        Interaction kernel             P16
        Born radius scaling (c1)           1.4744E+00
        Born radii integrator          GBOBC
        Born offset                        0.0000E+00 a0       0.0000E+00 AA
        H-bond correction              true
        Ion screening                  false
        Surface tension                    1.0000E-05 Eh       1.5569E+01 dyn/cm
        Grid points                               230 per atom

          ...................................................
          :                      SETUP                      :
          :.................................................:
          :  # basis functions                 531          :
          :  # atomic orbitals                 524          :
          :  # shells                          282          :
          :  # electrons                       514          :
          :  max. iterations                   250          :
          :  Hamiltonian                  GFN2-xTB          :
          :  restarted?                      false          :
          :  GBSA solvation                   true          :
          :  PC potential                    false          :
          :  electronic temp.          300.0000000     K    :
          :  accuracy                    1.0000000          :
          :  -> integral cutoff          0.2500000E+02      :
          :  -> integral neglect         0.1000000E-07      :
          :  -> SCF convergence          0.1000000E-05 Eh   :
          :  -> wf. convergence          0.1000000E-03 e    :
          :  Broyden damping             0.4000000          :
          ...................................................

 iter      E             dE          RMSdq      gap      omega  full diag
   1   -282.2250601 -0.282225E+03  0.435E+00    0.86       0.0  T
   2   -282.3822989 -0.157239E+00  0.256E+00    0.97       1.0  T
   3   -282.2285270  0.153772E+00  0.137E+00    0.77       1.0  T
   4   -282.4415467 -0.213020E+00  0.401E-01    0.92       1.0  T
   5   -282.4540576 -0.125109E-01  0.157E-01    0.84       1.0  T
   6   -282.4550594 -0.100175E-02  0.945E-02    0.87       1.0  T
   7   -282.4554529 -0.393568E-03  0.552E-02    0.86       1.0  T
   8   -282.4555525 -0.995365E-04  0.425E-02    0.87       1.0  T
   9   -282.4556205 -0.680483E-04  0.313E-02    0.86       1.0  T
  10   -282.4556750 -0.544500E-04  0.179E-02    0.87       1.0  T
  11   -282.4556984 -0.234089E-04  0.906E-03    0.87       1.0  T
  12   -282.4557022 -0.382885E-05  0.430E-03    0.87       1.8  T
  13   -282.4557037 -0.153159E-05  0.195E-03    0.87       4.0  T
  14   -282.4557039 -0.165318E-06  0.109E-03    0.87       7.1  T
  15   -282.4557039 -0.313546E-07  0.689E-04    0.87      11.2  T
  16   -282.4557040 -0.208045E-07  0.422E-04    0.87      18.3  T

   *** convergence criteria satisfied after 16 iterations ***

         #    Occupation            Energy/Eh            Energy/eV
      -------------------------------------------------------------
         1        2.0000           -1.0850728             -29.5263
       ...           ...                  ...                  ...
       251        2.0000           -0.3934731             -10.7069
       252        2.0000           -0.3912823             -10.6473
       253        2.0000           -0.3886347             -10.5753
       254        2.0000           -0.3881933             -10.5633
       255        2.0000           -0.3871741             -10.5355
       256        2.0000           -0.3765289             -10.2459
       257        2.0000           -0.3730033             -10.1499 (HOMO)
       258        0.0000           -0.3411607              -9.2835 (LUMO)
       259                         -0.3320100              -9.0345
       260                         -0.3272632              -8.9053
       261                         -0.3167642              -8.6196
       262                         -0.2890950              -7.8667
       ...                                ...                  ...
       524                          1.1550198              31.4297
      -------------------------------------------------------------
                  HL-Gap            0.0318426 Eh            0.8665 eV
             Fermi-level           -0.3570705 Eh           -9.7164 eV

 SCC (total)                   0 d,  0 h,  0 min,  0.605 sec
 SCC setup                      ...        0 min,  0.005 sec (  0.793%)
 Dispersion                     ...        0 min,  0.008 sec (  1.338%)
 classical contributions        ...        0 min,  0.000 sec (  0.050%)
 integral evaluation            ...        0 min,  0.027 sec (  4.468%)
 iterations                     ...        0 min,  0.473 sec ( 78.290%)
 molecular gradient             ...        0 min,  0.089 sec ( 14.662%)
 printout                       ...        0 min,  0.002 sec (  0.384%)

         :::::::::::::::::::::::::::::::::::::::::::::::::::::
         ::                     SUMMARY                     ::
         :::::::::::::::::::::::::::::::::::::::::::::::::::::
         :: total energy            -277.794560282552 Eh    ::
         :: total w/o Gsasa/hb      -277.772323112057 Eh    ::
         :: gradient norm              0.034775404007 Eh/a0 ::
         :: HOMO-LUMO gap              0.866481364980 eV    ::
         ::.................................................::
         :: SCC energy              -282.455703963678 Eh    ::
         :: -> isotropic ES            0.136651036457 Eh    ::
         :: -> anisotropic ES          0.015349808035 Eh    ::
         :: -> anisotropic XC          0.170016938493 Eh    ::
         :: -> dispersion             -0.277801832435 Eh    ::
         :: -> Gsolv                  -0.049857837230 Eh    ::
         ::    -> Gelec               -0.027620666735 Eh    ::
         ::    -> Gsasa               -0.017663694279 Eh    ::
         ::    -> Ghb                 -0.005654235914 Eh    ::
         ::    -> Gshift               0.001080759698 Eh    ::
         :: repulsion energy           4.656023699966 Eh    ::
         :: add. restraining           0.000000000000 Eh    ::
         :: total charge               0.000000000000 e     ::
         :::::::::::::::::::::::::::::::::::::::::::::::::::::

           -------------------------------------------------
          |                Property Printout                |
           -------------------------------------------------

    * Orbital Energies and Occupations

         #    Occupation            Energy/Eh            Energy/eV
      -------------------------------------------------------------
         1        2.0000           -1.0850728             -29.5263
       ...           ...                  ...                  ...
       245        2.0000           -0.4057647             -11.0414
       246        2.0000           -0.4056573             -11.0385
       247        2.0000           -0.4033744             -10.9764
       248        2.0000           -0.3985124             -10.8441
       249        2.0000           -0.3968237             -10.7981
       250        2.0000           -0.3958936             -10.7728
       251        2.0000           -0.3934731             -10.7069
       252        2.0000           -0.3912823             -10.6473
       253        2.0000           -0.3886347             -10.5753
       254        2.0000           -0.3881933             -10.5633
       255        2.0000           -0.3871741             -10.5355
       256        2.0000           -0.3765289             -10.2459
       257        2.0000           -0.3730033             -10.1499 (HOMO)
       258        0.0000           -0.3411607              -9.2835 (LUMO)
       259                         -0.3320100              -9.0345
       260                         -0.3272632              -8.9053
       261                         -0.3167642              -8.6196
       262                         -0.2890950              -7.8667
       263                         -0.2770853              -7.5399
       264                         -0.2684677              -7.3054
       265                         -0.2590353              -7.0487
       266                         -0.2565584              -6.9813
       267                         -0.2506024              -6.8192
       268                         -0.2473398              -6.7305
       ...                                ...                  ...
       524                          1.1550198              31.4297
      -------------------------------------------------------------
                  HL-Gap            0.0318426 Eh            0.8665 eV
             Fermi-level           -0.3570705 Eh           -9.7164 eV

     #   Z          covCN         q      C6AA      α(0)
     1   6 C        2.924    -0.016    28.414     8.742
     2   6 C        3.010    -0.037    28.910     8.820
     3   6 C        2.874     0.233    23.137     7.885
     4   8 O        0.856    -0.431    22.310     6.333
     5   6 C        3.060    -0.022    28.505     8.755
     6   6 C        2.904    -0.025    28.624     8.772
     7   6 C        3.259     0.015    26.536     8.325
     8   6 C        3.256     0.017    26.533     8.329
     9   6 C        2.904    -0.032    28.801     8.800
    10   6 C        3.052     0.007    27.824     8.651
    11   6 C        3.024     0.042    27.037     8.529
    12   6 C        2.948     0.002    27.974     8.675
    13   6 C        1.933     0.133    27.834     8.520
    14   7 N        0.911    -0.288    27.430     7.575
    15   6 C        1.928     0.133    27.833     8.520
    16   7 N        0.911    -0.281    27.263     7.552
    17   6 C        4.162    -0.025    20.928     6.497
    18   6 C        4.013    -0.016    20.786     6.477
    19   6 C        2.995    -0.044    29.074     8.845
    20   6 C        2.995    -0.044    29.086     8.847
    21   6 C        4.013    -0.016    20.786     6.477
    22   6 C        3.915    -0.062    21.631     6.610
    23   6 C        4.160    -0.025    20.930     6.498
    24   6 C        2.998     0.029    27.342     8.577
    25  16 S        2.237    -0.048   143.040    20.129
    26   6 C        3.091     0.010    27.684     8.624
    27   6 C        3.107    -0.005    27.998     8.669
    28  16 S        2.168    -0.028   142.220    20.072
    29   6 C        3.091     0.020    27.452     8.588
    30   6 C        3.046     0.010    27.749     8.640
    31   6 C        2.908    -0.036    28.884     8.812
    32   6 C        3.079     0.013    27.641     8.619
    33   6 C        3.947     0.014    20.274     6.398
    34   6 C        2.983     0.011    27.774     8.645
    35   6 C        2.921    -0.041    29.015     8.833
    36   6 C        2.926    -0.042    29.045     8.838
    37   6 C        2.971     0.013    27.725     8.637
    38   6 C        3.806    -0.064    21.730     6.636
    39   6 C        3.754    -0.107    22.593     6.778
    40   6 C        2.925    -0.042    29.033     8.836
    41   6 C        2.923    -0.038    28.941     8.822
    42   6 C        2.979     0.010    27.796     8.648
    43   6 C        2.922    -0.040    29.004     8.832
    44   6 C        2.925    -0.042    29.044     8.838
    45   6 C        2.971     0.013    27.723     8.637
    46   6 C        3.806    -0.064    21.726     6.635
    47   6 C        3.754    -0.107    22.594     6.778
    48   6 C        2.925    -0.041    29.028     8.835
    49   6 C        2.922    -0.037    28.931     8.821
    50   6 C        3.215     0.002    27.305     8.502
    51   6 C        3.075     0.024    27.384     8.580
    52   6 C        3.042     0.005    27.864     8.658
    53   6 C        2.908    -0.031    28.782     8.797
    54   6 C        3.079     0.007    27.777     8.641
    55   6 C        3.948     0.017    20.215     6.389
    56   6 C        2.975     0.005    27.906     8.665
    57   6 C        2.921    -0.040    28.996     8.831
    58   6 C        2.927    -0.039    28.961     8.825
    59   6 C        2.970     0.012    27.735     8.638
    60   6 C        3.806    -0.059    21.639     6.622
    61   6 C        3.753    -0.105    22.571     6.775
    62   6 C        2.924    -0.041    29.030     8.836
    63   6 C        2.925    -0.039    28.969     8.827
    64   6 C        2.978     0.009    27.813     8.651
    65   6 C        2.923    -0.040    29.004     8.832
    66   6 C        2.925    -0.042    29.046     8.838
    67   6 C        2.971     0.014    27.688     8.631
    68   6 C        3.806    -0.064    21.720     6.634
    69   6 C        3.754    -0.106    22.587     6.777
    70   6 C        2.925    -0.041    29.023     8.835
    71   6 C        2.924    -0.038    28.935     8.821
    72   6 C        3.171    -0.016    28.019     8.647
    73   6 C        3.243     0.040    26.174     8.291
    74   7 N        2.821    -0.026    21.747     6.926
    75   6 C        3.284     0.042    25.588     8.132
    76   6 C        3.039    -0.049    29.175     8.859
    77   6 C        2.950     0.066    26.520     8.446
    78   6 C        3.051    -0.063    29.521     8.911
    79   6 C        3.201     0.010    27.224     8.501
    80  16 S        2.289    -0.039   142.666    20.103
    81   6 C        3.001     0.028    27.354     8.579
    82   6 C        3.825    -0.063    21.695     6.628
    83   6 C        3.754    -0.108    22.632     6.784
    84   6 C        3.072    -0.067    29.587     8.919
    85   6 C        3.199     0.014    27.143     8.491
    86  16 S        2.265    -0.061   143.577    20.167
    87  16 S        2.306     0.038   139.508    19.879
    88   6 C        2.991     0.026    27.423     8.590
    89   6 C        3.061    -0.038    28.888     8.814
    90   6 C        2.917    -0.012    28.307     8.725
    91   6 C        3.008    -0.042    29.036     8.839
    92   6 C        2.872     0.233    23.122     7.882
    93   8 O        0.942    -0.406    21.758     6.256
    94   6 C        3.079    -0.030    28.650     8.775
    95   6 C        3.034     0.012    27.712     8.635
    96   6 C        2.914    -0.028    28.706     8.786
    97   6 C        3.003    -0.032    28.787     8.801
    98   6 C        2.945     0.077    26.283     8.408
    99  35 Br       1.144    -0.131   188.659    22.146
   100   6 C        2.947     0.102    25.737     8.321
   101  17 Cl       1.027    -0.118   102.854    15.516
   102   6 C        3.020     0.037    27.149     8.547
   103   6 C        2.947     0.008    27.850     8.655
   104   6 C        1.948     0.134    27.808     8.516
   105   7 N        0.911    -0.272    27.029     7.519
   106   6 C        1.946     0.134    27.807     8.516
   107   7 N        0.911    -0.275    27.102     7.529
   108   1 H        0.925     0.085     1.930     2.172
   109   1 H        0.926     0.066     2.124     2.279
   110   1 H        0.926     0.057     2.229     2.335
   111   1 H        0.925     0.057     2.240     2.341
   112   1 H        0.925     0.043     2.405     2.425
   113   1 H        0.926     0.045     2.385     2.415
   114   1 H        0.926     0.045     2.383     2.414
   115   1 H        0.925     0.044     2.401     2.423
   116   1 H        0.925     0.033     2.541     2.493
   117   1 H        0.925     0.045     2.383     2.414
   118   1 H        0.925     0.057     2.238     2.339
   119   1 H        0.926     0.060     2.198     2.318
   120   1 H        0.926     0.031     2.576     2.510
   121   1 H        0.926     0.038     2.471     2.458
   122   1 H        0.924     0.043     2.414     2.430
   123   1 H        0.924     0.044     2.400     2.423
   124   1 H        0.925     0.038     2.481     2.463
   125   1 H        0.925     0.044     2.400     2.423
   126   1 H        0.925     0.038     2.472     2.459
   127   1 H        0.926     0.041     2.440     2.443
   128   1 H        0.926     0.037     2.485     2.465
   129   1 H        0.926     0.027     2.633     2.537
   130   1 H        0.926     0.036     2.497     2.471
   131   1 H        0.924     0.044     2.399     2.422
   132   1 H        0.924     0.041     2.432     2.439
   133   1 H        0.925     0.043     2.404     2.425
   134   1 H        0.925     0.040     2.452     2.449
   135   1 H        0.925     0.037     2.483     2.464
   136   1 H        0.926     0.041     2.436     2.441
   137   1 H        0.926     0.037     2.483     2.464
   138   1 H        0.926     0.056     2.250     2.346
   139   1 H        0.926     0.040     2.447     2.446
   140   1 H        0.926     0.037     2.489     2.467
   141   1 H        0.924     0.040     2.450     2.448
   142   1 H        0.924     0.041     2.441     2.443
   143   1 H        0.925     0.036     2.499     2.472
   144   1 H        0.925     0.039     2.460     2.453
   145   1 H        0.925     0.044     2.393     2.419
   146   1 H        0.926     0.036     2.503     2.474
   147   1 H        0.925     0.023     2.685     2.563
   148   1 H        0.926     0.026     2.640     2.541
   149   1 H        0.926     0.037     2.483     2.464
   150   1 H        0.924     0.043     2.404     2.425
   151   1 H        0.924     0.042     2.420     2.433
   152   1 H        0.925     0.044     2.392     2.419
   153   1 H        0.925     0.038     2.470     2.458
   154   1 H        0.925     0.041     2.442     2.444
   155   1 H        0.926     0.041     2.430     2.438
   156   1 H        0.926     0.042     2.425     2.435
   157   1 H        0.926     0.076     2.017     2.221
   158   1 H        0.926     0.065     2.143     2.289
   159   1 H        0.924     0.059     2.215     2.327
   160   1 H        0.924     0.061     2.185     2.312
   161   1 H        0.925     0.053     2.280     2.361
   162   1 H        0.925     0.047     2.362     2.403
   163   1 H        0.925     0.042     2.422     2.434
   164   1 H        0.926     0.056     2.242     2.341
   165   1 H        0.926     0.072     2.064     2.247
   166   1 H        0.925     0.078     2.005     2.214
   167   1 H        0.926     0.090     1.878     2.143
   168   1 H        0.926     0.104     1.749     2.068

 Mol. C6AA /au·bohr⁶  :     478927.634077
 Mol. C8AA /au·bohr⁸  :   13403047.501588
 Mol. α(0) /au        :       1104.357707


Wiberg/Mayer (AO) data.
largest (>0.10) Wiberg bond orders for each atom

 ---------------------------------------------------------------------------
     #   Z sym  total        # sym  WBO       # sym  WBO       # sym  WBO
 ---------------------------------------------------------------------------
     1   6 C    3.943 --     2 C    1.544    24 C    1.252   108 H    0.945
     2   6 C    3.948 --     1 C    1.544    11 C    1.134     3 C    1.015
     3   6 C    3.910 --     4 O    1.731     5 C    1.030     2 C    1.015
     4   8 O    2.006 --     3 C    1.731
     5   6 C    3.968 --     6 C    1.376    10 C    1.301     3 C    1.030
     6   6 C    3.979 --     7 C    1.443     5 C    1.376   109 H    0.962
     7   6 C    3.954 --     6 C    1.443     8 C    1.320    23 C    0.994
     8   6 C    3.963 --     9 C    1.447     7 C    1.320    17 C    0.995
     9   6 C    3.977 --     8 C    1.447    10 C    1.367   110 H    0.961
    10   6 C    3.975 --     9 C    1.367     5 C    1.301    11 C    1.085
    11   6 C    3.968 --    12 C    1.466     2 C    1.134    10 C    1.085
    12   6 C    3.964 --    11 C    1.466    15 C    1.107    13 C    1.101
    13   6 C    3.942 --    14 N    2.753    12 C    1.101
    14   7 N    2.963 --    13 C    2.753
    15   6 C    3.942 --    16 N    2.752    12 C    1.107
    16   7 N    2.958 --    15 C    2.752
    17   6 C    3.982 --     8 C    0.995    23 C    0.974   111 H    0.959
                            18 C    0.949
    18   6 C    3.988 --    19 C    1.004    22 C    0.989   112 H    0.970
                            17 C    0.949
    19   6 C    3.981 --    20 C    1.923    18 C    1.004   113 H    0.970
    20   6 C    3.981 --    19 C    1.923    21 C    1.004   114 H    0.970
    21   6 C    3.987 --    20 C    1.004    22 C    0.989   115 H    0.970
                            23 C    0.949
    22   6 C    3.994 --    18 C    0.989    21 C    0.989   117 H    0.978
                           116 H    0.974
    23   6 C    3.981 --     7 C    0.994    17 C    0.974   118 H    0.959
                            21 C    0.949
    24   6 C    3.916 --    76 C    1.419     1 C    1.252    25 S    1.078
    25  16 S    2.531 --    26 C    1.135    24 C    1.078
    26   6 C    3.929 --    27 C    1.318    75 C    1.250    25 S    1.135
    27   6 C    3.916 --    26 C    1.318    73 C    1.262    28 S    1.112
    28  16 S    2.530 --    29 C    1.126    27 C    1.112
    29   6 C    3.885 --    72 C    1.420    30 C    1.157    28 S    1.126
    30   6 C    3.943 --    31 C    1.347    54 C    1.268    29 C    1.157
    31   6 C    3.972 --    32 C    1.467    30 C    1.347   119 H    0.962
    32   6 C    3.956 --    31 C    1.467    52 C    1.274    33 C    0.973
    33   6 C    3.986 --    50 C    0.973    32 C    0.973    42 C    0.956
                            34 C    0.946
    34   6 C    3.981 --    35 C    1.416    41 C    1.401    33 C    0.946
                            37 C    0.105
    35   6 C    3.990 --    36 C    1.442    34 C    1.416   120 H    0.966
                            40 C    0.107
    36   6 C    3.991 --    35 C    1.442    37 C    1.415   121 H    0.968
                            41 C    0.109
    37   6 C    3.986 --    36 C    1.415    40 C    1.403    38 C    1.013
                            34 C    0.105
    38   6 C    3.996 --    37 C    1.013    39 C    1.000   122 H    0.974
                           123 H    0.973
    39   6 C    3.995 --    38 C    1.000   124 H    0.988   126 H    0.988
                           125 H    0.986
    40   6 C    3.990 --    41 C    1.455    37 C    1.403   127 H    0.968
                            35 C    0.107
    41   6 C    3.990 --    40 C    1.455    34 C    1.401   128 H    0.967
                            36 C    0.109
    42   6 C    3.982 --    43 C    1.413    49 C    1.403    33 C    0.956
                            45 C    0.105
    43   6 C    3.990 --    44 C    1.445    42 C    1.413   129 H    0.967
                            48 C    0.108
    44   6 C    3.991 --    43 C    1.445    45 C    1.412   130 H    0.969
                            49 C    0.108
    45   6 C    3.986 --    44 C    1.412    48 C    1.406    46 C    1.013
                            42 C    0.105
    46   6 C    3.996 --    45 C    1.013    47 C    1.000   132 H    0.974
                           131 H    0.973
    47   6 C    3.995 --    46 C    1.000   135 H    0.988   134 H    0.988
                           133 H    0.986
    48   6 C    3.990 --    49 C    1.452    45 C    1.406   136 H    0.968
                            43 C    0.108
    49   6 C    3.990 --    48 C    1.452    42 C    1.403   137 H    0.966
                            44 C    0.108
    50   6 C    3.955 --    89 C    1.456    51 C    1.306    33 C    0.973
    51   6 C    3.924 --    50 C    1.306    87 S    1.228    52 C    1.171
    52   6 C    3.958 --    53 C    1.327    32 C    1.274    51 C    1.171
    53   6 C    3.967 --    54 C    1.486    52 C    1.327   138 H    0.960
    54   6 C    3.963 --    53 C    1.486    30 C    1.268    55 C    0.960
    55   6 C    3.985 --    72 C    0.976    54 C    0.960    56 C    0.958
                            64 C    0.949
    56   6 C    3.983 --    57 C    1.416    63 C    1.403    55 C    0.958
                            59 C    0.106
    57   6 C    3.989 --    58 C    1.442    56 C    1.416   139 H    0.961
                            62 C    0.106
    58   6 C    3.990 --    57 C    1.442    59 C    1.413   140 H    0.967
                            63 C    0.110
    59   6 C    3.986 --    58 C    1.413    62 C    1.405    60 C    1.013
                            56 C    0.106
    60   6 C    3.997 --    59 C    1.013    61 C    1.001   142 H    0.975
                           141 H    0.970
    61   6 C    3.995 --    60 C    1.001   143 H    0.989   144 H    0.988
                           145 H    0.986
    62   6 C    3.990 --    63 C    1.455    59 C    1.405   146 H    0.968
                            57 C    0.106
    63   6 C    3.991 --    62 C    1.455    56 C    1.403   147 H    0.969
                            58 C    0.110
    64   6 C    3.981 --    65 C    1.412    71 C    1.399    55 C    0.949
                            67 C    0.105
    65   6 C    3.990 --    66 C    1.440    64 C    1.412   148 H    0.964
                            70 C    0.106
    66   6 C    3.990 --    65 C    1.440    67 C    1.413   149 H    0.968
                            71 C    0.108
    67   6 C    3.986 --    66 C    1.413    70 C    1.403    68 C    1.014
                            64 C    0.105
    68   6 C    3.996 --    67 C    1.014    69 C    0.999   151 H    0.974
                           150 H    0.973
    69   6 C    3.995 --    68 C    0.999   153 H    0.988   154 H    0.988
                           152 H    0.985
    70   6 C    3.989 --    71 C    1.453    67 C    1.403   155 H    0.968
                            65 C    0.106
    71   6 C    3.990 --    70 C    1.453    64 C    1.399   156 H    0.964
                            66 C    0.108
    72   6 C    3.952 --    29 C    1.420    73 C    1.283    55 C    0.976
    73   6 C    3.916 --    72 C    1.283    27 C    1.262    74 N    1.127
    74   7 N    3.581 --    73 C    1.127    75 C    1.123    77 C    1.055
    75   6 C    3.928 --    76 C    1.336    26 C    1.250    74 N    1.123
    76   6 C    3.962 --    24 C    1.419    75 C    1.336   157 H    0.957
    77   6 C    3.919 --    78 C    1.569    86 S    1.094    74 N    1.055
    78   6 C    3.973 --    77 C    1.569    79 C    1.252   158 H    0.952
    79   6 C    3.948 --    85 C    1.384    78 C    1.252    80 S    1.120
    80  16 S    2.552 --    81 C    1.132    79 C    1.120
    81   6 C    3.941 --    84 C    1.600    80 S    1.132    82 C    1.028
    82   6 C    3.990 --    81 C    1.028    83 C    0.995   159 H    0.968
                           160 H    0.966
    83   6 C    3.989 --    82 C    0.995   163 H    0.988   162 H    0.987
                           161 H    0.984
    84   6 C    3.980 --    81 C    1.600    85 C    1.250   164 H    0.961
    85   6 C    3.935 --    79 C    1.384    84 C    1.250    86 S    1.111
    86  16 S    2.531 --    85 C    1.111    77 C    1.094
    87  16 S    2.743 --    51 C    1.228    88 C    1.090    93 O    0.110
    88   6 C    3.933 --    90 C    1.353    89 C    1.314    87 S    1.090
    89   6 C    3.960 --    50 C    1.456    88 C    1.314   165 H    0.959
    90   6 C    3.940 --    91 C    1.437    88 C    1.353   166 H    0.937
    91   6 C    3.956 --    90 C    1.437   102 C    1.163    92 C    1.085
    92   6 C    3.911 --    93 O    1.681    91 C    1.085    94 C    1.017
    93   8 O    2.072 --    92 C    1.681    87 S    0.110
    94   6 C    3.973 --   100 C    1.386    95 C    1.290    92 C    1.017
    95   6 C    3.980 --    96 C    1.407    94 C    1.290   102 C    1.077
    96   6 C    3.970 --    97 C    1.415    95 C    1.407   167 H    0.954
    97   6 C    3.971 --    98 C    1.417    96 C    1.415   168 H    0.959
    98   6 C    3.928 --    97 C    1.417   100 C    1.331    99 Br   1.003
    99  35 Br   1.151 --    98 C    1.003
   100   6 C    3.918 --    94 C    1.386    98 C    1.331   101 Cl   1.016
   101  17 Cl   1.193 --   100 C    1.016
   102   6 C    3.963 --   103 C    1.463    91 C    1.163    95 C    1.077
   103   6 C    3.938 --   102 C    1.463   106 C    1.103   104 C    1.101
   104   6 C    3.941 --   105 N    2.750   103 C    1.101
   105   7 N    2.955 --   104 C    2.750
   106   6 C    3.941 --   107 N    2.740   103 C    1.103
   107   7 N    2.952 --   106 C    2.740
   108   1 H    0.991 --     1 C    0.945
   109   1 H    0.995 --     6 C    0.962
   110   1 H    0.996 --     9 C    0.961
   111   1 H    0.995 --    17 C    0.959
   112   1 H    0.998 --    18 C    0.970
   113   1 H    0.998 --    19 C    0.970
   114   1 H    0.998 --    20 C    0.970
   115   1 H    0.998 --    21 C    0.970
   116   1 H    0.999 --    22 C    0.974
   117   1 H    0.998 --    22 C    0.978
   118   1 H    0.995 --    23 C    0.959
   119   1 H    0.995 --    31 C    0.962
   120   1 H    0.999 --    35 C    0.966
   121   1 H    0.998 --    36 C    0.968
   122   1 H    0.998 --    38 C    0.974
   123   1 H    0.998 --    38 C    0.973
   124   1 H    0.999 --    39 C    0.988
   125   1 H    0.997 --    39 C    0.986
   126   1 H    0.999 --    39 C    0.988
   127   1 H    0.998 --    40 C    0.968
   128   1 H    0.998 --    41 C    0.967
   129   1 H    0.999 --    43 C    0.967
   130   1 H    0.998 --    44 C    0.969
   131   1 H    0.998 --    46 C    0.973
   132   1 H    0.998 --    46 C    0.974
   133   1 H    0.997 --    47 C    0.986
   134   1 H    0.998 --    47 C    0.988
   135   1 H    0.999 --    47 C    0.988
   136   1 H    0.998 --    48 C    0.968
   137   1 H    0.998 --    49 C    0.966
   138   1 H    0.995 --    53 C    0.960
   139   1 H    0.998 --    57 C    0.961
   140   1 H    0.998 --    58 C    0.967
   141   1 H    0.998 --    60 C    0.970
   142   1 H    0.998 --    60 C    0.975
   143   1 H    0.999 --    61 C    0.989
   144   1 H    0.998 --    61 C    0.988
   145   1 H    0.997 --    61 C    0.986
   146   1 H    0.998 --    62 C    0.968
   147   1 H    0.999 --    63 C    0.969
   148   1 H    0.999 --    65 C    0.964
   149   1 H    0.998 --    66 C    0.968
   150   1 H    0.998 --    68 C    0.973
   151   1 H    0.998 --    68 C    0.974
   152   1 H    0.997 --    69 C    0.985
   153   1 H    0.999 --    69 C    0.988
   154   1 H    0.998 --    69 C    0.988
   155   1 H    0.998 --    70 C    0.968
   156   1 H    0.998 --    71 C    0.964
   157   1 H    0.993 --    76 C    0.957
   158   1 H    0.996 --    78 C    0.952
   159   1 H    0.996 --    82 C    0.968
   160   1 H    0.994 --    82 C    0.966
   161   1 H    0.996 --    83 C    0.984
   162   1 H    0.998 --    83 C    0.987
   163   1 H    0.998 --    83 C    0.988
   164   1 H    0.997 --    84 C    0.961
   165   1 H    0.994 --    89 C    0.959
   166   1 H    0.993 --    90 C    0.937
   167   1 H    0.991 --    96 C    0.954
   168   1 H    0.989 --    97 C    0.959
 ---------------------------------------------------------------------------

Topologies differ in bond orders
Writing corrected topology to xtbtopo.mol

molecular dipole:
                 x           y           z       tot (Debye)
 q only:       -0.012       1.387       0.233
   full:       -0.407       2.023       0.331       5.313
molecular quadrupole (traceless):
                xx          xy          yy          xz          yz          zz
 q only:       71.749      70.506     -50.353     -10.288      91.381     -21.396
  q+dip:       78.073      64.219     -62.296      -2.371     119.116     -15.777
   full:       72.052      60.455     -59.930       2.403     120.034     -12.122


           -------------------------------------------------
          | TOTAL ENERGY             -277.794560282552 Eh   |
          | GRADIENT NORM               0.034775404007 Eh/α |
          | HOMO-LUMO GAP               0.866481364980 eV   |
           -------------------------------------------------

------------------------------------------------------------------------
 * finished run on 2022/02/01 at 17:58:20.009     
------------------------------------------------------------------------
 total:
 * wall-time:     0 d,  0 h,  0 min,  0.693 sec
 *  cpu-time:     0 d,  0 h,  0 min,  5.436 sec
 * ratio c/w:     7.848 speedup
 SCF:
 * wall-time:     0 d,  0 h,  0 min,  0.607 sec
 *  cpu-time:     0 d,  0 h,  0 min,  4.833 sec
 * ratio c/w:     7.962 speedup

