      -----------------------------------------------------------      
     |                   =====================                   |     
     |                           x T B                           |     
     |                   =====================                   |     
     |                         S. Grimme                         |     
     |          Mulliken Center for Theoretical Chemistry        |     
     |                    University of Bonn                     |     
      -----------------------------------------------------------      

   * xtb version 6.4.1 (unknown) compiled by 'oda6@login1.crc.pitt.edu' on 2021-06-25

   xtb is free software: you can redistribute it and/or modify it under
   the terms of the GNU Lesser General Public License as published by
   the Free Software Foundation, either version 3 of the License, or
   (at your option) any later version.
   
   xtb is distributed in the hope that it will be useful,
   but WITHOUT ANY WARRANTY; without even the implied warranty of
   MERCHANTABILITY or FITNESS FOR A PARTICULAR PURPOSE.  See the
   GNU Lesser General Public License for more details.
   
   Cite this work as:
   * C. Bannwarth, E. Caldeweyher, S. Ehlert, A. Hansen, P. Pracht,
     J. Seibert, S. Spicher, S. Grimme, WIREs Comput. Mol. Sci., 2020, 11,
     e01493. DOI: 10.1002/wcms.1493
   
   for GFN2-xTB:
   * C. Bannwarth, S. Ehlert and S. Grimme., J. Chem. Theory Comput., 2019,
     15, 1652-1671. DOI: 10.1021/acs.jctc.8b01176
   for GFN1-xTB:
   * S. Grimme, C. Bannwarth, P. Shushkov, J. Chem. Theory Comput., 2017,
     13, 1989-2009. DOI: 10.1021/acs.jctc.7b00118
   for GFN0-xTB:
   * P. Pracht, E. Caldeweyher, S. Ehlert, S. Grimme, ChemRxiv, 2019, preprint.
     DOI: 10.26434/chemrxiv.8326202.v1
   for GFN-FF:
   * S. Spicher and S. Grimme, Angew. Chem. Int. Ed., 2020, 59, 15665-15673.
     DOI: 10.1002/anie.202004239
   
   for DFT-D4:
   * E. Caldeweyher, C. Bannwarth and S. Grimme, J. Chem. Phys., 2017,
     147, 034112. DOI: 10.1063/1.4993215
   * E. Caldeweyher, S. Ehlert, A. Hansen, H. Neugebauer, S. Spicher,
     C. Bannwarth and S. Grimme, J. Chem. Phys., 2019, 150, 154122.
     DOI: 10.1063/1.5090222
   * E. Caldeweyher, J.-M. Mewes, S. Ehlert and S. Grimme, Phys. Chem. Chem. Phys.
     2020, 22, 8499-8512. DOI: 10.1039/D0CP00502A
   
   for sTDA-xTB:
   * S. Grimme and C. Bannwarth, J. Chem. Phys., 2016, 145, 054103.
     DOI: 10.1063/1.4959605
   
   in the mass-spec context:
   * V. Asgeirsson, C. Bauer and S. Grimme, Chem. Sci., 2017, 8, 4879.
     DOI: 10.1039/c7sc00601b
   * J. Koopman and S. Grimme, ACS Omega 2019, 4, 12, 15120-15133.
     DOI: 10.1021/acsomega.9b02011
   
   for metadynamics refer to:
   * S. Grimme, J. Chem. Theory Comput., 2019, 155, 2847-2862
     DOI: 10.1021/acs.jctc.9b00143
   
   for SPH calculations refer to:
   * S. Spicher and S. Grimme, J. Chem. Theory Comput., 2021, 17, 1701-1714
     DOI: 10.1021/acs.jctc.0c01306
   
   with help from (in alphabetical order)
   P. Atkinson, C. Bannwarth, F. Bohle, G. Brandenburg, E. Caldeweyher
   M. Checinski, S. Dohm, S. Ehlert, S. Ehrlich, I. Gerasimov, J. Koopman
   C. Lavigne, S. Lehtola, F. März, M. Müller, F. Musil, H. Neugebauer
   J. Pisarek, C. Plett, P. Pracht, J. Seibert, P. Shushkov, S. Spicher
   M. Stahn, M. Steiner, T. Strunk, J. Stückrath, T. Rose, and J. Unsleber
   
 * started run on 2022/02/02 at 07:19:36.158     

           -------------------------------------------------
          |                Calculation Setup                |
           -------------------------------------------------

          program call               : /ihome/ghutchison/oda6/xtb/xtb-641/bin/xtb ../../GFN2_output/39_83_41.mol --sp --alpb water
          hostname                   : smp-n98
          coordinate file            : ../../GFN2_output/39_83_41.mol
          omp threads                :                     8
          number of atoms            :                   115
          number of electrons        :                   356
          charge                     :                     0
          spin                       :                   0.0
          first test random number   :      0.79635174371763

   ID    Z sym.   atoms
    1    6 C      1-3, 5-13, 15, 17-28, 30-33, 35, 36, 38, 39, 41-45, 47, 48,
                  50, 51, 53, 54, 56-62, 65-67, 69-72
    2    8 O      4, 63, 68
    3    7 N      14, 16, 34, 37, 49, 52, 64, 73
    4   16 S      29, 40, 46, 55
    5    1 H      74-115

           -------------------------------------------------
          |                 G F N 2 - x T B                 |
           -------------------------------------------------

        Reference                      10.1021/acs.jctc.8b01176
      * Hamiltonian:
        H0-scaling (s, p, d)           1.850000    2.230000    2.230000
        zeta-weighting                 0.500000
      * Dispersion:
        s8                             2.700000
        a1                             0.520000
        a2                             5.000000
        s9                             5.000000
      * Repulsion:
        kExp                           1.500000    1.000000
        rExp                           1.000000
      * Coulomb:
        alpha                          2.000000
        third order                    shell-resolved
        anisotropic                    true
        a3                             3.000000
        a5                             4.000000
        cn-shift                       1.200000
        cn-exp                         4.000000
        max-rad                        5.000000

      * Solvation model:               ALPB
        Solvent                        water
        Parameter file                 internal GFN2-xTB/ALPB
        Dielectric constant                8.0200E+01
        Reference state                gsolv [1 M gas/solution]
        Free energy shift                  1.0808E-03 Eh       6.7819E-01 kcal/mol
        Temperature                        2.9815E+02 K
        Density                            1.0000E+00 kg/L
        Solvent mass                       1.8000E+01 g/mol
        Interaction kernel             P16
        Born radius scaling (c1)           1.4744E+00
        Born radii integrator          GBOBC
        Born offset                        0.0000E+00 a0       0.0000E+00 AA
        H-bond correction              true
        Ion screening                  false
        Surface tension                    1.0000E-05 Eh       1.5569E+01 dyn/cm
        Grid points                               230 per atom

          ...................................................
          :                      SETUP                      :
          :.................................................:
          :  # basis functions                 358          :
          :  # atomic orbitals                 354          :
          :  # shells                          192          :
          :  # electrons                       356          :
          :  max. iterations                   250          :
          :  Hamiltonian                  GFN2-xTB          :
          :  restarted?                      false          :
          :  GBSA solvation                   true          :
          :  PC potential                    false          :
          :  electronic temp.          300.0000000     K    :
          :  accuracy                    1.0000000          :
          :  -> integral cutoff          0.2500000E+02      :
          :  -> integral neglect         0.1000000E-07      :
          :  -> SCF convergence          0.1000000E-05 Eh   :
          :  -> wf. convergence          0.1000000E-03 e    :
          :  Broyden damping             0.4000000          :
          ...................................................

 iter      E             dE          RMSdq      gap      omega  full diag
   1   -196.9224453 -0.196922E+03  0.435E+00    1.32       0.0  T
   2   -197.1655420 -0.243097E+00  0.257E+00    0.88       1.0  T
   3   -197.1467816  0.187604E-01  0.141E+00    1.10       1.0  T
   4   -197.2257604 -0.789787E-01  0.468E-01    0.92       1.0  T
   5   -197.2415443 -0.157840E-01  0.146E-01    0.86       1.0  T
   6   -197.2424243 -0.879992E-03  0.786E-02    0.88       1.0  T
   7   -197.2426961 -0.271760E-03  0.301E-02    0.86       1.0  T
   8   -197.2427235 -0.274525E-04  0.137E-02    0.86       1.0  T
   9   -197.2427279 -0.432075E-05  0.722E-03    0.87       1.3  T
  10   -197.2427294 -0.157704E-05  0.357E-03    0.87       2.6  T
  11   -197.2427298 -0.310489E-06  0.178E-03    0.87       5.2  T
  12   -197.2427298 -0.619830E-07  0.866E-04    0.87      10.8  T
  13   -197.2427298 -0.157913E-07  0.382E-04    0.87      24.4  T

   *** convergence criteria satisfied after 13 iterations ***

         #    Occupation            Energy/Eh            Energy/eV
      -------------------------------------------------------------
         1        2.0000           -0.7497818             -20.4026
       ...           ...                  ...                  ...
       172        2.0000           -0.4034948             -10.9797
       173        2.0000           -0.3909445             -10.6381
       174        2.0000           -0.3900368             -10.6134
       175        2.0000           -0.3837031             -10.4411
       176        2.0000           -0.3763071             -10.2398
       177        2.0000           -0.3704789             -10.0812
       178        2.0000           -0.3622317              -9.8568 (HOMO)
       179        0.0000           -0.3304161              -8.9911 (LUMO)
       180                         -0.3256288              -8.8608
       181                         -0.3149613              -8.5705
       182                         -0.2927349              -7.9657
       183                         -0.2711955              -7.3796
       ...                                ...                  ...
       354                          1.1596390              31.5554
      -------------------------------------------------------------
                  HL-Gap            0.0318157 Eh            0.8657 eV
             Fermi-level           -0.3463269 Eh           -9.4240 eV

 SCC (total)                   0 d,  0 h,  0 min,  0.270 sec
 SCC setup                      ...        0 min,  0.002 sec (  0.925%)
 Dispersion                     ...        0 min,  0.004 sec (  1.605%)
 classical contributions        ...        0 min,  0.000 sec (  0.056%)
 integral evaluation            ...        0 min,  0.013 sec (  4.667%)
 iterations                     ...        0 min,  0.209 sec ( 77.592%)
 molecular gradient             ...        0 min,  0.040 sec ( 14.762%)
 printout                       ...        0 min,  0.001 sec (  0.362%)

         :::::::::::::::::::::::::::::::::::::::::::::::::::::
         ::                     SUMMARY                     ::
         :::::::::::::::::::::::::::::::::::::::::::::::::::::
         :: total energy            -194.228341943578 Eh    ::
         :: total w/o Gsasa/hb      -194.211242939613 Eh    ::
         :: gradient norm              0.049085654034 Eh/a0 ::
         :: HOMO-LUMO gap              0.865749023241 eV    ::
         ::.................................................::
         :: SCC energy              -197.242729828406 Eh    ::
         :: -> isotropic ES            0.194088176804 Eh    ::
         :: -> anisotropic ES          0.005321320261 Eh    ::
         :: -> anisotropic XC          0.119771613649 Eh    ::
         :: -> dispersion             -0.179012415473 Eh    ::
         :: -> Gsolv                  -0.062495743576 Eh    ::
         ::    -> Gelec               -0.045396739611 Eh    ::
         ::    -> Gsasa               -0.011978929370 Eh    ::
         ::    -> Ghb                 -0.006200834294 Eh    ::
         ::    -> Gshift               0.001080759698 Eh    ::
         :: repulsion energy           3.014507653723 Eh    ::
         :: add. restraining           0.000000000000 Eh    ::
         :: total charge              -0.000000000673 e     ::
         :::::::::::::::::::::::::::::::::::::::::::::::::::::

           -------------------------------------------------
          |                Property Printout                |
           -------------------------------------------------

    * Orbital Energies and Occupations

         #    Occupation            Energy/Eh            Energy/eV
      -------------------------------------------------------------
         1        2.0000           -0.7497818             -20.4026
       ...           ...                  ...                  ...
       166        2.0000           -0.4196159             -11.4183
       167        2.0000           -0.4185422             -11.3891
       168        2.0000           -0.4170108             -11.3474
       169        2.0000           -0.4097647             -11.1503
       170        2.0000           -0.4091563             -11.1337
       171        2.0000           -0.4057295             -11.0405
       172        2.0000           -0.4034948             -10.9797
       173        2.0000           -0.3909445             -10.6381
       174        2.0000           -0.3900368             -10.6134
       175        2.0000           -0.3837031             -10.4411
       176        2.0000           -0.3763071             -10.2398
       177        2.0000           -0.3704789             -10.0812
       178        2.0000           -0.3622317              -9.8568 (HOMO)
       179        0.0000           -0.3304161              -8.9911 (LUMO)
       180                         -0.3256288              -8.8608
       181                         -0.3149613              -8.5705
       182                         -0.2927349              -7.9657
       183                         -0.2711955              -7.3796
       184                         -0.2680171              -7.2931
       185                         -0.2627081              -7.1487
       186                         -0.2504975              -6.8164
       187                         -0.2470071              -6.7214
       188                         -0.2428760              -6.6090
       189                         -0.2378843              -6.4732
       ...                                ...                  ...
       354                          1.1596390              31.5554
      -------------------------------------------------------------
                  HL-Gap            0.0318157 Eh            0.8657 eV
             Fermi-level           -0.3463269 Eh           -9.4240 eV

     #   Z          covCN         q      C6AA      α(0)
     1   6 C        2.929    -0.011    28.295     8.724
     2   6 C        3.010    -0.040    28.978     8.830
     3   6 C        2.873     0.232    23.152     7.888
     4   8 O        0.856    -0.436    22.413     6.347
     5   6 C        3.060    -0.024    28.532     8.760
     6   6 C        2.904    -0.025    28.621     8.772
     7   6 C        3.260     0.014    26.558     8.328
     8   6 C        3.258     0.016    26.534     8.326
     9   6 C        2.904    -0.033    28.815     8.802
    10   6 C        3.052     0.006    27.837     8.653
    11   6 C        3.023     0.041    27.051     8.531
    12   6 C        2.948     0.002    27.989     8.677
    13   6 C        1.937     0.133    27.843     8.521
    14   7 N        0.911    -0.289    27.457     7.579
    15   6 C        1.931     0.133    27.837     8.521
    16   7 N        0.911    -0.282    27.279     7.554
    17   6 C        4.163    -0.028    20.979     6.505
    18   6 C        4.011    -0.017    20.792     6.478
    19   6 C        2.988    -0.043    29.064     8.843
    20   6 C        2.987    -0.043    29.058     8.842
    21   6 C        4.012    -0.016    20.789     6.477
    22   6 C        3.927    -0.066    21.693     6.619
    23   6 C        4.162    -0.027    20.976     6.505
    24   6 C        2.997     0.016    27.639     8.624
    25   6 C        3.101     0.012    27.616     8.611
    26   6 C        3.804    -0.060    21.644     6.623
    27   6 C        3.754    -0.107    22.602     6.779
    28   6 C        3.194     0.009    27.300     8.520
    29  16 S        2.181    -0.021   141.936    20.052
    30   6 C        3.099     0.008    27.708     8.626
    31   6 C        3.093    -0.035    28.765     8.790
    32   6 C        2.976     0.075    26.313     8.414
    33   6 C        2.975     0.076    26.301     8.412
    34   7 N        1.842    -0.245    27.238     7.735
    35   6 C        2.908     0.045    26.987     8.518
    36   6 C        2.908     0.045    26.986     8.518
    37   7 N        1.842    -0.246    27.278     7.740
    38   6 C        3.093    -0.038    28.822     8.799
    39   6 C        3.099     0.012    27.625     8.613
    40  16 S        2.164    -0.032   142.392    20.084
    41   6 C        3.178     0.014    27.288     8.529
    42   6 C        3.097     0.011    27.640     8.616
    43   6 C        3.804    -0.065    21.750     6.639
    44   6 C        3.753    -0.114    22.735     6.799
    45   6 C        2.988     0.021    27.525     8.606
    46  16 S        2.460     0.010   140.656    19.961
    47   6 C        3.104     0.002    27.838     8.645
    48   6 C        3.254     0.031    26.247     8.287
    49   7 N        2.800    -0.010    21.442     6.877
    50   6 C        3.078     0.037    27.094     8.534
    51   6 C        3.078     0.037    27.093     8.534
    52   7 N        2.794    -0.023    21.693     6.917
    53   6 C        3.264     0.033    26.077     8.245
    54   6 C        3.122     0.016    27.483     8.585
    55  16 S        2.256    -0.050   143.132    20.136
    56   6 C        3.748    -0.016    20.919     6.523
    57   6 C        3.752    -0.117    22.794     6.808
    58   6 C        3.743    -0.012    20.870     6.517
    59   6 C        3.752    -0.130    23.064     6.849
    60   6 C        2.927    -0.013    28.343     8.731
    61   6 C        2.960    -0.044    29.098     8.848
    62   6 C        2.775     0.269    22.467     7.763
    63   8 O        1.108    -0.444    22.447     6.359
    64   7 N        2.744    -0.105    23.294     7.168
    65   6 C        3.754     0.007    20.518     6.459
    66   6 C        3.752    -0.116    22.775     6.806
    67   6 C        2.779     0.281    22.242     7.724
    68   8 O        0.859    -0.493    23.626     6.517
    69   6 C        2.965    -0.052    29.294     8.878
    70   6 C        2.968     0.042    27.057     8.532
    71   6 C        3.758    -0.133    23.107     6.853
    72   6 C        1.914     0.134    27.827     8.519
    73   7 N        0.911    -0.297    27.638     7.603
    74   1 H        0.925     0.079     1.990     2.206
    75   1 H        0.926     0.064     2.158     2.297
    76   1 H        0.926     0.059     2.206     2.323
    77   1 H        0.925     0.061     2.191     2.315
    78   1 H        0.925     0.046     2.376     2.411
    79   1 H        0.926     0.033     2.538     2.491
    80   1 H        0.926     0.031     2.575     2.509
    81   1 H        0.925     0.043     2.403     2.424
    82   1 H        0.925     0.049     2.335     2.389
    83   1 H        0.925     0.049     2.330     2.387
    84   1 H        0.925     0.060     2.201     2.320
    85   1 H        0.924     0.059     2.215     2.328
    86   1 H        0.924     0.066     2.130     2.282
    87   1 H        0.925     0.038     2.482     2.464
    88   1 H        0.925     0.049     2.328     2.386
    89   1 H        0.925     0.058     2.218     2.329
    90   1 H        0.925     0.050     2.315     2.379
    91   1 H        0.925     0.049     2.331     2.388
    92   1 H        0.924     0.069     2.094     2.263
    93   1 H        0.924     0.066     2.135     2.285
    94   1 H        0.925     0.045     2.380     2.412
    95   1 H        0.925     0.061     2.192     2.315
    96   1 H        0.925     0.049     2.334     2.389
    97   1 H        0.925     0.097     1.816     2.107
    98   1 H        0.924     0.077     2.014     2.219
    99   1 H        0.925     0.038     2.479     2.462
   100   1 H        0.925     0.053     2.280     2.361
   101   1 H        0.925     0.065     2.142     2.289
   102   1 H        0.924     0.080     1.980     2.201
   103   1 H        0.924     0.079     1.993     2.208
   104   1 H        0.925     0.060     2.194     2.316
   105   1 H        0.925     0.071     2.073     2.251
   106   1 H        0.925     0.062     2.174     2.306
   107   1 H        0.925     0.104     1.749     2.068
   108   1 H        0.924     0.068     2.108     2.270
   109   1 H        0.924     0.076     2.020     2.223
   110   1 H        0.925     0.056     2.246     2.344
   111   1 H        0.925     0.068     2.109     2.271
   112   1 H        0.925     0.044     2.403     2.424
   113   1 H        0.925     0.093     1.849     2.126
   114   1 H        0.925     0.093     1.854     2.129
   115   1 H        0.925     0.064     2.156     2.296

 Mol. C6AA /au·bohr⁶  :     209538.396925
 Mol. C8AA /au·bohr⁸  :    5668707.400877
 Mol. α(0) /au        :        721.076252


Wiberg/Mayer (AO) data.
largest (>0.10) Wiberg bond orders for each atom

 ---------------------------------------------------------------------------
     #   Z sym  total        # sym  WBO       # sym  WBO       # sym  WBO
 ---------------------------------------------------------------------------
     1   6 C    3.944 --     2 C    1.542    24 C    1.254    74 H    0.941
     2   6 C    3.953 --     1 C    1.542    11 C    1.135     3 C    1.019
     3   6 C    3.910 --     4 O    1.728     5 C    1.030     2 C    1.019
     4   8 O    2.003 --     3 C    1.728
     5   6 C    3.968 --     6 C    1.379    10 C    1.300     3 C    1.030
     6   6 C    3.981 --     7 C    1.441     5 C    1.379    75 H    0.963
     7   6 C    3.953 --     6 C    1.441     8 C    1.323    23 C    0.997
     8   6 C    3.963 --     9 C    1.446     7 C    1.323    17 C    0.999
     9   6 C    3.978 --     8 C    1.446    10 C    1.369    76 H    0.960
    10   6 C    3.977 --     9 C    1.369     5 C    1.300    11 C    1.087
    11   6 C    3.968 --    12 C    1.464     2 C    1.135    10 C    1.087
    12   6 C    3.966 --    11 C    1.464    15 C    1.108    13 C    1.101
    13   6 C    3.943 --    14 N    2.750    12 C    1.101
    14   7 N    2.964 --    13 C    2.750
    15   6 C    3.942 --    16 N    2.749    12 C    1.108
    16   7 N    2.957 --    15 C    2.749
    17   6 C    3.983 --     8 C    0.999    23 C    0.977    77 H    0.957
                            18 C    0.945
    18   6 C    3.988 --    19 C    1.010    22 C    0.985    78 H    0.971
                            17 C    0.945
    19   6 C    3.987 --    20 C    1.924    18 C    1.010    79 H    0.971
    20   6 C    3.987 --    19 C    1.924    21 C    1.010    80 H    0.971
    21   6 C    3.988 --    20 C    1.010    22 C    0.985    81 H    0.972
                            23 C    0.946
    22   6 C    3.991 --    18 C    0.985    21 C    0.985    83 H    0.977
                            82 H    0.976
    23   6 C    3.982 --     7 C    0.997    17 C    0.977    84 H    0.957
                            21 C    0.946
    24   6 C    3.925 --    25 C    1.394     1 C    1.254    55 S    1.068
    25   6 C    3.963 --    24 C    1.394    28 C    1.312    26 C    1.018
    26   6 C    3.991 --    25 C    1.018    27 C    0.991    86 H    0.969
                            85 H    0.961
    27   6 C    3.988 --    26 C    0.991    88 H    0.988    87 H    0.987
                            89 H    0.983
    28   6 C    3.928 --    54 C    1.318    25 C    1.312    29 S    1.090
    29  16 S    2.522 --    30 C    1.118    28 C    1.090
    30   6 C    3.916 --    53 C    1.302    31 C    1.271    29 S    1.118
    31   6 C    3.956 --    30 C    1.271    51 C    1.268    32 C    1.177
    32   6 C    3.973 --    37 N    1.344    33 C    1.227    31 C    1.177
    33   6 C    3.973 --    34 N    1.343    32 C    1.227    38 C    1.178
    34   7 N    3.048 --    35 C    1.487    33 C    1.343
    35   6 C    3.958 --    34 N    1.487    36 C    1.342    90 H    0.962
    36   6 C    3.958 --    37 N    1.486    35 C    1.342    91 H    0.962
    37   7 N    3.048 --    36 C    1.486    32 C    1.344
    38   6 C    3.957 --    39 C    1.288    50 C    1.249    33 C    1.178
    39   6 C    3.912 --    48 C    1.293    38 C    1.288    40 S    1.113
    40  16 S    2.498 --    39 C    1.113    41 C    1.075
    41   6 C    3.928 --    42 C    1.394    47 C    1.266    40 S    1.075
    42   6 C    3.949 --    41 C    1.394    45 C    1.289    43 C    1.019
    43   6 C    3.989 --    42 C    1.019    44 C    0.990    92 H    0.967
                            93 H    0.960
    44   6 C    3.987 --    43 C    0.990    96 H    0.988    94 H    0.986
                            95 H    0.983
    45   6 C    3.931 --    60 C    1.380    42 C    1.289    46 S    1.065
    46  16 S    2.779 --    47 C    1.169    45 C    1.065    63 O    0.178
    47   6 C    3.942 --    41 C    1.266    48 C    1.263    46 S    1.169
    48   6 C    3.941 --    39 C    1.293    47 C    1.263    49 N    1.159
    49   7 N    3.583 --    50 C    1.199    48 C    1.159    58 C    0.974
    50   6 C    3.933 --    38 C    1.249    51 C    1.229    49 N    1.199
    51   6 C    3.934 --    31 C    1.268    50 C    1.229    52 N    1.176
    52   7 N    3.556 --    51 C    1.176    53 C    1.158    56 C    0.970
    53   6 C    3.942 --    30 C    1.302    54 C    1.258    52 N    1.158
    54   6 C    3.936 --    28 C    1.318    53 C    1.258    55 S    1.127
    55  16 S    2.554 --    54 C    1.127    24 C    1.068
    56   6 C    3.948 --    57 C    1.005    52 N    0.970    98 H    0.963
                            97 H    0.952
    57   6 C    3.988 --    56 C    1.005    99 H    0.986   100 H    0.986
                           101 H    0.981
    58   6 C    3.951 --    59 C    1.005    49 N    0.974   103 H    0.961
                           102 H    0.960
    59   6 C    3.982 --    58 C    1.005   105 H    0.980   104 H    0.980
                           106 H    0.980
    60   6 C    3.921 --    61 C    1.399    45 C    1.380   107 H    0.933
    61   6 C    3.956 --    60 C    1.399    70 C    1.209    62 C    1.092
    62   6 C    3.928 --    63 O    1.556    64 N    1.159    61 C    1.092
    63   8 O    2.052 --    62 C    1.556    46 S    0.178    64 N    0.120
    64   7 N    3.575 --    62 C    1.159    67 C    1.112    65 C    0.960
                            68 O    0.130    63 O    0.120
    65   6 C    3.949 --    66 C    1.009   108 H    0.968   109 H    0.966
                            64 N    0.960
    66   6 C    3.991 --    65 C    1.009   112 H    0.987   110 H    0.986
                           111 H    0.981
    67   6 C    3.926 --    68 O    1.632    64 N    1.112    69 C    1.064
    68   8 O    1.926 --    67 C    1.632    64 N    0.130
    69   6 C    3.935 --    70 C    1.490    72 C    1.117    67 C    1.064
    70   6 C    3.959 --    69 C    1.490    61 C    1.209    71 C    1.039
    71   6 C    3.986 --    70 C    1.039   115 H    0.976   114 H    0.956
                           113 H    0.953
    72   6 C    3.938 --    73 N    2.763    69 C    1.117
    73   7 N    2.952 --    72 C    2.763
    74   1 H    0.991 --     1 C    0.941
    75   1 H    0.995 --     6 C    0.963
    76   1 H    0.996 --     9 C    0.960
    77   1 H    0.995 --    17 C    0.957
    78   1 H    0.998 --    18 C    0.971
    79   1 H    0.999 --    19 C    0.971
    80   1 H    0.999 --    20 C    0.971
    81   1 H    0.998 --    21 C    0.972
    82   1 H    0.995 --    22 C    0.976
    83   1 H    0.997 --    22 C    0.977
    84   1 H    0.994 --    23 C    0.957
    85   1 H    0.995 --    26 C    0.961
    86   1 H    0.995 --    26 C    0.969
    87   1 H    0.999 --    27 C    0.987
    88   1 H    0.998 --    27 C    0.988
    89   1 H    0.995 --    27 C    0.983
    90   1 H    0.997 --    35 C    0.962
    91   1 H    0.997 --    36 C    0.962
    92   1 H    0.994 --    43 C    0.967
    93   1 H    0.994 --    43 C    0.960
    94   1 H    0.998 --    44 C    0.986
    95   1 H    0.994 --    44 C    0.983
    96   1 H    0.998 --    44 C    0.988
    97   1 H    0.990 --    56 C    0.952
    98   1 H    0.993 --    56 C    0.963
    99   1 H    0.998 --    57 C    0.986
   100   1 H    0.997 --    57 C    0.986
   101   1 H    0.995 --    57 C    0.981
   102   1 H    0.992 --    58 C    0.960
   103   1 H    0.991 --    58 C    0.961
   104   1 H    0.996 --    59 C    0.980
   105   1 H    0.994 --    59 C    0.980
   106   1 H    0.996 --    59 C    0.980
   107   1 H    0.988 --    60 C    0.933
   108   1 H    0.995 --    65 C    0.968
   109   1 H    0.994 --    65 C    0.966
   110   1 H    0.997 --    66 C    0.986
   111   1 H    0.995 --    66 C    0.981
   112   1 H    0.998 --    66 C    0.987
   113   1 H    0.989 --    71 C    0.953
   114   1 H    0.989 --    71 C    0.956
   115   1 H    0.995 --    71 C    0.976
 ---------------------------------------------------------------------------

Topologies differ in bond orders
Writing corrected topology to xtbtopo.mol

molecular dipole:
                 x           y           z       tot (Debye)
 q only:       -0.566       1.046      -2.465
   full:       -0.875       1.346      -2.978       8.598
molecular quadrupole (traceless):
                xx          xy          yy          xz          yz          zz
 q only:      131.911     102.486     -88.840     -51.193     112.720     -43.071
  q+dip:      133.326     104.284     -93.067     -51.535     112.111     -40.259
   full:      129.016     101.755     -88.855     -54.955     121.884     -40.161


           -------------------------------------------------
          | TOTAL ENERGY             -194.228341943578 Eh   |
          | GRADIENT NORM               0.049085654034 Eh/α |
          | HOMO-LUMO GAP               0.865749023241 eV   |
           -------------------------------------------------

------------------------------------------------------------------------
 * finished run on 2022/02/02 at 07:19:36.499     
------------------------------------------------------------------------
 total:
 * wall-time:     0 d,  0 h,  0 min,  0.341 sec
 *  cpu-time:     0 d,  0 h,  0 min,  2.562 sec
 * ratio c/w:     7.513 speedup
 SCF:
 * wall-time:     0 d,  0 h,  0 min,  0.272 sec
 *  cpu-time:     0 d,  0 h,  0 min,  2.116 sec
 * ratio c/w:     7.786 speedup

