      -----------------------------------------------------------      
     |                   =====================                   |     
     |                           x T B                           |     
     |                   =====================                   |     
     |                         S. Grimme                         |     
     |          Mulliken Center for Theoretical Chemistry        |     
     |                    University of Bonn                     |     
      -----------------------------------------------------------      

   * xtb version 6.4.1 (unknown) compiled by 'oda6@login1.crc.pitt.edu' on 2021-06-25

   xtb is free software: you can redistribute it and/or modify it under
   the terms of the GNU Lesser General Public License as published by
   the Free Software Foundation, either version 3 of the License, or
   (at your option) any later version.
   
   xtb is distributed in the hope that it will be useful,
   but WITHOUT ANY WARRANTY; without even the implied warranty of
   MERCHANTABILITY or FITNESS FOR A PARTICULAR PURPOSE.  See the
   GNU Lesser General Public License for more details.
   
   Cite this work as:
   * C. Bannwarth, E. Caldeweyher, S. Ehlert, A. Hansen, P. Pracht,
     J. Seibert, S. Spicher, S. Grimme, WIREs Comput. Mol. Sci., 2020, 11,
     e01493. DOI: 10.1002/wcms.1493
   
   for GFN2-xTB:
   * C. Bannwarth, S. Ehlert and S. Grimme., J. Chem. Theory Comput., 2019,
     15, 1652-1671. DOI: 10.1021/acs.jctc.8b01176
   for GFN1-xTB:
   * S. Grimme, C. Bannwarth, P. Shushkov, J. Chem. Theory Comput., 2017,
     13, 1989-2009. DOI: 10.1021/acs.jctc.7b00118
   for GFN0-xTB:
   * P. Pracht, E. Caldeweyher, S. Ehlert, S. Grimme, ChemRxiv, 2019, preprint.
     DOI: 10.26434/chemrxiv.8326202.v1
   for GFN-FF:
   * S. Spicher and S. Grimme, Angew. Chem. Int. Ed., 2020, 59, 15665-15673.
     DOI: 10.1002/anie.202004239
   
   for DFT-D4:
   * E. Caldeweyher, C. Bannwarth and S. Grimme, J. Chem. Phys., 2017,
     147, 034112. DOI: 10.1063/1.4993215
   * E. Caldeweyher, S. Ehlert, A. Hansen, H. Neugebauer, S. Spicher,
     C. Bannwarth and S. Grimme, J. Chem. Phys., 2019, 150, 154122.
     DOI: 10.1063/1.5090222
   * E. Caldeweyher, J.-M. Mewes, S. Ehlert and S. Grimme, Phys. Chem. Chem. Phys.
     2020, 22, 8499-8512. DOI: 10.1039/D0CP00502A
   
   for sTDA-xTB:
   * S. Grimme and C. Bannwarth, J. Chem. Phys., 2016, 145, 054103.
     DOI: 10.1063/1.4959605
   
   in the mass-spec context:
   * V. Asgeirsson, C. Bauer and S. Grimme, Chem. Sci., 2017, 8, 4879.
     DOI: 10.1039/c7sc00601b
   * J. Koopman and S. Grimme, ACS Omega 2019, 4, 12, 15120-15133.
     DOI: 10.1021/acsomega.9b02011
   
   for metadynamics refer to:
   * S. Grimme, J. Chem. Theory Comput., 2019, 155, 2847-2862
     DOI: 10.1021/acs.jctc.9b00143
   
   for SPH calculations refer to:
   * S. Spicher and S. Grimme, J. Chem. Theory Comput., 2021, 17, 1701-1714
     DOI: 10.1021/acs.jctc.0c01306
   
   with help from (in alphabetical order)
   P. Atkinson, C. Bannwarth, F. Bohle, G. Brandenburg, E. Caldeweyher
   M. Checinski, S. Dohm, S. Ehlert, S. Ehrlich, I. Gerasimov, J. Koopman
   C. Lavigne, S. Lehtola, F. März, M. Müller, F. Musil, H. Neugebauer
   J. Pisarek, C. Plett, P. Pracht, J. Seibert, P. Shushkov, S. Spicher
   M. Stahn, M. Steiner, T. Strunk, J. Stückrath, T. Rose, and J. Unsleber
   
 * started run on 2022/02/02 at 14:16:46.053     

           -------------------------------------------------
          |                Calculation Setup                |
           -------------------------------------------------

          program call               : /ihome/ghutchison/oda6/xtb/xtb-641/bin/xtb ../../GFN2_output/39_83_29.mol --sp --alpb water
          hostname                   : smp-n98
          coordinate file            : ../../GFN2_output/39_83_29.mol
          omp threads                :                     8
          number of atoms            :                   116
          number of electrons        :                   370
          charge                     :                     0
          spin                       :                   0.0
          first test random number   :      0.02423226137634

   ID    Z sym.   atoms
    1    6 C      1-3, 5-13, 15, 17-28, 30-33, 35, 36, 38, 39, 41-45, 47, 48,
                  50, 51, 53, 54, 56-62, 64-68, 70-74, 76
    2    8 O      4, 63
    3    7 N      14, 16, 34, 37, 49, 52, 75, 77
    4   16 S      29, 40, 46, 55
    5    9 F      69
    6    1 H      78-116

           -------------------------------------------------
          |                 G F N 2 - x T B                 |
           -------------------------------------------------

        Reference                      10.1021/acs.jctc.8b01176
      * Hamiltonian:
        H0-scaling (s, p, d)           1.850000    2.230000    2.230000
        zeta-weighting                 0.500000
      * Dispersion:
        s8                             2.700000
        a1                             0.520000
        a2                             5.000000
        s9                             5.000000
      * Repulsion:
        kExp                           1.500000    1.000000
        rExp                           1.000000
      * Coulomb:
        alpha                          2.000000
        third order                    shell-resolved
        anisotropic                    true
        a3                             3.000000
        a5                             4.000000
        cn-shift                       1.200000
        cn-exp                         4.000000
        max-rad                        5.000000

      * Solvation model:               ALPB
        Solvent                        water
        Parameter file                 internal GFN2-xTB/ALPB
        Dielectric constant                8.0200E+01
        Reference state                gsolv [1 M gas/solution]
        Free energy shift                  1.0808E-03 Eh       6.7819E-01 kcal/mol
        Temperature                        2.9815E+02 K
        Density                            1.0000E+00 kg/L
        Solvent mass                       1.8000E+01 g/mol
        Interaction kernel             P16
        Born radius scaling (c1)           1.4744E+00
        Born radii integrator          GBOBC
        Born offset                        0.0000E+00 a0       0.0000E+00 AA
        H-bond correction              true
        Ion screening                  false
        Surface tension                    1.0000E-05 Eh       1.5569E+01 dyn/cm
        Grid points                               230 per atom

          ...................................................
          :                      SETUP                      :
          :.................................................:
          :  # basis functions                 371          :
          :  # atomic orbitals                 367          :
          :  # shells                          197          :
          :  # electrons                       370          :
          :  max. iterations                   250          :
          :  Hamiltonian                  GFN2-xTB          :
          :  restarted?                      false          :
          :  GBSA solvation                   true          :
          :  PC potential                    false          :
          :  electronic temp.          300.0000000     K    :
          :  accuracy                    1.0000000          :
          :  -> integral cutoff          0.2500000E+02      :
          :  -> integral neglect         0.1000000E-07      :
          :  -> SCF convergence          0.1000000E-05 Eh   :
          :  -> wf. convergence          0.1000000E-03 e    :
          :  Broyden damping             0.4000000          :
          ...................................................

 iter      E             dE          RMSdq      gap      omega  full diag
   1   -204.8054511 -0.204805E+03  0.461E+00    1.16       0.0  T
   2   -204.9902086 -0.184758E+00  0.277E+00    1.00       1.0  T
   3   -204.9331742  0.570344E-01  0.142E+00    0.96       1.0  T
   4   -205.0446257 -0.111452E+00  0.467E-01    0.83       1.0  T
   5   -205.0605061 -0.158803E-01  0.147E-01    0.77       1.0  T
   6   -205.0610450 -0.538941E-03  0.769E-02    0.78       1.0  T
   7   -205.0613202 -0.275188E-03  0.276E-02    0.76       1.0  T
   8   -205.0613375 -0.173576E-04  0.125E-02    0.77       1.0  T
   9   -205.0613412 -0.368953E-05  0.672E-03    0.77       1.4  T
  10   -205.0613419 -0.676313E-06  0.324E-03    0.77       2.9  T
  11   -205.0613422 -0.271194E-06  0.185E-03    0.77       5.0  T
  12   -205.0613422 -0.606639E-07  0.949E-04    0.77       9.8  T
  13   -205.0613423 -0.274009E-07  0.372E-04    0.77      25.0  T

   *** convergence criteria satisfied after 13 iterations ***

         #    Occupation            Energy/Eh            Energy/eV
      -------------------------------------------------------------
         1        2.0000           -0.8404801             -22.8706
       ...           ...                  ...                  ...
       179        2.0000           -0.4038326             -10.9888
       180        2.0000           -0.3918236             -10.6621
       181        2.0000           -0.3897352             -10.6052
       182        2.0000           -0.3838702             -10.4456
       183        2.0000           -0.3763517             -10.2411
       184        2.0000           -0.3702014             -10.0737
       185        2.0000           -0.3618228              -9.8457 (HOMO)
       186        0.0000           -0.3335814              -9.0772 (LUMO)
       187                         -0.3294527              -8.9649
       188                         -0.3199906              -8.7074
       189                         -0.3154782              -8.5846
       190                         -0.2931135              -7.9760
       ...                                ...                  ...
       367                          1.1532454              31.3814
      -------------------------------------------------------------
                  HL-Gap            0.0282414 Eh            0.7685 eV
             Fermi-level           -0.3477082 Eh           -9.4616 eV

 SCC (total)                   0 d,  0 h,  0 min,  0.275 sec
 SCC setup                      ...        0 min,  0.003 sec (  0.982%)
 Dispersion                     ...        0 min,  0.005 sec (  1.908%)
 classical contributions        ...        0 min,  0.000 sec (  0.057%)
 integral evaluation            ...        0 min,  0.015 sec (  5.360%)
 iterations                     ...        0 min,  0.212 sec ( 77.276%)
 molecular gradient             ...        0 min,  0.038 sec ( 13.973%)
 printout                       ...        0 min,  0.001 sec (  0.411%)

         :::::::::::::::::::::::::::::::::::::::::::::::::::::
         ::                     SUMMARY                     ::
         :::::::::::::::::::::::::::::::::::::::::::::::::::::
         :: total energy            -201.835887389019 Eh    ::
         :: total w/o Gsasa/hb      -201.812541995596 Eh    ::
         :: gradient norm              0.036062757547 Eh/a0 ::
         :: HOMO-LUMO gap              0.768487624429 eV    ::
         ::.................................................::
         :: SCC energy              -205.061342263137 Eh    ::
         :: -> isotropic ES            0.160669078003 Eh    ::
         :: -> anisotropic ES          0.009071566033 Eh    ::
         :: -> anisotropic XC          0.135683484274 Eh    ::
         :: -> dispersion             -0.181672081797 Eh    ::
         :: -> Gsolv                  -0.058858603211 Eh    ::
         ::    -> Gelec               -0.035513209788 Eh    ::
         ::    -> Gsasa               -0.018320742334 Eh    ::
         ::    -> Ghb                 -0.006105410787 Eh    ::
         ::    -> Gshift               0.001080759698 Eh    ::
         :: repulsion energy           3.225830283268 Eh    ::
         :: add. restraining           0.000000000000 Eh    ::
         :: total charge              -0.000000000000 e     ::
         :::::::::::::::::::::::::::::::::::::::::::::::::::::

           -------------------------------------------------
          |                Property Printout                |
           -------------------------------------------------

    * Orbital Energies and Occupations

         #    Occupation            Energy/Eh            Energy/eV
      -------------------------------------------------------------
         1        2.0000           -0.8404801             -22.8706
       ...           ...                  ...                  ...
       173        2.0000           -0.4177531             -11.3676
       174        2.0000           -0.4161995             -11.3254
       175        2.0000           -0.4143265             -11.2744
       176        2.0000           -0.4097191             -11.1490
       177        2.0000           -0.4095799             -11.1452
       178        2.0000           -0.4045913             -11.0095
       179        2.0000           -0.4038326             -10.9888
       180        2.0000           -0.3918236             -10.6621
       181        2.0000           -0.3897352             -10.6052
       182        2.0000           -0.3838702             -10.4456
       183        2.0000           -0.3763517             -10.2411
       184        2.0000           -0.3702014             -10.0737
       185        2.0000           -0.3618228              -9.8457 (HOMO)
       186        0.0000           -0.3335814              -9.0772 (LUMO)
       187                         -0.3294527              -8.9649
       188                         -0.3199906              -8.7074
       189                         -0.3154782              -8.5846
       190                         -0.2931135              -7.9760
       191                         -0.2724015              -7.4124
       192                         -0.2677201              -7.2850
       193                         -0.2545434              -6.9265
       194                         -0.2505893              -6.8189
       195                         -0.2491114              -6.7787
       196                         -0.2489916              -6.7754
       ...                                ...                  ...
       367                          1.1532454              31.3814
      -------------------------------------------------------------
                  HL-Gap            0.0282414 Eh            0.7685 eV
             Fermi-level           -0.3477082 Eh           -9.4616 eV

     #   Z          covCN         q      C6AA      α(0)
     1   6 C        2.950    -0.009    28.243     8.717
     2   6 C        3.008    -0.040    28.975     8.830
     3   6 C        2.866     0.230    23.179     7.892
     4   8 O        0.856    -0.426    22.212     6.319
     5   6 C        3.060    -0.023    28.512     8.756
     6   6 C        2.904    -0.025    28.619     8.772
     7   6 C        3.260     0.015    26.530     8.322
     8   6 C        3.257     0.015    26.571     8.334
     9   6 C        2.904    -0.033    28.814     8.802
    10   6 C        3.046     0.004    27.890     8.662
    11   6 C        3.021     0.037    27.152     8.547
    12   6 C        2.947     0.000    28.028     8.683
    13   6 C        1.937     0.134    27.810     8.516
    14   7 N        0.911    -0.286    27.365     7.566
    15   6 C        1.937     0.130    27.905     8.531
    16   7 N        0.911    -0.286    27.373     7.567
    17   6 C        4.163    -0.028    20.981     6.506
    18   6 C        4.011    -0.016    20.789     6.477
    19   6 C        2.988    -0.043    29.050     8.841
    20   6 C        2.987    -0.043    29.059     8.843
    21   6 C        4.012    -0.016    20.789     6.477
    22   6 C        3.927    -0.066    21.693     6.619
    23   6 C        4.161    -0.028    20.979     6.505
    24   6 C        3.001     0.018    27.592     8.617
    25   6 C        3.089     0.019    27.476     8.592
    26   6 C        3.804    -0.049    21.457     6.595
    27   6 C        3.753    -0.114    22.748     6.801
    28   6 C        3.191     0.010    27.290     8.520
    29  16 S        2.187    -0.026   142.125    20.065
    30   6 C        3.109     0.007    27.707     8.624
    31   6 C        3.080    -0.036    28.798     8.798
    32   6 C        2.972     0.075    26.315     8.414
    33   6 C        2.972     0.075    26.314     8.414
    34   7 N        1.842    -0.246    27.257     7.737
    35   6 C        2.906     0.045    26.991     8.519
    36   6 C        2.906     0.045    26.987     8.518
    37   7 N        1.842    -0.246    27.271     7.739
    38   6 C        3.081    -0.036    28.802     8.798
    39   6 C        3.107     0.009    27.688     8.621
    40  16 S        2.187    -0.021   141.906    20.049
    41   6 C        3.188     0.011    27.296     8.524
    42   6 C        3.086     0.021    27.431     8.586
    43   6 C        3.804    -0.051    21.493     6.600
    44   6 C        3.753    -0.116    22.782     6.806
    45   6 C        3.000     0.019    27.564     8.612
    46  16 S        2.266    -0.020   141.895    20.049
    47   6 C        3.122     0.016    27.473     8.584
    48   6 C        3.258     0.033    26.150     8.266
    49   7 N        2.790    -0.026    21.755     6.927
    50   6 C        3.102     0.038    27.030     8.519
    51   6 C        3.104     0.036    27.059     8.524
    52   7 N        2.791    -0.026    21.744     6.926
    53   6 C        3.255     0.033    26.185     8.277
    54   6 C        3.123     0.014    27.512     8.590
    55  16 S        2.268    -0.025   142.101    20.063
    56   6 C        3.741    -0.012    20.871     6.518
    57   6 C        3.752    -0.127    22.994     6.838
    58   6 C        3.743    -0.014    20.906     6.523
    59   6 C        3.752    -0.125    22.952     6.832
    60   6 C        2.951    -0.008    28.207     8.711
    61   6 C        3.010    -0.040    28.978     8.830
    62   6 C        2.866     0.232    23.145     7.886
    63   8 O        0.856    -0.418    22.036     6.294
    64   6 C        3.042    -0.023    28.539     8.762
    65   6 C        2.921    -0.029    28.720     8.788
    66   6 C        2.965     0.021    27.530     8.606
    67   6 C        3.758    -0.129    23.032     6.842
    68   6 C        2.794     0.171    24.309     8.077
    69   9 F        0.788    -0.239    11.649     4.032
    70   6 C        2.911    -0.047    29.176     8.857
    71   6 C        3.038     0.005    27.867     8.658
    72   6 C        3.020     0.037    27.137     8.545
    73   6 C        2.947     0.003    27.965     8.673
    74   6 C        1.935     0.131    27.884     8.528
    75   7 N        0.911    -0.280    27.239     7.548
    76   6 C        1.935     0.133    27.826     8.519
    77   7 N        0.911    -0.283    27.303     7.557
    78   1 H        0.925     0.067     2.123     2.278
    79   1 H        0.926     0.067     2.120     2.277
    80   1 H        0.926     0.055     2.260     2.351
    81   1 H        0.925     0.060     2.195     2.317
    82   1 H        0.925     0.044     2.400     2.423
    83   1 H        0.926     0.030     2.589     2.516
    84   1 H        0.926     0.031     2.566     2.505
    85   1 H        0.925     0.045     2.380     2.413
    86   1 H        0.925     0.050     2.320     2.382
    87   1 H        0.925     0.049     2.335     2.390
    88   1 H        0.925     0.062     2.178     2.308
    89   1 H        0.924     0.072     2.061     2.245
    90   1 H        0.924     0.038     2.470     2.458
    91   1 H        0.925     0.053     2.283     2.363
    92   1 H        0.925     0.057     2.240     2.340
    93   1 H        0.925     0.046     2.370     2.407
    94   1 H        0.925     0.049     2.334     2.389
    95   1 H        0.925     0.049     2.338     2.391
    96   1 H        0.924     0.077     2.005     2.214
    97   1 H        0.924     0.041     2.432     2.439
    98   1 H        0.925     0.054     2.270     2.356
    99   1 H        0.925     0.058     2.219     2.329
   100   1 H        0.925     0.048     2.350     2.397
   101   1 H        0.924     0.079     1.989     2.206
   102   1 H        0.925     0.086     1.922     2.168
   103   1 H        0.925     0.052     2.298     2.370
   104   1 H        0.925     0.072     2.060     2.244
   105   1 H        0.925     0.053     2.280     2.361
   106   1 H        0.925     0.086     1.919     2.167
   107   1 H        0.924     0.082     1.956     2.187
   108   1 H        0.925     0.071     2.072     2.251
   109   1 H        0.925     0.049     2.327     2.386
   110   1 H        0.925     0.049     2.328     2.386
   111   1 H        0.925     0.070     2.086     2.259
   112   1 H        0.926     0.087     1.910     2.161
   113   1 H        0.925     0.075     2.034     2.230
   114   1 H        0.925     0.083     1.945     2.181
   115   1 H        0.925     0.083     1.945     2.181
   116   1 H        0.926     0.074     2.039     2.233

 Mol. C6AA /au·bohr⁶  :     225620.844719
 Mol. C8AA /au·bohr⁸  :    6158967.665674
 Mol. α(0) /au        :        751.243645


Wiberg/Mayer (AO) data.
largest (>0.10) Wiberg bond orders for each atom

 ---------------------------------------------------------------------------
     #   Z sym  total        # sym  WBO       # sym  WBO       # sym  WBO
 ---------------------------------------------------------------------------
     1   6 C    3.944 --     2 C    1.532    24 C    1.249    78 H    0.945
     2   6 C    3.957 --     1 C    1.532    11 C    1.140     3 C    1.031
     3   6 C    3.922 --     4 O    1.724     2 C    1.031     5 C    1.029
     4   8 O    2.014 --     3 C    1.724
     5   6 C    3.973 --     6 C    1.382    10 C    1.303     3 C    1.029
     6   6 C    3.979 --     7 C    1.439     5 C    1.382    79 H    0.963
     7   6 C    3.952 --     6 C    1.439     8 C    1.323    23 C    0.998
     8   6 C    3.964 --     9 C    1.448     7 C    1.323    17 C    0.998
     9   6 C    3.978 --     8 C    1.448    10 C    1.364    80 H    0.959
    10   6 C    3.978 --     9 C    1.364     5 C    1.303    11 C    1.094
    11   6 C    3.968 --    12 C    1.465     2 C    1.140    10 C    1.094
    12   6 C    3.950 --    11 C    1.465    13 C    1.104    15 C    1.102
    13   6 C    3.940 --    14 N    2.748    12 C    1.104
    14   7 N    2.955 --    13 C    2.748
    15   6 C    3.941 --    16 N    2.746    12 C    1.102
    16   7 N    2.956 --    15 C    2.746
    17   6 C    3.983 --     8 C    0.998    23 C    0.977    81 H    0.957
                            18 C    0.946
    18   6 C    3.988 --    19 C    1.010    22 C    0.985    82 H    0.971
                            17 C    0.946
    19   6 C    3.987 --    20 C    1.924    18 C    1.010    83 H    0.972
    20   6 C    3.987 --    19 C    1.924    21 C    1.010    84 H    0.971
    21   6 C    3.987 --    20 C    1.010    22 C    0.985    85 H    0.971
                            23 C    0.945
    22   6 C    3.991 --    18 C    0.985    21 C    0.985    86 H    0.977
                            87 H    0.976
    23   6 C    3.982 --     7 C    0.998    17 C    0.977    88 H    0.957
                            21 C    0.945
    24   6 C    3.926 --    25 C    1.407     1 C    1.249    55 S    1.064
    25   6 C    3.958 --    24 C    1.407    28 C    1.302    26 C    1.020
    26   6 C    3.993 --    25 C    1.020    27 C    1.001    90 H    0.972
                            89 H    0.944
    27   6 C    3.991 --    26 C    1.001    93 H    0.987    91 H    0.984
                            92 H    0.980
    28   6 C    3.927 --    54 C    1.322    25 C    1.302    29 S    1.092
    29  16 S    2.530 --    30 C    1.117    28 C    1.092
    30   6 C    3.917 --    53 C    1.308    31 C    1.263    29 S    1.117
    31   6 C    3.958 --    51 C    1.271    30 C    1.263    32 C    1.180
    32   6 C    3.973 --    37 N    1.345    33 C    1.221    31 C    1.180
    33   6 C    3.973 --    34 N    1.346    32 C    1.221    38 C    1.179
    34   7 N    3.049 --    35 C    1.487    33 C    1.346
    35   6 C    3.958 --    34 N    1.487    36 C    1.342    94 H    0.962
    36   6 C    3.958 --    37 N    1.487    35 C    1.342    95 H    0.962
    37   7 N    3.049 --    36 C    1.487    32 C    1.345
    38   6 C    3.957 --    50 C    1.271    39 C    1.264    33 C    1.179
    39   6 C    3.916 --    48 C    1.305    38 C    1.264    40 S    1.119
    40  16 S    2.533 --    39 C    1.119    41 C    1.091
    41   6 C    3.927 --    42 C    1.315    47 C    1.311    40 S    1.091
    42   6 C    3.956 --    45 C    1.385    41 C    1.315    43 C    1.023
    43   6 C    3.992 --    42 C    1.023    44 C    1.002    97 H    0.970
                            96 H    0.939
    44   6 C    3.990 --    43 C    1.002   100 H    0.987    98 H    0.984
                            99 H    0.979
    45   6 C    3.927 --    42 C    1.385    60 C    1.275    46 S    1.061
    46  16 S    2.541 --    47 C    1.136    45 C    1.061
    47   6 C    3.934 --    41 C    1.311    48 C    1.261    46 S    1.136
    48   6 C    3.942 --    39 C    1.305    47 C    1.261    49 N    1.149
    49   7 N    3.547 --    50 C    1.177    48 C    1.149    58 C    0.968
    50   6 C    3.938 --    38 C    1.271    51 C    1.234    49 N    1.177
    51   6 C    3.939 --    31 C    1.271    50 C    1.234    52 N    1.177
    52   7 N    3.550 --    51 C    1.177    53 C    1.152    56 C    0.968
    53   6 C    3.942 --    30 C    1.308    54 C    1.255    52 N    1.152
    54   6 C    3.935 --    28 C    1.322    53 C    1.255    55 S    1.132
    55  16 S    2.539 --    54 C    1.132    24 C    1.064
    56   6 C    3.950 --    57 C    1.005    52 N    0.968   101 H    0.964
                           102 H    0.963
    57   6 C    3.985 --    56 C    1.005   103 H    0.986   105 H    0.983
                           104 H    0.979
    58   6 C    3.950 --    59 C    1.005    49 N    0.968   107 H    0.965
                           106 H    0.962
    59   6 C    3.987 --    58 C    1.005   110 H    0.987   109 H    0.984
                           108 H    0.980
    60   6 C    3.941 --    61 C    1.502    45 C    1.275   111 H    0.945
    61   6 C    3.956 --    60 C    1.502    72 C    1.150    62 C    1.041
    62   6 C    3.918 --    63 O    1.727    61 C    1.041    64 C    1.019
    63   8 O    2.018 --    62 C    1.727
    64   6 C    3.976 --    65 C    1.423    71 C    1.292    62 C    1.019
    65   6 C    3.977 --    64 C    1.423    66 C    1.389   112 H    0.960
    66   6 C    3.946 --    65 C    1.389    68 C    1.348    67 C    1.038
    67   6 C    3.983 --    66 C    1.038   113 H    0.982   115 H    0.959
                           114 H    0.959
    68   6 C    3.864 --    70 C    1.402    66 C    1.348    69 F    0.950
    69   9 F    1.076 --    68 C    0.950
    70   6 C    3.976 --    68 C    1.402    71 C    1.395   116 H    0.958
    71   6 C    3.982 --    70 C    1.395    64 C    1.292    72 C    1.087
    72   6 C    3.967 --    73 C    1.465    61 C    1.150    71 C    1.087
    73   6 C    3.929 --    72 C    1.465    76 C    1.104    74 C    1.102
    74   6 C    3.942 --    75 N    2.748    73 C    1.102
    75   7 N    2.952 --    74 C    2.748
    76   6 C    3.940 --    77 N    2.751    73 C    1.104
    77   7 N    2.955 --    76 C    2.751
    78   1 H    0.993 --     1 C    0.945
    79   1 H    0.995 --     6 C    0.963
    80   1 H    0.997 --     9 C    0.959
    81   1 H    0.995 --    17 C    0.957
    82   1 H    0.998 --    18 C    0.971
    83   1 H    0.999 --    19 C    0.972
    84   1 H    0.999 --    20 C    0.971
    85   1 H    0.998 --    21 C    0.971
    86   1 H    0.997 --    22 C    0.977
    87   1 H    0.995 --    22 C    0.976
    88   1 H    0.994 --    23 C    0.957
    89   1 H    0.993 --    26 C    0.944
    90   1 H    0.998 --    26 C    0.972
    91   1 H    0.996 --    27 C    0.984
    92   1 H    0.997 --    27 C    0.980
    93   1 H    0.998 --    27 C    0.987
    94   1 H    0.997 --    35 C    0.962
    95   1 H    0.997 --    36 C    0.962
    96   1 H    0.992 --    43 C    0.939
    97   1 H    0.998 --    43 C    0.970
    98   1 H    0.996 --    44 C    0.984
    99   1 H    0.996 --    44 C    0.979
   100   1 H    0.998 --    44 C    0.987
   101   1 H    0.991 --    56 C    0.964
   102   1 H    0.992 --    56 C    0.963
   103   1 H    0.997 --    57 C    0.986
   104   1 H    0.994 --    57 C    0.979
   105   1 H    0.997 --    57 C    0.983
   106   1 H    0.992 --    58 C    0.962
   107   1 H    0.991 --    58 C    0.965
   108   1 H    0.994 --    59 C    0.980
   109   1 H    0.997 --    59 C    0.984
   110   1 H    0.998 --    59 C    0.987
   111   1 H    0.992 --    60 C    0.945
   112   1 H    0.992 --    65 C    0.960
   113   1 H    0.994 --    67 C    0.982
   114   1 H    0.990 --    67 C    0.959
   115   1 H    0.990 --    67 C    0.959
   116   1 H    0.994 --    70 C    0.958
 ---------------------------------------------------------------------------

Topologies differ in bond orders
Writing corrected topology to xtbtopo.mol

molecular dipole:
                 x           y           z       tot (Debye)
 q only:       -2.452       1.938      -1.315
   full:       -2.903       1.985      -2.013      10.299
molecular quadrupole (traceless):
                xx          xy          yy          xz          yz          zz
 q only:       88.679     -30.471    -111.339     -23.556       1.597      22.660
  q+dip:       82.089     -28.542    -105.538     -26.335       2.833      23.449
   full:       88.622     -26.017    -109.861     -31.301       0.399      21.240


           -------------------------------------------------
          | TOTAL ENERGY             -201.835887389019 Eh   |
          | GRADIENT NORM               0.036062757547 Eh/α |
          | HOMO-LUMO GAP               0.768487624429 eV   |
           -------------------------------------------------

------------------------------------------------------------------------
 * finished run on 2022/02/02 at 14:16:46.395     
------------------------------------------------------------------------
 total:
 * wall-time:     0 d,  0 h,  0 min,  0.342 sec
 *  cpu-time:     0 d,  0 h,  0 min,  2.645 sec
 * ratio c/w:     7.736 speedup
 SCF:
 * wall-time:     0 d,  0 h,  0 min,  0.277 sec
 *  cpu-time:     0 d,  0 h,  0 min,  2.201 sec
 * ratio c/w:     7.959 speedup

