      -----------------------------------------------------------      
     |                   =====================                   |     
     |                           x T B                           |     
     |                   =====================                   |     
     |                         S. Grimme                         |     
     |          Mulliken Center for Theoretical Chemistry        |     
     |                    University of Bonn                     |     
      -----------------------------------------------------------      

   * xtb version 6.4.1 (unknown) compiled by 'oda6@login1.crc.pitt.edu' on 2021-06-25

   xtb is free software: you can redistribute it and/or modify it under
   the terms of the GNU Lesser General Public License as published by
   the Free Software Foundation, either version 3 of the License, or
   (at your option) any later version.
   
   xtb is distributed in the hope that it will be useful,
   but WITHOUT ANY WARRANTY; without even the implied warranty of
   MERCHANTABILITY or FITNESS FOR A PARTICULAR PURPOSE.  See the
   GNU Lesser General Public License for more details.
   
   Cite this work as:
   * C. Bannwarth, E. Caldeweyher, S. Ehlert, A. Hansen, P. Pracht,
     J. Seibert, S. Spicher, S. Grimme, WIREs Comput. Mol. Sci., 2020, 11,
     e01493. DOI: 10.1002/wcms.1493
   
   for GFN2-xTB:
   * C. Bannwarth, S. Ehlert and S. Grimme., J. Chem. Theory Comput., 2019,
     15, 1652-1671. DOI: 10.1021/acs.jctc.8b01176
   for GFN1-xTB:
   * S. Grimme, C. Bannwarth, P. Shushkov, J. Chem. Theory Comput., 2017,
     13, 1989-2009. DOI: 10.1021/acs.jctc.7b00118
   for GFN0-xTB:
   * P. Pracht, E. Caldeweyher, S. Ehlert, S. Grimme, ChemRxiv, 2019, preprint.
     DOI: 10.26434/chemrxiv.8326202.v1
   for GFN-FF:
   * S. Spicher and S. Grimme, Angew. Chem. Int. Ed., 2020, 59, 15665-15673.
     DOI: 10.1002/anie.202004239
   
   for DFT-D4:
   * E. Caldeweyher, C. Bannwarth and S. Grimme, J. Chem. Phys., 2017,
     147, 034112. DOI: 10.1063/1.4993215
   * E. Caldeweyher, S. Ehlert, A. Hansen, H. Neugebauer, S. Spicher,
     C. Bannwarth and S. Grimme, J. Chem. Phys., 2019, 150, 154122.
     DOI: 10.1063/1.5090222
   * E. Caldeweyher, J.-M. Mewes, S. Ehlert and S. Grimme, Phys. Chem. Chem. Phys.
     2020, 22, 8499-8512. DOI: 10.1039/D0CP00502A
   
   for sTDA-xTB:
   * S. Grimme and C. Bannwarth, J. Chem. Phys., 2016, 145, 054103.
     DOI: 10.1063/1.4959605
   
   in the mass-spec context:
   * V. Asgeirsson, C. Bauer and S. Grimme, Chem. Sci., 2017, 8, 4879.
     DOI: 10.1039/c7sc00601b
   * J. Koopman and S. Grimme, ACS Omega 2019, 4, 12, 15120-15133.
     DOI: 10.1021/acsomega.9b02011
   
   for metadynamics refer to:
   * S. Grimme, J. Chem. Theory Comput., 2019, 155, 2847-2862
     DOI: 10.1021/acs.jctc.9b00143
   
   for SPH calculations refer to:
   * S. Spicher and S. Grimme, J. Chem. Theory Comput., 2021, 17, 1701-1714
     DOI: 10.1021/acs.jctc.0c01306
   
   with help from (in alphabetical order)
   P. Atkinson, C. Bannwarth, F. Bohle, G. Brandenburg, E. Caldeweyher
   M. Checinski, S. Dohm, S. Ehlert, S. Ehrlich, I. Gerasimov, J. Koopman
   C. Lavigne, S. Lehtola, F. März, M. Müller, F. Musil, H. Neugebauer
   J. Pisarek, C. Plett, P. Pracht, J. Seibert, P. Shushkov, S. Spicher
   M. Stahn, M. Steiner, T. Strunk, J. Stückrath, T. Rose, and J. Unsleber
   
 * started run on 2022/02/01 at 17:44:59.496     

           -------------------------------------------------
          |                Calculation Setup                |
           -------------------------------------------------

          program call               : /ihome/ghutchison/oda6/xtb/xtb-641/bin/xtb ../../GFN2_output/39_92_35.mol --sp --alpb water
          hostname                   : smp-n98
          coordinate file            : ../../GFN2_output/39_92_35.mol
          omp threads                :                     8
          number of atoms            :                   130
          number of electrons        :                   430
          charge                     :                     0
          spin                       :                   0.0
          first test random number   :      0.24566687591452

   ID    Z sym.   atoms
    1    6 C      1-3, 5-13, 15, 17-24, 26, 27, 29-32, 36, 37, 39-42, 45, 46,
                  48-50, 52, 53, 55-60, 63, 64, 66-71, 73-75, 77-80, 82-87, 89
    2    8 O      4, 76, 81
    3    7 N      14, 16, 33, 35, 43, 44, 47, 51, 54, 61, 62, 65, 88, 90
    4   16 S      25, 28, 34, 38, 72
    5    1 H      91-130

           -------------------------------------------------
          |                 G F N 2 - x T B                 |
           -------------------------------------------------

        Reference                      10.1021/acs.jctc.8b01176
      * Hamiltonian:
        H0-scaling (s, p, d)           1.850000    2.230000    2.230000
        zeta-weighting                 0.500000
      * Dispersion:
        s8                             2.700000
        a1                             0.520000
        a2                             5.000000
        s9                             5.000000
      * Repulsion:
        kExp                           1.500000    1.000000
        rExp                           1.000000
      * Coulomb:
        alpha                          2.000000
        third order                    shell-resolved
        anisotropic                    true
        a3                             3.000000
        a5                             4.000000
        cn-shift                       1.200000
        cn-exp                         4.000000
        max-rad                        5.000000

      * Solvation model:               ALPB
        Solvent                        water
        Parameter file                 internal GFN2-xTB/ALPB
        Dielectric constant                8.0200E+01
        Reference state                gsolv [1 M gas/solution]
        Free energy shift                  1.0808E-03 Eh       6.7819E-01 kcal/mol
        Temperature                        2.9815E+02 K
        Density                            1.0000E+00 kg/L
        Solvent mass                       1.8000E+01 g/mol
        Interaction kernel             P16
        Born radius scaling (c1)           1.4744E+00
        Born radii integrator          GBOBC
        Born offset                        0.0000E+00 a0       0.0000E+00 AA
        H-bond correction              true
        Ion screening                  false
        Surface tension                    1.0000E-05 Eh       1.5569E+01 dyn/cm
        Grid points                               230 per atom

          ...................................................
          :                      SETUP                      :
          :.................................................:
          :  # basis functions                 430          :
          :  # atomic orbitals                 425          :
          :  # shells                          225          :
          :  # electrons                       430          :
          :  max. iterations                   250          :
          :  Hamiltonian                  GFN2-xTB          :
          :  restarted?                      false          :
          :  GBSA solvation                   true          :
          :  PC potential                    false          :
          :  electronic temp.          300.0000000     K    :
          :  accuracy                    1.0000000          :
          :  -> integral cutoff          0.2500000E+02      :
          :  -> integral neglect         0.1000000E-07      :
          :  -> SCF convergence          0.1000000E-05 Eh   :
          :  -> wf. convergence          0.1000000E-03 e    :
          :  Broyden damping             0.4000000          :
          ...................................................

 iter      E             dE          RMSdq      gap      omega  full diag
   1   -238.5945790 -0.238595E+03  0.457E+00    1.08       0.0  T
   2   -238.9059351 -0.311356E+00  0.279E+00    0.86       1.0  T
   3   -238.8903865  0.155487E-01  0.142E+00    1.02       1.0  T
   4   -238.9803720 -0.899856E-01  0.508E-01    0.95       1.0  T
   5   -239.0020830 -0.217110E-01  0.159E-01    0.89       1.0  T
   6   -239.0035269 -0.144392E-02  0.756E-02    0.93       1.0  T
   7   -239.0037660 -0.239055E-03  0.300E-02    0.92       1.0  T
   8   -239.0037861 -0.200890E-04  0.135E-02    0.92       1.0  T
   9   -239.0037933 -0.726105E-05  0.606E-03    0.92       1.4  T
  10   -239.0037942 -0.843366E-06  0.346E-03    0.92       2.5  T
  11   -239.0037946 -0.385401E-06  0.183E-03    0.92       4.8  T
  12   -239.0037947 -0.888205E-07  0.957E-04    0.92       9.2  T
  13   -239.0037947 -0.355602E-07  0.410E-04    0.92      21.4  T

   *** convergence criteria satisfied after 13 iterations ***

         #    Occupation            Energy/Eh            Energy/eV
      -------------------------------------------------------------
         1        2.0000           -0.7608089             -20.7027
       ...           ...                  ...                  ...
       209        2.0000           -0.4033434             -10.9755
       210        2.0000           -0.3981313             -10.8337
       211        2.0000           -0.3917563             -10.6602
       212        2.0000           -0.3878346             -10.5535
       213        2.0000           -0.3849492             -10.4750
       214        2.0000           -0.3760681             -10.2333
       215        2.0000           -0.3684196             -10.0252 (HOMO)
       216                         -0.3345472              -9.1035 (LUMO)
       217                         -0.3326769              -9.0526
       218                         -0.3196708              -8.6987
       219                         -0.3171557              -8.6302
       220                         -0.3015594              -8.2058
       ...                                ...                  ...
       425                          1.1500231              31.2937
      -------------------------------------------------------------
                  HL-Gap            0.0338724 Eh            0.9217 eV
             Fermi-level           -0.3515453 Eh           -9.5660 eV

 SCC (total)                   0 d,  0 h,  0 min,  0.323 sec
 SCC setup                      ...        0 min,  0.003 sec (  0.959%)
 Dispersion                     ...        0 min,  0.006 sec (  1.773%)
 classical contributions        ...        0 min,  0.000 sec (  0.048%)
 integral evaluation            ...        0 min,  0.019 sec (  5.760%)
 iterations                     ...        0 min,  0.247 sec ( 76.650%)
 molecular gradient             ...        0 min,  0.046 sec ( 14.321%)
 printout                       ...        0 min,  0.001 sec (  0.462%)

         :::::::::::::::::::::::::::::::::::::::::::::::::::::
         ::                     SUMMARY                     ::
         :::::::::::::::::::::::::::::::::::::::::::::::::::::
         :: total energy            -235.384514797681 Eh    ::
         :: total w/o Gsasa/hb      -235.358068275309 Eh    ::
         :: gradient norm              0.039282743188 Eh/a0 ::
         :: HOMO-LUMO gap              0.921716139014 eV    ::
         ::.................................................::
         :: SCC energy              -239.003794694792 Eh    ::
         :: -> isotropic ES            0.206031994956 Eh    ::
         :: -> anisotropic ES          0.001136978465 Eh    ::
         :: -> anisotropic XC          0.159259494071 Eh    ::
         :: -> dispersion             -0.210042108326 Eh    ::
         :: -> Gsolv                  -0.078099594216 Eh    ::
         ::    -> Gelec               -0.051653071843 Eh    ::
         ::    -> Gsasa               -0.019833564520 Eh    ::
         ::    -> Ghb                 -0.007693717551 Eh    ::
         ::    -> Gshift               0.001080759698 Eh    ::
         :: repulsion energy           3.620787441167 Eh    ::
         :: add. restraining           0.000000000000 Eh    ::
         :: total charge              -0.000000000007 e     ::
         :::::::::::::::::::::::::::::::::::::::::::::::::::::

           -------------------------------------------------
          |                Property Printout                |
           -------------------------------------------------

    * Orbital Energies and Occupations

         #    Occupation            Energy/Eh            Energy/eV
      -------------------------------------------------------------
         1        2.0000           -0.7608089             -20.7027
       ...           ...                  ...                  ...
       203        2.0000           -0.4151737             -11.2975
       204        2.0000           -0.4119308             -11.2092
       205        2.0000           -0.4090536             -11.1309
       206        2.0000           -0.4078512             -11.0982
       207        2.0000           -0.4068824             -11.0718
       208        2.0000           -0.4043563             -11.0031
       209        2.0000           -0.4033434             -10.9755
       210        2.0000           -0.3981313             -10.8337
       211        2.0000           -0.3917563             -10.6602
       212        2.0000           -0.3878346             -10.5535
       213        2.0000           -0.3849492             -10.4750
       214        2.0000           -0.3760681             -10.2333
       215        2.0000           -0.3684196             -10.0252 (HOMO)
       216                         -0.3345472              -9.1035 (LUMO)
       217                         -0.3326769              -9.0526
       218                         -0.3196708              -8.6987
       219                         -0.3171557              -8.6302
       220                         -0.3015594              -8.2058
       221                         -0.2863699              -7.7925
       222                         -0.2813844              -7.6569
       223                         -0.2557723              -6.9599
       224                         -0.2552856              -6.9467
       225                         -0.2532618              -6.8916
       226                         -0.2524449              -6.8694
       ...                                ...                  ...
       425                          1.1500231              31.2937
      -------------------------------------------------------------
                  HL-Gap            0.0338724 Eh            0.9217 eV
             Fermi-level           -0.3515453 Eh           -9.5660 eV

     #   Z          covCN         q      C6AA      α(0)
     1   6 C        2.938    -0.011    28.297     8.724
     2   6 C        3.006    -0.034    28.836     8.809
     3   6 C        2.873     0.233    23.127     7.883
     4   8 O        0.856    -0.427    22.235     6.322
     5   6 C        3.056    -0.022    28.488     8.753
     6   6 C        2.904    -0.024    28.595     8.768
     7   6 C        3.259     0.016    26.517     8.322
     8   6 C        3.258     0.017    26.509     8.323
     9   6 C        2.904    -0.032    28.804     8.800
    10   6 C        3.050     0.007    27.822     8.651
    11   6 C        3.017     0.042    27.027     8.528
    12   6 C        2.947     0.003    27.962     8.673
    13   6 C        1.941     0.135    27.796     8.514
    14   7 N        0.911    -0.277    27.149     7.536
    15   6 C        1.941     0.133    27.827     8.519
    16   7 N        0.911    -0.287    27.409     7.572
    17   6 C        4.162    -0.028    20.983     6.506
    18   6 C        4.011    -0.016    20.790     6.477
    19   6 C        2.988    -0.043    29.062     8.843
    20   6 C        2.987    -0.043    29.059     8.843
    21   6 C        4.012    -0.016    20.790     6.477
    22   6 C        3.927    -0.066    21.702     6.621
    23   6 C        4.162    -0.028    20.980     6.505
    24   6 C        2.989     0.030    27.328     8.575
    25  16 S        2.304    -0.011   141.507    20.021
    26   6 C        3.026     0.024    27.446     8.593
    27   6 C        3.038     0.013    27.682     8.630
    28  16 S        2.196    -0.048   143.034    20.129
    29   6 C        3.097     0.007    27.749     8.633
    30   6 C        3.083    -0.042    28.939     8.819
    31   6 C        3.343     0.068    23.990     7.738
    32   6 C        3.342     0.069    23.994     7.740
    33   7 N        1.854    -0.305    28.754     7.948
    34  16 S        2.689     0.289   129.814    19.176
    35   7 N        1.854    -0.303    28.710     7.942
    36   6 C        3.085    -0.044    28.995     8.827
    37   6 C        3.101     0.008    27.721     8.628
    38  16 S        2.196    -0.053   143.235    20.143
    39   6 C        3.039     0.013    27.678     8.629
    40   6 C        3.031     0.014    27.679     8.630
    41   6 C        3.122    -0.011    28.102     8.681
    42   6 C        3.154     0.051    26.570     8.430
    43   7 N        1.986    -0.256    27.473     7.773
    44   7 N        3.266     0.222    17.611     6.233
    45   6 C        3.744    -0.037    21.312     6.586
    46   6 C        3.753    -0.128    23.026     6.843
    47   7 N        1.990    -0.248    27.260     7.743
    48   6 C        3.139     0.051    26.636     8.446
    49   6 C        3.078    -0.017    28.357     8.731
    50   6 C        3.230     0.031    26.512     8.360
    51   7 N        2.808    -0.005    21.351     6.863
    52   6 C        3.065     0.032    27.211     8.554
    53   6 C        3.066     0.034    27.182     8.549
    54   7 N        2.801    -0.017    21.577     6.899
    55   6 C        3.241     0.032    26.375     8.326
    56   6 C        3.079    -0.020    28.416     8.739
    57   6 C        3.137     0.052    26.617     8.444
    58   6 C        3.157     0.051    26.549     8.425
    59   6 C        3.146    -0.013    28.064     8.667
    60   6 C        3.067    -0.040    28.930     8.820
    61   7 N        1.986    -0.260    27.560     7.786
    62   7 N        3.265     0.224    17.579     6.227
    63   6 C        3.745    -0.037    21.311     6.585
    64   6 C        3.753    -0.129    23.040     6.845
    65   7 N        1.990    -0.252    27.362     7.758
    66   6 C        3.746    -0.032    21.221     6.571
    67   6 C        3.752    -0.116    22.781     6.806
    68   6 C        3.741    -0.018    20.982     6.535
    69   6 C        3.752    -0.131    23.073     6.850
    70   6 C        3.069    -0.042    28.973     8.826
    71   6 C        2.983     0.032    27.271     8.566
    72  16 S        2.347    -0.003   141.169    19.997
    73   6 C        2.917    -0.014    28.352     8.732
    74   6 C        3.007    -0.037    28.902     8.819
    75   6 C        2.871     0.230    23.188     7.894
    76   8 O        0.952    -0.416    21.961     6.285
    77   6 C        3.043    -0.032    28.760     8.796
    78   6 C        2.913    -0.018    28.453     8.747
    79   6 C        2.918    -0.061    29.527     8.911
    80   6 C        2.866     0.161    24.518     8.117
    81   8 O        1.706    -0.263    18.354     5.784
    82   6 C        3.644     0.009    20.764     6.550
    83   6 C        2.915    -0.051    29.270     8.872
    84   6 C        3.033     0.009    27.784     8.646
    85   6 C        3.017     0.038    27.127     8.543
    86   6 C        2.947     0.003    27.958     8.672
    87   6 C        1.946     0.133    27.839     8.521
    88   7 N        0.911    -0.282    27.280     7.554
    89   6 C        1.948     0.135    27.786     8.513
    90   7 N        0.911    -0.279    27.214     7.545
    91   1 H        0.925     0.086     1.918     2.166
    92   1 H        0.926     0.068     2.105     2.269
    93   1 H        0.926     0.060     2.195     2.317
    94   1 H        0.925     0.063     2.165     2.301
    95   1 H        0.925     0.046     2.368     2.406
    96   1 H        0.926     0.032     2.551     2.498
    97   1 H        0.926     0.032     2.565     2.504
    98   1 H        0.925     0.045     2.378     2.412
    99   1 H        0.925     0.051     2.314     2.379
   100   1 H        0.925     0.050     2.317     2.380
   101   1 H        0.925     0.063     2.166     2.302
   102   1 H        0.924     0.101     1.775     2.083
   103   1 H        0.924     0.095     1.828     2.114
   104   1 H        0.925     0.078     1.995     2.209
   105   1 H        0.925     0.067     2.117     2.275
   106   1 H        0.925     0.058     2.224     2.332
   107   1 H        0.926     0.062     2.174     2.306
   108   1 H        0.924     0.103     1.756     2.072
   109   1 H        0.924     0.095     1.833     2.117
   110   1 H        0.925     0.067     2.119     2.277
   111   1 H        0.925     0.058     2.221     2.330
   112   1 H        0.925     0.080     1.981     2.201
   113   1 H        0.925     0.097     1.814     2.106
   114   1 H        0.924     0.101     1.778     2.085
   115   1 H        0.925     0.070     2.081     2.256
   116   1 H        0.925     0.036     2.504     2.475
   117   1 H        0.925     0.042     2.420     2.433
   118   1 H        0.924     0.079     1.989     2.205
   119   1 H        0.924     0.091     1.872     2.140
   120   1 H        0.925     0.061     2.184     2.311
   121   1 H        0.925     0.058     2.219     2.329
   122   1 H        0.925     0.074     2.041     2.234
   123   1 H        0.926     0.081     1.973     2.197
   124   1 H        0.925     0.074     2.044     2.236
   125   1 H        0.926     0.074     2.046     2.237
   126   1 H        0.926     0.081     1.969     2.194
   127   1 H        0.924     0.067     2.116     2.275
   128   1 H        0.925     0.094     1.845     2.124
   129   1 H        0.924     0.067     2.116     2.275
   130   1 H        0.926     0.068     2.102     2.267

 Mol. C6AA /au·bohr⁶  :     300638.644536
 Mol. C8AA /au·bohr⁸  :    8262973.638289
 Mol. α(0) /au        :        867.363089


Wiberg/Mayer (AO) data.
largest (>0.10) Wiberg bond orders for each atom

 ---------------------------------------------------------------------------
     #   Z sym  total        # sym  WBO       # sym  WBO       # sym  WBO
 ---------------------------------------------------------------------------
     1   6 C    3.940 --     2 C    1.570    24 C    1.216    91 H    0.948
     2   6 C    3.956 --     1 C    1.570    11 C    1.129     3 C    1.013
     3   6 C    3.912 --     4 O    1.736     5 C    1.034     2 C    1.013
     4   8 O    2.009 --     3 C    1.736
     5   6 C    3.972 --     6 C    1.378    10 C    1.297     3 C    1.034
     6   6 C    3.980 --     7 C    1.442     5 C    1.378    92 H    0.962
     7   6 C    3.952 --     6 C    1.442     8 C    1.320    23 C    0.998
     8   6 C    3.963 --     9 C    1.448     7 C    1.320    17 C    0.999
     9   6 C    3.978 --     8 C    1.448    10 C    1.366    93 H    0.959
    10   6 C    3.980 --     9 C    1.366     5 C    1.297    11 C    1.090
    11   6 C    3.971 --    12 C    1.473     2 C    1.129    10 C    1.090
    12   6 C    3.967 --    11 C    1.473    13 C    1.102    15 C    1.101
    13   6 C    3.942 --    14 N    2.750    12 C    1.102
    14   7 N    2.961 --    13 C    2.750
    15   6 C    3.940 --    16 N    2.749    12 C    1.101
    16   7 N    2.964 --    15 C    2.749
    17   6 C    3.983 --     8 C    0.999    23 C    0.977    94 H    0.956
                            18 C    0.945
    18   6 C    3.988 --    19 C    1.010    22 C    0.985    95 H    0.971
                            17 C    0.945
    19   6 C    3.987 --    20 C    1.924    18 C    1.010    96 H    0.971
    20   6 C    3.987 --    19 C    1.924    21 C    1.010    97 H    0.971
    21   6 C    3.987 --    20 C    1.010    22 C    0.985    98 H    0.971
                            23 C    0.945
    22   6 C    3.991 --    18 C    0.985    21 C    0.985    99 H    0.977
                           100 H    0.975
    23   6 C    3.982 --     7 C    0.998    17 C    0.977   101 H    0.956
                            21 C    0.945
    24   6 C    3.932 --    60 C    1.461     1 C    1.216    25 S    1.091
    25  16 S    2.550 --    26 C    1.148    24 C    1.091
    26   6 C    3.941 --    27 C    1.296    59 C    1.290    25 S    1.148
    27   6 C    3.933 --    56 C    1.317    26 C    1.296    28 S    1.104
    28  16 S    2.523 --    29 C    1.116    27 C    1.104
    29   6 C    3.921 --    55 C    1.320    30 C    1.267    28 S    1.116
    30   6 C    3.955 --    53 C    1.276    29 C    1.267    31 C    1.174
    31   6 C    3.971 --    35 N    1.424    30 C    1.174    32 C    1.162
                            34 S    0.107
    32   6 C    3.970 --    33 N    1.423    36 C    1.176    31 C    1.162
                            34 S    0.106
    33   7 N    3.057 --    32 C    1.423    34 S    1.375    35 N    0.145
    34  16 S    3.087 --    35 N    1.376    33 N    1.375    31 C    0.107
                            32 C    0.106
    35   7 N    3.057 --    31 C    1.424    34 S    1.376    33 N    0.145
    36   6 C    3.956 --    37 C    1.275    52 C    1.264    32 C    1.176
    37   6 C    3.920 --    50 C    1.307    36 C    1.275    38 S    1.120
    38  16 S    2.526 --    37 C    1.120    39 C    1.099
    39   6 C    3.931 --    49 C    1.316    40 C    1.300    38 S    1.099
    40   6 C    3.942 --    39 C    1.300    41 C    1.263    72 S    1.165
    41   6 C    3.960 --    70 C    1.349    40 C    1.263    42 C    1.155
    42   6 C    3.970 --    43 N    1.381    48 C    1.230    41 C    1.155
    43   7 N    2.984 --    42 C    1.381    44 N    1.285    47 N    0.190
    44   7 N    3.739 --    43 N    1.285    47 N    1.277    45 C    0.975
    45   6 C    3.944 --    46 C    0.997    44 N    0.975   103 H    0.964
                           102 H    0.960
    46   6 C    3.980 --    45 C    0.997   106 H    0.986   105 H    0.984
                           104 H    0.979
    47   7 N    2.985 --    48 C    1.369    44 N    1.277    43 N    0.190
    48   6 C    3.972 --    47 N    1.369    42 C    1.230    49 C    1.166
    49   6 C    3.950 --    39 C    1.316    50 C    1.220    48 C    1.166
    50   6 C    3.933 --    37 C    1.307    49 C    1.220    51 N    1.174
    51   7 N    3.586 --    52 C    1.196    50 C    1.174    68 C    0.972
    52   6 C    3.932 --    36 C    1.264    53 C    1.210    51 N    1.196
    53   6 C    3.934 --    30 C    1.276    52 C    1.210    54 N    1.180
    54   7 N    3.557 --    53 C    1.180    55 C    1.168    66 C    0.966
    55   6 C    3.936 --    29 C    1.320    56 C    1.215    54 N    1.168
    56   6 C    3.958 --    27 C    1.317    55 C    1.215    57 C    1.173
    57   6 C    3.973 --    65 N    1.364    58 C    1.228    56 C    1.173
    58   6 C    3.972 --    61 N    1.373    57 C    1.228    59 C    1.164
    59   6 C    3.965 --    60 C    1.302    26 C    1.290    58 C    1.164
    60   6 C    3.978 --    24 C    1.461    59 C    1.302   107 H    0.959
    61   7 N    2.984 --    58 C    1.373    62 N    1.289    65 N    0.193
    62   7 N    3.740 --    61 N    1.289    65 N    1.274    63 C    0.974
    63   6 C    3.943 --    64 C    0.997    62 N    0.974   109 H    0.963
                           108 H    0.960
    64   6 C    3.979 --    63 C    0.997   111 H    0.986   110 H    0.985
                           112 H    0.979
    65   7 N    2.996 --    57 C    1.364    62 N    1.274    61 N    0.193
    66   6 C    3.937 --    67 C    1.004    54 N    0.966   113 H    0.950
                           114 H    0.945
    67   6 C    3.988 --    66 C    1.004   116 H    0.987   117 H    0.985
                           115 H    0.980
    68   6 C    3.945 --    69 C    1.002    51 N    0.972   118 H    0.959
                           119 H    0.956
    69   6 C    3.982 --    68 C    1.002   122 H    0.980   120 H    0.979
                           121 H    0.979
    70   6 C    3.950 --    71 C    1.391    41 C    1.349   123 H    0.958
    71   6 C    3.936 --    70 C    1.391    73 C    1.288    72 S    1.096
    72  16 S    2.701 --    40 C    1.165    71 C    1.096    76 O    0.120
    73   6 C    3.936 --    74 C    1.503    71 C    1.288   124 H    0.938
    74   6 C    3.953 --    73 C    1.503    85 C    1.148    75 C    1.053
    75   6 C    3.906 --    76 O    1.676    74 C    1.053    77 C    1.048
    76   8 O    2.068 --    75 C    1.676    72 S    0.120
    77   6 C    3.972 --    78 C    1.407    84 C    1.263    75 C    1.048
    78   6 C    3.979 --    79 C    1.439    77 C    1.407   125 H    0.964
    79   6 C    3.961 --    78 C    1.439    80 C    1.351   126 H    0.960
    80   6 C    3.931 --    79 C    1.351    83 C    1.313    81 O    1.110
    81   8 O    2.258 --    80 C    1.110    82 C    0.963
    82   6 C    3.916 --   128 H    0.975   127 H    0.973   129 H    0.973
                            81 O    0.963
    83   6 C    3.974 --    84 C    1.450    80 C    1.313   130 H    0.958
    84   6 C    3.981 --    83 C    1.450    77 C    1.263    85 C    1.080
    85   6 C    3.964 --    86 C    1.472    74 C    1.148    84 C    1.080
    86   6 C    3.941 --    85 C    1.472    87 C    1.103    89 C    1.100
    87   6 C    3.941 --    88 N    2.739    86 C    1.103
    88   7 N    2.955 --    87 C    2.739
    89   6 C    3.940 --    90 N    2.750    86 C    1.100
    90   7 N    2.957 --    89 C    2.750
    91   1 H    0.990 --     1 C    0.948
    92   1 H    0.995 --     6 C    0.962
    93   1 H    0.996 --     9 C    0.959
    94   1 H    0.994 --    17 C    0.956
    95   1 H    0.998 --    18 C    0.971
    96   1 H    0.999 --    19 C    0.971
    97   1 H    0.999 --    20 C    0.971
    98   1 H    0.998 --    21 C    0.971
    99   1 H    0.997 --    22 C    0.977
   100   1 H    0.995 --    22 C    0.975
   101   1 H    0.994 --    23 C    0.956
   102   1 H    0.988 --    45 C    0.960
   103   1 H    0.990 --    45 C    0.964
   104   1 H    0.993 --    46 C    0.979
   105   1 H    0.995 --    46 C    0.984
   106   1 H    0.997 --    46 C    0.986
   107   1 H    0.995 --    60 C    0.959
   108   1 H    0.988 --    63 C    0.960
   109   1 H    0.990 --    63 C    0.963
   110   1 H    0.995 --    64 C    0.985
   111   1 H    0.997 --    64 C    0.986
   112   1 H    0.993 --    64 C    0.979
   113   1 H    0.989 --    66 C    0.950
   114   1 H    0.989 --    66 C    0.945
   115   1 H    0.994 --    67 C    0.980
   116   1 H    0.999 --    67 C    0.987
   117   1 H    0.998 --    67 C    0.985
   118   1 H    0.993 --    68 C    0.959
   119   1 H    0.989 --    68 C    0.956
   120   1 H    0.996 --    69 C    0.979
   121   1 H    0.997 --    69 C    0.979
   122   1 H    0.994 --    69 C    0.980
   123   1 H    0.993 --    70 C    0.958
   124   1 H    0.994 --    73 C    0.938
   125   1 H    0.994 --    78 C    0.964
   126   1 H    0.993 --    79 C    0.960
   127   1 H    0.994 --    82 C    0.973
   128   1 H    0.991 --    82 C    0.975
   129   1 H    0.994 --    82 C    0.973
   130   1 H    0.995 --    83 C    0.958
 ---------------------------------------------------------------------------

Topologies differ in bond orders
Writing corrected topology to xtbtopo.mol

molecular dipole:
                 x           y           z       tot (Debye)
 q only:       -0.277       4.388       5.682
   full:        0.564       3.899       5.031      16.243
molecular quadrupole (traceless):
                xx          xy          yy          xz          yz          zz
 q only:     -136.884       4.050      19.500      -2.706      75.240     117.384
  q+dip:     -141.753       4.545      22.611       4.882      71.823     119.142
   full:     -151.290       2.019      26.679       3.796      62.327     124.610


           -------------------------------------------------
          | TOTAL ENERGY             -235.384514797681 Eh   |
          | GRADIENT NORM               0.039282743188 Eh/α |
          | HOMO-LUMO GAP               0.921716139014 eV   |
           -------------------------------------------------

------------------------------------------------------------------------
 * finished run on 2022/02/01 at 17:44:59.889     
------------------------------------------------------------------------
 total:
 * wall-time:     0 d,  0 h,  0 min,  0.393 sec
 *  cpu-time:     0 d,  0 h,  0 min,  3.059 sec
 * ratio c/w:     7.777 speedup
 SCF:
 * wall-time:     0 d,  0 h,  0 min,  0.325 sec
 *  cpu-time:     0 d,  0 h,  0 min,  2.587 sec
 * ratio c/w:     7.972 speedup

