      -----------------------------------------------------------      
     |                   =====================                   |     
     |                           x T B                           |     
     |                   =====================                   |     
     |                         S. Grimme                         |     
     |          Mulliken Center for Theoretical Chemistry        |     
     |                    University of Bonn                     |     
      -----------------------------------------------------------      

   * xtb version 6.4.1 (unknown) compiled by 'oda6@login1.crc.pitt.edu' on 2021-06-25

   xtb is free software: you can redistribute it and/or modify it under
   the terms of the GNU Lesser General Public License as published by
   the Free Software Foundation, either version 3 of the License, or
   (at your option) any later version.
   
   xtb is distributed in the hope that it will be useful,
   but WITHOUT ANY WARRANTY; without even the implied warranty of
   MERCHANTABILITY or FITNESS FOR A PARTICULAR PURPOSE.  See the
   GNU Lesser General Public License for more details.
   
   Cite this work as:
   * C. Bannwarth, E. Caldeweyher, S. Ehlert, A. Hansen, P. Pracht,
     J. Seibert, S. Spicher, S. Grimme, WIREs Comput. Mol. Sci., 2020, 11,
     e01493. DOI: 10.1002/wcms.1493
   
   for GFN2-xTB:
   * C. Bannwarth, S. Ehlert and S. Grimme., J. Chem. Theory Comput., 2019,
     15, 1652-1671. DOI: 10.1021/acs.jctc.8b01176
   for GFN1-xTB:
   * S. Grimme, C. Bannwarth, P. Shushkov, J. Chem. Theory Comput., 2017,
     13, 1989-2009. DOI: 10.1021/acs.jctc.7b00118
   for GFN0-xTB:
   * P. Pracht, E. Caldeweyher, S. Ehlert, S. Grimme, ChemRxiv, 2019, preprint.
     DOI: 10.26434/chemrxiv.8326202.v1
   for GFN-FF:
   * S. Spicher and S. Grimme, Angew. Chem. Int. Ed., 2020, 59, 15665-15673.
     DOI: 10.1002/anie.202004239
   
   for DFT-D4:
   * E. Caldeweyher, C. Bannwarth and S. Grimme, J. Chem. Phys., 2017,
     147, 034112. DOI: 10.1063/1.4993215
   * E. Caldeweyher, S. Ehlert, A. Hansen, H. Neugebauer, S. Spicher,
     C. Bannwarth and S. Grimme, J. Chem. Phys., 2019, 150, 154122.
     DOI: 10.1063/1.5090222
   * E. Caldeweyher, J.-M. Mewes, S. Ehlert and S. Grimme, Phys. Chem. Chem. Phys.
     2020, 22, 8499-8512. DOI: 10.1039/D0CP00502A
   
   for sTDA-xTB:
   * S. Grimme and C. Bannwarth, J. Chem. Phys., 2016, 145, 054103.
     DOI: 10.1063/1.4959605
   
   in the mass-spec context:
   * V. Asgeirsson, C. Bauer and S. Grimme, Chem. Sci., 2017, 8, 4879.
     DOI: 10.1039/c7sc00601b
   * J. Koopman and S. Grimme, ACS Omega 2019, 4, 12, 15120-15133.
     DOI: 10.1021/acsomega.9b02011
   
   for metadynamics refer to:
   * S. Grimme, J. Chem. Theory Comput., 2019, 155, 2847-2862
     DOI: 10.1021/acs.jctc.9b00143
   
   for SPH calculations refer to:
   * S. Spicher and S. Grimme, J. Chem. Theory Comput., 2021, 17, 1701-1714
     DOI: 10.1021/acs.jctc.0c01306
   
   with help from (in alphabetical order)
   P. Atkinson, C. Bannwarth, F. Bohle, G. Brandenburg, E. Caldeweyher
   M. Checinski, S. Dohm, S. Ehlert, S. Ehrlich, I. Gerasimov, J. Koopman
   C. Lavigne, S. Lehtola, F. März, M. Müller, F. Musil, H. Neugebauer
   J. Pisarek, C. Plett, P. Pracht, J. Seibert, P. Shushkov, S. Spicher
   M. Stahn, M. Steiner, T. Strunk, J. Stückrath, T. Rose, and J. Unsleber
   
 * started run on 2022/02/10 at 20:17:52.136     

           -------------------------------------------------
          |                Calculation Setup                |
           -------------------------------------------------

          program call               : /ihome/ghutchison/oda6/xtb/xtb-641/bin/xtb ../../GFN2_output/44_100_65.mol --sp --alpb water
          hostname                   : smp-n32
          coordinate file            : ../../GFN2_output/44_100_65.mol
          omp threads                :                     8
          number of atoms            :                   113
          number of electrons        :                   396
          charge                     :                     0
          spin                       :                   0.0
          first test random number   :      0.65134454768351

   ID    Z sym.   atoms
    1    6 C      1-3, 5-7, 9, 11-13, 15-25, 27-30, 34, 35, 37-47, 49, 50,
                  52, 53, 55, 56, 58-64, 66, 67, 69, 71, 73, 75-78, 80
    2    8 O      4, 14, 65
    3   17 Cl     8, 10, 68, 70, 72, 74
    4   16 S      26, 32, 36, 48, 57
    5    7 N      31, 33, 51, 54, 79, 81
    6    1 H      82-113

           -------------------------------------------------
          |                 G F N 2 - x T B                 |
           -------------------------------------------------

        Reference                      10.1021/acs.jctc.8b01176
      * Hamiltonian:
        H0-scaling (s, p, d)           1.850000    2.230000    2.230000
        zeta-weighting                 0.500000
      * Dispersion:
        s8                             2.700000
        a1                             0.520000
        a2                             5.000000
        s9                             5.000000
      * Repulsion:
        kExp                           1.500000    1.000000
        rExp                           1.000000
      * Coulomb:
        alpha                          2.000000
        third order                    shell-resolved
        anisotropic                    true
        a3                             3.000000
        a5                             4.000000
        cn-shift                       1.200000
        cn-exp                         4.000000
        max-rad                        5.000000

      * Solvation model:               ALPB
        Solvent                        water
        Parameter file                 internal GFN2-xTB/ALPB
        Dielectric constant                8.0200E+01
        Reference state                gsolv [1 M gas/solution]
        Free energy shift                  1.0808E-03 Eh       6.7819E-01 kcal/mol
        Temperature                        2.9815E+02 K
        Density                            1.0000E+00 kg/L
        Solvent mass                       1.8000E+01 g/mol
        Interaction kernel             P16
        Born radius scaling (c1)           1.4744E+00
        Born radii integrator          GBOBC
        Born offset                        0.0000E+00 a0       0.0000E+00 AA
        H-bond correction              true
        Ion screening                  false
        Surface tension                    1.0000E-05 Eh       1.5569E+01 dyn/cm
        Grid points                               230 per atom

          ...................................................
          :                      SETUP                      :
          :.................................................:
          :  # basis functions                 422          :
          :  # atomic orbitals                 411          :
          :  # shells                          205          :
          :  # electrons                       396          :
          :  max. iterations                   250          :
          :  Hamiltonian                  GFN2-xTB          :
          :  restarted?                      false          :
          :  GBSA solvation                   true          :
          :  PC potential                    false          :
          :  electronic temp.          300.0000000     K    :
          :  accuracy                    1.0000000          :
          :  -> integral cutoff          0.2500000E+02      :
          :  -> integral neglect         0.1000000E-07      :
          :  -> SCF convergence          0.1000000E-05 Eh   :
          :  -> wf. convergence          0.1000000E-03 e    :
          :  Broyden damping             0.4000000          :
          ...................................................

 iter      E             dE          RMSdq      gap      omega  full diag
   1   -223.0171942 -0.223017E+03  0.474E+00    1.05       0.0  T
   2   -223.2586642 -0.241470E+00  0.279E+00    0.87       1.0  T
   3   -223.2269456  0.317186E-01  0.143E+00    0.86       1.0  T
   4   -223.3241954 -0.972498E-01  0.516E-01    0.94       1.0  T
   5   -223.3412170 -0.170217E-01  0.180E-01    0.80       1.0  T
   6   -223.3427800 -0.156300E-02  0.959E-02    0.85       1.0  T
   7   -223.3430633 -0.283254E-03  0.467E-02    0.85       1.0  T
   8   -223.3431175 -0.542383E-04  0.306E-02    0.85       1.0  T
   9   -223.3431403 -0.227992E-04  0.205E-02    0.85       1.0  T
  10   -223.3431542 -0.138591E-04  0.122E-02    0.85       1.0  T
  11   -223.3431594 -0.522222E-05  0.741E-03    0.85       1.3  T
  12   -223.3431614 -0.200337E-05  0.394E-03    0.85       2.4  T
  13   -223.3431620 -0.616014E-06  0.259E-03    0.85       3.6  T
  14   -223.3431622 -0.192692E-06  0.172E-03    0.85       5.5  T
  15   -223.3431624 -0.135225E-06  0.106E-03    0.85       8.9  T
  16   -223.3431624 -0.484155E-07  0.695E-04    0.85      13.5  T
  17   -223.3431624 -0.227848E-07  0.432E-04    0.85      21.8  T

   *** convergence criteria satisfied after 17 iterations ***

         #    Occupation            Energy/Eh            Energy/eV
      -------------------------------------------------------------
         1        2.0000           -1.0907398             -29.6805
       ...           ...                  ...                  ...
       192        2.0000           -0.4031544             -10.9704
       193        2.0000           -0.3979061             -10.8276
       194        2.0000           -0.3953704             -10.7586
       195        2.0000           -0.3909450             -10.6382
       196        2.0000           -0.3839799             -10.4486
       197        2.0000           -0.3763284             -10.2404
       198        2.0000           -0.3722777             -10.1302 (HOMO)
       199        0.0000           -0.3411382              -9.2828 (LUMO)
       200                         -0.3306564              -8.9976
       201                         -0.3219554              -8.7609
       202                         -0.3162529              -8.6057
       203                         -0.3016726              -8.2089
       ...                                ...                  ...
       411                          1.1440921              31.1323
      -------------------------------------------------------------
                  HL-Gap            0.0311395 Eh            0.8473 eV
             Fermi-level           -0.3567013 Eh           -9.7063 eV

 SCC (total)                   0 d,  0 h,  0 min,  0.345 sec
 SCC setup                      ...        0 min,  0.002 sec (  0.723%)
 Dispersion                     ...        0 min,  0.004 sec (  1.054%)
 classical contributions        ...        0 min,  0.000 sec (  0.045%)
 integral evaluation            ...        0 min,  0.017 sec (  4.814%)
 iterations                     ...        0 min,  0.277 sec ( 80.454%)
 molecular gradient             ...        0 min,  0.043 sec ( 12.471%)
 printout                       ...        0 min,  0.001 sec (  0.407%)

         :::::::::::::::::::::::::::::::::::::::::::::::::::::
         ::                     SUMMARY                     ::
         :::::::::::::::::::::::::::::::::::::::::::::::::::::
         :: total energy            -220.288884252782 Eh    ::
         :: total w/o Gsasa/hb      -220.278327471045 Eh    ::
         :: gradient norm              0.035017533339 Eh/a0 ::
         :: HOMO-LUMO gap              0.847347687143 eV    ::
         ::.................................................::
         :: SCC energy              -223.343162422982 Eh    ::
         :: -> isotropic ES            0.171851774537 Eh    ::
         :: -> anisotropic ES          0.002547865944 Eh    ::
         :: -> anisotropic XC          0.100165583654 Eh    ::
         :: -> dispersion             -0.205267024361 Eh    ::
         :: -> Gsolv                  -0.044650528109 Eh    ::
         ::    -> Gelec               -0.034093746372 Eh    ::
         ::    -> Gsasa               -0.007205764318 Eh    ::
         ::    -> Ghb                 -0.004431777117 Eh    ::
         ::    -> Gshift               0.001080759698 Eh    ::
         :: repulsion energy           3.053590426589 Eh    ::
         :: add. restraining           0.000000000000 Eh    ::
         :: total charge              -0.000000000005 e     ::
         :::::::::::::::::::::::::::::::::::::::::::::::::::::

           -------------------------------------------------
          |                Property Printout                |
           -------------------------------------------------

    * Orbital Energies and Occupations

         #    Occupation            Energy/Eh            Energy/eV
      -------------------------------------------------------------
         1        2.0000           -1.0907398             -29.6805
       ...           ...                  ...                  ...
       186        2.0000           -0.4175491             -11.3621
       187        2.0000           -0.4166807             -11.3385
       188        2.0000           -0.4140575             -11.2671
       189        2.0000           -0.4069957             -11.0749
       190        2.0000           -0.4050169             -11.0211
       191        2.0000           -0.4037910             -10.9877
       192        2.0000           -0.4031544             -10.9704
       193        2.0000           -0.3979061             -10.8276
       194        2.0000           -0.3953704             -10.7586
       195        2.0000           -0.3909450             -10.6382
       196        2.0000           -0.3839799             -10.4486
       197        2.0000           -0.3763284             -10.2404
       198        2.0000           -0.3722777             -10.1302 (HOMO)
       199        0.0000           -0.3411382              -9.2828 (LUMO)
       200                         -0.3306564              -8.9976
       201                         -0.3219554              -8.7609
       202                         -0.3162529              -8.6057
       203                         -0.3016726              -8.2089
       204                         -0.2891093              -7.8671
       205                         -0.2748827              -7.4799
       206                         -0.2625723              -7.1450
       207                         -0.2567530              -6.9866
       208                         -0.2545388              -6.9264
       209                         -0.2504308              -6.8146
       ...                                ...                  ...
       411                          1.1440921              31.1323
      -------------------------------------------------------------
                  HL-Gap            0.0311395 Eh            0.8473 eV
             Fermi-level           -0.3567013 Eh           -9.7063 eV

     #   Z          covCN         q      C6AA      α(0)
     1   6 C        2.955     0.002    27.985     8.677
     2   6 C        2.999    -0.067    29.647     8.932
     3   6 C        2.864     0.235    23.095     7.877
     4   8 O        0.856    -0.411    21.909     6.276
     5   6 C        3.028    -0.015    28.345     8.733
     6   6 C        2.952    -0.028    28.695     8.786
     7   6 C        2.922     0.099    25.806     8.330
     8  17 Cl       0.998    -0.139   103.521    15.566
     9   6 C        2.922     0.100    25.785     8.327
    10  17 Cl       0.998    -0.136   103.418    15.558
    11   6 C        2.953    -0.027    28.680     8.784
    12   6 C        3.033    -0.013    28.314     8.728
    13   6 C        2.857     0.230    23.180     7.891
    14   8 O        0.856    -0.400    21.677     6.242
    15   6 C        2.995     0.019    27.581     8.615
    16   6 C        3.098     0.014    27.574     8.605
    17   6 C        2.977     0.009    27.810     8.650
    18   6 C        2.929    -0.040    29.005     8.832
    19   6 C        2.918    -0.040    29.001     8.831
    20   6 C        2.918    -0.036    28.894     8.815
    21   6 C        2.928    -0.037    28.932     8.821
    22   6 C        2.968     0.029    27.355     8.579
    23   6 C        3.807    -0.060    21.655     6.624
    24   6 C        3.752    -0.109    22.643     6.786
    25   6 C        3.185     0.012    27.297     8.526
    26  16 S        2.183    -0.025   142.096    20.063
    27   6 C        3.101     0.006    27.763     8.635
    28   6 C        3.080    -0.035    28.786     8.796
    29   6 C        3.339     0.069    24.051     7.757
    30   6 C        3.339     0.070    24.045     7.758
    31   7 N        1.854    -0.297    28.555     7.920
    32  16 S        2.684     0.307   129.141    19.126
    33   7 N        1.854    -0.296    28.534     7.917
    34   6 C        3.083    -0.038    28.844     8.804
    35   6 C        3.098     0.011    27.639     8.616
    36  16 S        2.160    -0.035   142.521    20.093
    37   6 C        3.172     0.018    27.233     8.524
    38   6 C        3.107     0.012    27.598     8.607
    39   6 C        2.979     0.002    27.972     8.676
    40   6 C        2.972     0.011    27.755     8.642
    41   6 C        3.806    -0.062    21.683     6.629
    42   6 C        3.754    -0.106    22.580     6.776
    43   6 C        2.926    -0.038    28.952     8.824
    44   6 C        2.919    -0.029    28.725     8.789
    45   6 C        2.919    -0.032    28.797     8.800
    46   6 C        2.927    -0.033    28.818     8.804
    47   6 C        2.992     0.020    27.550     8.610
    48  16 S        2.314     0.025   140.054    19.918
    49   6 C        3.106     0.009    27.687     8.621
    50   6 C        3.250     0.032    26.265     8.296
    51   7 N        2.797    -0.006    21.379     6.867
    52   6 C        3.081     0.037    27.089     8.533
    53   6 C        3.084     0.034    27.144     8.541
    54   7 N        2.794    -0.020    21.636     6.908
    55   6 C        3.256     0.034    26.156     8.270
    56   6 C        3.121     0.014    27.526     8.592
    57  16 S        2.272    -0.002   141.135    19.995
    58   6 C        3.744    -0.019    20.978     6.534
    59   6 C        3.752    -0.127    23.001     6.839
    60   6 C        3.742    -0.016    20.930     6.527
    61   6 C        3.751    -0.132    23.108     6.855
    62   6 C        2.919    -0.009    28.232     8.713
    63   6 C        3.013    -0.040    28.966     8.828
    64   6 C        2.874     0.237    23.052     7.871
    65   8 O        0.963    -0.381    21.245     6.182
    66   6 C        3.082    -0.026    28.569     8.763
    67   6 C        2.912     0.099    25.803     8.329
    68  17 Cl       0.992    -0.078   101.596    15.421
    69   6 C        2.961     0.083    26.143     8.387
    70  17 Cl       1.032    -0.082   101.717    15.430
    71   6 C        2.964     0.085    26.096     8.379
    72  17 Cl       1.056    -0.087   101.873    15.442
    73   6 C        2.915     0.092    25.962     8.355
    74  17 Cl       1.016    -0.102   102.336    15.477
    75   6 C        3.057     0.003    27.898     8.662
    76   6 C        3.022     0.044    26.998     8.523
    77   6 C        2.947     0.011    27.766     8.642
    78   6 C        1.960     0.135    27.769     8.510
    79   7 N        0.911    -0.278    27.171     7.539
    80   6 C        1.952     0.133    27.830     8.519
    81   7 N        0.911    -0.266    26.889     7.500
    82   1 H        0.925     0.091     1.873     2.140
    83   1 H        0.926     0.109     1.708     2.044
    84   1 H        0.926     0.106     1.727     2.055
    85   1 H        0.926     0.030     2.586     2.515
    86   1 H        0.926     0.040     2.452     2.449
    87   1 H        0.926     0.045     2.390     2.417
    88   1 H        0.926     0.049     2.326     2.385
    89   1 H        0.925     0.040     2.453     2.449
    90   1 H        0.924     0.058     2.224     2.332
    91   1 H        0.925     0.041     2.436     2.441
    92   1 H        0.925     0.046     2.372     2.408
    93   1 H        0.925     0.044     2.401     2.423
    94   1 H        0.924     0.035     2.521     2.483
    95   1 H        0.924     0.044     2.390     2.418
    96   1 H        0.925     0.037     2.492     2.469
    97   1 H        0.925     0.043     2.404     2.425
    98   1 H        0.925     0.047     2.357     2.401
    99   1 H        0.926     0.044     2.392     2.418
   100   1 H        0.926     0.046     2.373     2.409
   101   1 H        0.926     0.046     2.365     2.405
   102   1 H        0.926     0.039     2.467     2.456
   103   1 H        0.925     0.095     1.829     2.115
   104   1 H        0.924     0.083     1.948     2.182
   105   1 H        0.925     0.051     2.305     2.374
   106   1 H        0.925     0.051     2.307     2.375
   107   1 H        0.925     0.073     2.052     2.240
   108   1 H        0.924     0.078     1.997     2.210
   109   1 H        0.924     0.086     1.918     2.166
   110   1 H        0.925     0.063     2.168     2.302
   111   1 H        0.925     0.075     2.033     2.230
   112   1 H        0.925     0.064     2.155     2.296
   113   1 H        0.925     0.075     2.031     2.229

 Mol. C6AA /au·bohr⁶  :     276371.211713
 Mol. C8AA /au·bohr⁸  :    8206475.853029
 Mol. α(0) /au        :        836.988116


Wiberg/Mayer (AO) data.
largest (>0.10) Wiberg bond orders for each atom

 ---------------------------------------------------------------------------
     #   Z sym  total        # sym  WBO       # sym  WBO       # sym  WBO
 ---------------------------------------------------------------------------
     1   6 C    3.951 --     2 C    1.541    15 C    1.262    82 H    0.946
     2   6 C    3.955 --     1 C    1.541    13 C    1.067     3 C    1.052
     3   6 C    3.919 --     4 O    1.744     2 C    1.052     5 C    1.006
     4   8 O    2.011 --     3 C    1.744
     5   6 C    3.981 --     6 C    1.419    12 C    1.311     3 C    1.006
     6   6 C    3.974 --     5 C    1.419     7 C    1.388    83 H    0.956
     7   6 C    3.915 --     6 C    1.388     9 C    1.354     8 Cl   0.999
     8  17 Cl   1.146 --     7 C    0.999
     9   6 C    3.917 --    11 C    1.386     7 C    1.354    10 Cl   1.002
    10  17 Cl   1.149 --     9 C    1.002
    11   6 C    3.975 --    12 C    1.422     9 C    1.386    84 H    0.956
    12   6 C    3.984 --    11 C    1.422     5 C    1.311    13 C    1.002
    13   6 C    3.931 --    14 O    1.735     2 C    1.067    12 C    1.002
    14   8 O    2.036 --    13 C    1.735
    15   6 C    3.927 --    16 C    1.375     1 C    1.262    57 S    1.074
    16   6 C    3.967 --    15 C    1.375    25 C    1.299    17 C    1.042
    17   6 C    3.985 --    18 C    1.378    22 C    1.356    16 C    1.042
    18   6 C    3.989 --    19 C    1.459    17 C    1.378    85 H    0.969
                            21 C    0.107
    19   6 C    3.989 --    18 C    1.459    20 C    1.412    86 H    0.969
                            22 C    0.100
    20   6 C    3.986 --    21 C    1.461    19 C    1.412    87 H    0.970
    21   6 C    3.988 --    20 C    1.461    22 C    1.396    88 H    0.965
                            18 C    0.107
    22   6 C    3.981 --    21 C    1.396    17 C    1.356    23 C    1.015
                            19 C    0.100
    23   6 C    3.995 --    22 C    1.015    24 C    1.005    89 H    0.972
                            90 H    0.960
    24   6 C    3.993 --    23 C    1.005    92 H    0.986    93 H    0.985
                            91 H    0.984
    25   6 C    3.929 --    56 C    1.318    16 C    1.299    26 S    1.090
    26  16 S    2.530 --    27 C    1.117    25 C    1.090
    27   6 C    3.919 --    55 C    1.303    28 C    1.270    26 S    1.117
    28   6 C    3.952 --    27 C    1.270    53 C    1.270    29 C    1.172
    29   6 C    3.970 --    33 N    1.425    28 C    1.172    30 C    1.164
                            32 S    0.106
    30   6 C    3.969 --    31 N    1.427    34 C    1.170    29 C    1.164
                            32 S    0.106
    31   7 N    3.060 --    30 C    1.427    32 S    1.381    33 N    0.144
    32  16 S    3.096 --    33 N    1.382    31 N    1.381    29 C    0.106
                            30 C    0.106
    33   7 N    3.060 --    29 C    1.425    32 S    1.382    31 N    0.144
    34   6 C    3.952 --    35 C    1.291    52 C    1.251    30 C    1.170
    35   6 C    3.912 --    34 C    1.291    50 C    1.283    36 S    1.114
    36  16 S    2.503 --    35 C    1.114    37 C    1.078
    37   6 C    3.927 --    38 C    1.378    49 C    1.267    36 S    1.078
    38   6 C    3.963 --    37 C    1.378    47 C    1.287    39 C    1.024
    39   6 C    3.984 --    46 C    1.391    40 C    1.364    38 C    1.024
                            44 C    0.105
    40   6 C    3.984 --    43 C    1.415    39 C    1.364    41 C    1.013
                            45 C    0.106
    41   6 C    3.996 --    40 C    1.013    42 C    0.999    95 H    0.974
                            94 H    0.970
    42   6 C    3.994 --    41 C    0.999    97 H    0.988    96 H    0.987
                            98 H    0.985
    43   6 C    3.990 --    44 C    1.444    40 C    1.415    99 H    0.967
                            46 C    0.108
    44   6 C    3.987 --    43 C    1.444    45 C    1.432   100 H    0.970
                            39 C    0.105
    45   6 C    3.989 --    46 C    1.446    44 C    1.432   101 H    0.968
                            40 C    0.106
    46   6 C    3.987 --    45 C    1.446    39 C    1.391   102 H    0.970
                            43 C    0.108
    47   6 C    3.931 --    62 C    1.357    38 C    1.287    48 S    1.073
    48  16 S    2.722 --    49 C    1.163    47 C    1.073    65 O    0.123
    49   6 C    3.939 --    50 C    1.269    37 C    1.267    48 S    1.163
    50   6 C    3.940 --    35 C    1.283    49 C    1.269    51 N    1.162
    51   7 N    3.580 --    52 C    1.198    50 C    1.162    60 C    0.971
    52   6 C    3.929 --    34 C    1.251    53 C    1.222    51 N    1.198
    53   6 C    3.934 --    28 C    1.270    52 C    1.222    54 N    1.177
    54   7 N    3.552 --    53 C    1.177    55 C    1.160    58 C    0.966
    55   6 C    3.940 --    27 C    1.303    56 C    1.252    54 N    1.160
    56   6 C    3.937 --    25 C    1.318    55 C    1.252    57 S    1.141
    57  16 S    2.559 --    56 C    1.141    15 C    1.074
    58   6 C    3.944 --    59 C    1.005    54 N    0.966   104 H    0.963
                           103 H    0.955
    59   6 C    3.985 --    58 C    1.005   105 H    0.986   106 H    0.984
                           107 H    0.979
    60   6 C    3.947 --    61 C    1.006    51 N    0.971   109 H    0.962
                           108 H    0.960
    61   6 C    3.981 --    60 C    1.006   111 H    0.980   110 H    0.978
                           112 H    0.977
    62   6 C    3.937 --    63 C    1.435    47 C    1.357   113 H    0.934
    63   6 C    3.950 --    62 C    1.435    76 C    1.148    64 C    1.091
    64   6 C    3.918 --    65 O    1.677    63 C    1.091    66 C    1.017
    65   8 O    2.088 --    64 C    1.677    48 S    0.123
    66   6 C    3.970 --    67 C    1.384    75 C    1.272    64 C    1.017
    67   6 C    3.929 --    66 C    1.384    69 C    1.310    68 Cl   1.036
    68  17 Cl   1.203 --    67 C    1.036
    69   6 C    3.923 --    71 C    1.371    67 C    1.310    70 Cl   1.029
    70  17 Cl   1.189 --    69 C    1.029
    71   6 C    3.927 --    69 C    1.371    73 C    1.315    72 Cl   1.028
    72  17 Cl   1.186 --    71 C    1.028
    73   6 C    3.915 --    75 C    1.371    71 C    1.315    74 Cl   1.018
    74  17 Cl   1.193 --    73 C    1.018
    75   6 C    3.978 --    73 C    1.371    66 C    1.272    76 C    1.082
    76   6 C    3.961 --    77 C    1.465    63 C    1.148    75 C    1.082
    77   6 C    3.948 --    76 C    1.465    78 C    1.100    80 C    1.098
    78   6 C    3.940 --    79 N    2.749    77 C    1.100
    79   7 N    2.956 --    78 C    2.749
    80   6 C    3.942 --    81 N    2.746    77 C    1.098
    81   7 N    2.956 --    80 C    2.746
    82   1 H    0.989 --     1 C    0.946
    83   1 H    0.988 --     6 C    0.956
    84   1 H    0.988 --    11 C    0.956
    85   1 H    0.999 --    18 C    0.969
    86   1 H    0.997 --    19 C    0.969
    87   1 H    0.997 --    20 C    0.970
    88   1 H    0.996 --    21 C    0.965
    89   1 H    0.998 --    23 C    0.972
    90   1 H    0.996 --    23 C    0.960
    91   1 H    0.998 --    24 C    0.984
    92   1 H    0.997 --    24 C    0.986
    93   1 H    0.998 --    24 C    0.985
    94   1 H    0.999 --    41 C    0.970
    95   1 H    0.997 --    41 C    0.974
    96   1 H    0.999 --    42 C    0.987
    97   1 H    0.998 --    42 C    0.988
    98   1 H    0.997 --    42 C    0.985
    99   1 H    0.997 --    43 C    0.967
   100   1 H    0.997 --    44 C    0.970
   101   1 H    0.996 --    45 C    0.968
   102   1 H    0.998 --    46 C    0.970
   103   1 H    0.990 --    58 C    0.955
   104   1 H    0.991 --    58 C    0.963
   105   1 H    0.997 --    59 C    0.986
   106   1 H    0.997 --    59 C    0.984
   107   1 H    0.994 --    59 C    0.979
   108   1 H    0.991 --    60 C    0.960
   109   1 H    0.992 --    60 C    0.962
   110   1 H    0.996 --    61 C    0.978
   111   1 H    0.993 --    61 C    0.980
   112   1 H    0.996 --    61 C    0.977
   113   1 H    0.993 --    62 C    0.934
 ---------------------------------------------------------------------------

Topologies differ in bond orders
Writing corrected topology to xtbtopo.mol

molecular dipole:
                 x           y           z       tot (Debye)
 q only:        3.004      -0.124      -0.047
   full:        2.635      -0.470      -0.707       7.037
molecular quadrupole (traceless):
                xx          xy          yy          xz          yz          zz
 q only:       57.195      82.144    -123.928      -4.895     -40.932      66.733
  q+dip:       31.816      77.049     -70.487      -1.619     -45.345      38.670
   full:       40.144      79.540     -74.157       1.885     -45.684      34.013


           -------------------------------------------------
          | TOTAL ENERGY             -220.288884252782 Eh   |
          | GRADIENT NORM               0.035017533339 Eh/α |
          | HOMO-LUMO GAP               0.847347687143 eV   |
           -------------------------------------------------

------------------------------------------------------------------------
 * finished run on 2022/02/10 at 20:17:52.547     
------------------------------------------------------------------------
 total:
 * wall-time:     0 d,  0 h,  0 min,  0.411 sec
 *  cpu-time:     0 d,  0 h,  0 min,  3.196 sec
 * ratio c/w:     7.771 speedup
 SCF:
 * wall-time:     0 d,  0 h,  0 min,  0.347 sec
 *  cpu-time:     0 d,  0 h,  0 min,  2.766 sec
 * ratio c/w:     7.975 speedup

