      -----------------------------------------------------------      
     |                   =====================                   |     
     |                           x T B                           |     
     |                   =====================                   |     
     |                         S. Grimme                         |     
     |          Mulliken Center for Theoretical Chemistry        |     
     |                    University of Bonn                     |     
      -----------------------------------------------------------      

   * xtb version 6.4.1 (unknown) compiled by 'oda6@login1.crc.pitt.edu' on 2021-06-25

   xtb is free software: you can redistribute it and/or modify it under
   the terms of the GNU Lesser General Public License as published by
   the Free Software Foundation, either version 3 of the License, or
   (at your option) any later version.
   
   xtb is distributed in the hope that it will be useful,
   but WITHOUT ANY WARRANTY; without even the implied warranty of
   MERCHANTABILITY or FITNESS FOR A PARTICULAR PURPOSE.  See the
   GNU Lesser General Public License for more details.
   
   Cite this work as:
   * C. Bannwarth, E. Caldeweyher, S. Ehlert, A. Hansen, P. Pracht,
     J. Seibert, S. Spicher, S. Grimme, WIREs Comput. Mol. Sci., 2020, 11,
     e01493. DOI: 10.1002/wcms.1493
   
   for GFN2-xTB:
   * C. Bannwarth, S. Ehlert and S. Grimme., J. Chem. Theory Comput., 2019,
     15, 1652-1671. DOI: 10.1021/acs.jctc.8b01176
   for GFN1-xTB:
   * S. Grimme, C. Bannwarth, P. Shushkov, J. Chem. Theory Comput., 2017,
     13, 1989-2009. DOI: 10.1021/acs.jctc.7b00118
   for GFN0-xTB:
   * P. Pracht, E. Caldeweyher, S. Ehlert, S. Grimme, ChemRxiv, 2019, preprint.
     DOI: 10.26434/chemrxiv.8326202.v1
   for GFN-FF:
   * S. Spicher and S. Grimme, Angew. Chem. Int. Ed., 2020, 59, 15665-15673.
     DOI: 10.1002/anie.202004239
   
   for DFT-D4:
   * E. Caldeweyher, C. Bannwarth and S. Grimme, J. Chem. Phys., 2017,
     147, 034112. DOI: 10.1063/1.4993215
   * E. Caldeweyher, S. Ehlert, A. Hansen, H. Neugebauer, S. Spicher,
     C. Bannwarth and S. Grimme, J. Chem. Phys., 2019, 150, 154122.
     DOI: 10.1063/1.5090222
   * E. Caldeweyher, J.-M. Mewes, S. Ehlert and S. Grimme, Phys. Chem. Chem. Phys.
     2020, 22, 8499-8512. DOI: 10.1039/D0CP00502A
   
   for sTDA-xTB:
   * S. Grimme and C. Bannwarth, J. Chem. Phys., 2016, 145, 054103.
     DOI: 10.1063/1.4959605
   
   in the mass-spec context:
   * V. Asgeirsson, C. Bauer and S. Grimme, Chem. Sci., 2017, 8, 4879.
     DOI: 10.1039/c7sc00601b
   * J. Koopman and S. Grimme, ACS Omega 2019, 4, 12, 15120-15133.
     DOI: 10.1021/acsomega.9b02011
   
   for metadynamics refer to:
   * S. Grimme, J. Chem. Theory Comput., 2019, 155, 2847-2862
     DOI: 10.1021/acs.jctc.9b00143
   
   for SPH calculations refer to:
   * S. Spicher and S. Grimme, J. Chem. Theory Comput., 2021, 17, 1701-1714
     DOI: 10.1021/acs.jctc.0c01306
   
   with help from (in alphabetical order)
   P. Atkinson, C. Bannwarth, F. Bohle, G. Brandenburg, E. Caldeweyher
   M. Checinski, S. Dohm, S. Ehlert, S. Ehrlich, I. Gerasimov, J. Koopman
   C. Lavigne, S. Lehtola, F. März, M. Müller, F. Musil, H. Neugebauer
   J. Pisarek, C. Plett, P. Pracht, J. Seibert, P. Shushkov, S. Spicher
   M. Stahn, M. Steiner, T. Strunk, J. Stückrath, T. Rose, and J. Unsleber
   
 * started run on 2022/02/01 at 18:09:43.450     

           -------------------------------------------------
          |                Calculation Setup                |
           -------------------------------------------------

          program call               : /ihome/ghutchison/oda6/xtb/xtb-641/bin/xtb ../../GFN2_output/52_51_29.mol --sp --alpb water
          hostname                   : smp-n66
          coordinate file            : ../../GFN2_output/52_51_29.mol
          omp threads                :                     8
          number of atoms            :                   103
          number of electrons        :                   344
          charge                     :                     0
          spin                       :                   0.0
          first test random number   :      0.09905292811780

   ID    Z sym.   atoms
    1    6 C      1, 2, 4-6, 8, 11-17, 19-23, 25-28, 32, 33, 35-39, 41, 42,
                  44, 45, 47, 48, 50-56, 58-62, 64-68, 70
    2   16 S      3, 24, 30, 34, 40, 49
    3    7 N      7, 9, 10, 29, 31, 43, 46, 69, 71
    4    8 O      18, 57
    5    9 F      63
    6    1 H      72-103

           -------------------------------------------------
          |                 G F N 2 - x T B                 |
           -------------------------------------------------

        Reference                      10.1021/acs.jctc.8b01176
      * Hamiltonian:
        H0-scaling (s, p, d)           1.850000    2.230000    2.230000
        zeta-weighting                 0.500000
      * Dispersion:
        s8                             2.700000
        a1                             0.520000
        a2                             5.000000
        s9                             5.000000
      * Repulsion:
        kExp                           1.500000    1.000000
        rExp                           1.000000
      * Coulomb:
        alpha                          2.000000
        third order                    shell-resolved
        anisotropic                    true
        a3                             3.000000
        a5                             4.000000
        cn-shift                       1.200000
        cn-exp                         4.000000
        max-rad                        5.000000

      * Solvation model:               ALPB
        Solvent                        water
        Parameter file                 internal GFN2-xTB/ALPB
        Dielectric constant                8.0200E+01
        Reference state                gsolv [1 M gas/solution]
        Free energy shift                  1.0808E-03 Eh       6.7819E-01 kcal/mol
        Temperature                        2.9815E+02 K
        Density                            1.0000E+00 kg/L
        Solvent mass                       1.8000E+01 g/mol
        Interaction kernel             P16
        Born radius scaling (c1)           1.4744E+00
        Born radii integrator          GBOBC
        Born offset                        0.0000E+00 a0       0.0000E+00 AA
        H-bond correction              true
        Ion screening                  false
        Surface tension                    1.0000E-05 Eh       1.5569E+01 dyn/cm
        Grid points                               230 per atom

          ...................................................
          :                      SETUP                      :
          :.................................................:
          :  # basis functions                 352          :
          :  # atomic orbitals                 346          :
          :  # shells                          180          :
          :  # electrons                       344          :
          :  max. iterations                   250          :
          :  Hamiltonian                  GFN2-xTB          :
          :  restarted?                      false          :
          :  GBSA solvation                   true          :
          :  PC potential                    false          :
          :  electronic temp.          300.0000000     K    :
          :  accuracy                    1.0000000          :
          :  -> integral cutoff          0.2500000E+02      :
          :  -> integral neglect         0.1000000E-07      :
          :  -> SCF convergence          0.1000000E-05 Eh   :
          :  -> wf. convergence          0.1000000E-03 e    :
          :  Broyden damping             0.4000000          :
          ...................................................

 iter      E             dE          RMSdq      gap      omega  full diag
   1   -191.0622144 -0.191062E+03  0.481E+00    1.10       0.0  T
   2   -191.2925753 -0.230361E+00  0.292E+00    1.00       1.0  T
   3   -191.2676297  0.249457E-01  0.155E+00    1.04       1.0  T
   4   -191.3733169 -0.105687E+00  0.521E-01    1.05       1.0  T
   5   -191.3871839 -0.138671E-01  0.180E-01    0.99       1.0  T
   6   -191.3883853 -0.120132E-02  0.930E-02    1.03       1.0  T
   7   -191.3886459 -0.260590E-03  0.322E-02    1.02       1.0  T
   8   -191.3886634 -0.175478E-04  0.164E-02    1.02       1.0  T
   9   -191.3886699 -0.648715E-05  0.825E-03    1.02       1.2  T
  10   -191.3886712 -0.135573E-05  0.461E-03    1.02       2.1  T
  11   -191.3886719 -0.663146E-06  0.253E-03    1.02       3.9  T
  12   -191.3886720 -0.120939E-06  0.121E-03    1.02       8.2  T
  13   -191.3886721 -0.365160E-07  0.504E-04    1.02      19.5  T
  14   -191.3886721 -0.555582E-08  0.267E-04    1.02      36.8  T

   *** convergence criteria satisfied after 14 iterations ***

         #    Occupation            Energy/Eh            Energy/eV
      -------------------------------------------------------------
         1        2.0000           -0.8402122             -22.8633
       ...           ...                  ...                  ...
       166        2.0000           -0.4103309             -11.1657
       167        2.0000           -0.4063100             -11.0563
       168        2.0000           -0.4038972             -10.9906
       169        2.0000           -0.3891567             -10.5895
       170        2.0000           -0.3855255             -10.4907
       171        2.0000           -0.3770411             -10.2598
       172        2.0000           -0.3713184             -10.1041 (HOMO)
       173                         -0.3337539              -9.0819 (LUMO)
       174                         -0.3260729              -8.8729
       175                         -0.3202594              -8.7147
       176                         -0.3023255              -8.2267
       177                         -0.2861685              -7.7870
       ...                                ...                  ...
       346                          1.1546507              31.4196
      -------------------------------------------------------------
                  HL-Gap            0.0375645 Eh            1.0222 eV
             Fermi-level           -0.3525351 Eh           -9.5930 eV

 SCC (total)                   0 d,  0 h,  0 min,  0.233 sec
 SCC setup                      ...        0 min,  0.002 sec (  0.878%)
 Dispersion                     ...        0 min,  0.004 sec (  1.543%)
 classical contributions        ...        0 min,  0.000 sec (  0.049%)
 integral evaluation            ...        0 min,  0.012 sec (  5.205%)
 iterations                     ...        0 min,  0.183 sec ( 78.699%)
 molecular gradient             ...        0 min,  0.031 sec ( 13.250%)
 printout                       ...        0 min,  0.001 sec (  0.346%)

         :::::::::::::::::::::::::::::::::::::::::::::::::::::
         ::                     SUMMARY                     ::
         :::::::::::::::::::::::::::::::::::::::::::::::::::::
         :: total energy            -188.492554401176 Eh    ::
         :: total w/o Gsasa/hb      -188.474019137181 Eh    ::
         :: gradient norm              0.040525902137 Eh/a0 ::
         :: HOMO-LUMO gap              1.022182201955 eV    ::
         ::.................................................::
         :: SCC energy              -191.388672073272 Eh    ::
         :: -> isotropic ES            0.173296758326 Eh    ::
         :: -> anisotropic ES          0.007616808161 Eh    ::
         :: -> anisotropic XC          0.119102662766 Eh    ::
         :: -> dispersion             -0.166844983103 Eh    ::
         :: -> Gsolv                  -0.057901258778 Eh    ::
         ::    -> Gelec               -0.039365994784 Eh    ::
         ::    -> Gsasa               -0.013606682519 Eh    ::
         ::    -> Ghb                 -0.006009341174 Eh    ::
         ::    -> Gshift               0.001080759698 Eh    ::
         :: repulsion energy           2.897545271659 Eh    ::
         :: add. restraining           0.000000000000 Eh    ::
         :: total charge               0.000000000011 e     ::
         :::::::::::::::::::::::::::::::::::::::::::::::::::::

           -------------------------------------------------
          |                Property Printout                |
           -------------------------------------------------

    * Orbital Energies and Occupations

         #    Occupation            Energy/Eh            Energy/eV
      -------------------------------------------------------------
         1        2.0000           -0.8402122             -22.8633
       ...           ...                  ...                  ...
       160        2.0000           -0.4225422             -11.4980
       161        2.0000           -0.4219833             -11.4828
       162        2.0000           -0.4191609             -11.4059
       163        2.0000           -0.4189412             -11.4000
       164        2.0000           -0.4174590             -11.3596
       165        2.0000           -0.4160123             -11.3203
       166        2.0000           -0.4103309             -11.1657
       167        2.0000           -0.4063100             -11.0563
       168        2.0000           -0.4038972             -10.9906
       169        2.0000           -0.3891567             -10.5895
       170        2.0000           -0.3855255             -10.4907
       171        2.0000           -0.3770411             -10.2598
       172        2.0000           -0.3713184             -10.1041 (HOMO)
       173                         -0.3337539              -9.0819 (LUMO)
       174                         -0.3260729              -8.8729
       175                         -0.3202594              -8.7147
       176                         -0.3023255              -8.2267
       177                         -0.2861685              -7.7870
       178                         -0.2720599              -7.4031
       179                         -0.2649366              -7.2093
       180                         -0.2565058              -6.9799
       181                         -0.2530823              -6.8867
       182                         -0.2470711              -6.7231
       183                         -0.2445980              -6.6559
       ...                                ...                  ...
       346                          1.1546507              31.4196
      -------------------------------------------------------------
                  HL-Gap            0.0375645 Eh            1.0222 eV
             Fermi-level           -0.3525351 Eh           -9.5930 eV

     #   Z          covCN         q      C6AA      α(0)
     1   6 C        2.956    -0.020    28.501     8.756
     2   6 C        2.959    -0.016    28.410     8.743
     3  16 S        2.365    -0.023   142.013    20.057
     4   6 C        2.936     0.113    25.509     8.283
     5   6 C        2.993    -0.032    28.781     8.800
     6   6 C        1.919     0.126    28.015     8.548
     7   7 N        0.911    -0.295    27.591     7.597
     8   6 C        1.931     0.127    27.969     8.541
     9   7 N        0.911    -0.280    27.227     7.547
    10   7 N        2.850    -0.062    22.441     7.036
    11   6 C        2.925     0.065    26.546     8.449
    12   6 C        2.921    -0.034    28.840     8.807
    13   6 C        2.923    -0.027    28.686     8.783
    14   6 C        2.920    -0.028    28.690     8.784
    15   6 C        2.922    -0.027    28.675     8.781
    16   6 C        2.921    -0.037    28.922     8.819
    17   6 C        2.888     0.277    22.334     7.748
    18   8 O        0.857    -0.463    22.984     6.428
    19   6 C        2.998     0.018    27.597     8.617
    20   6 C        3.097     0.011    27.650     8.618
    21   6 C        3.804    -0.062    21.686     6.630
    22   6 C        3.754    -0.112    22.698     6.793
    23   6 C        3.193     0.012    27.231     8.510
    24  16 S        2.174    -0.035   142.489    20.091
    25   6 C        3.098     0.006    27.775     8.637
    26   6 C        3.088    -0.038    28.850     8.804
    27   6 C        3.342     0.069    23.995     7.741
    28   6 C        3.342     0.069    24.003     7.744
    29   7 N        1.855    -0.300    28.614     7.928
    30  16 S        2.688     0.304   129.275    19.136
    31   7 N        1.854    -0.299    28.599     7.926
    32   6 C        3.088    -0.039    28.860     8.806
    33   6 C        3.095     0.009    27.705     8.627
    34  16 S        2.165    -0.043   142.835    20.115
    35   6 C        3.182     0.014    27.273     8.524
    36   6 C        3.094     0.011    27.664     8.620
    37   6 C        3.804    -0.060    21.660     6.626
    38   6 C        3.754    -0.109    22.636     6.784
    39   6 C        2.993     0.018    27.609     8.619
    40  16 S        2.327     0.004   140.904    19.979
    41   6 C        3.107     0.004    27.788     8.637
    42   6 C        3.252     0.030    26.284     8.296
    43   7 N        2.799    -0.009    21.421     6.874
    44   6 C        3.069     0.037    27.093     8.535
    45   6 C        3.069     0.036    27.121     8.539
    46   7 N        2.799    -0.010    21.445     6.878
    47   6 C        3.249     0.030    26.316     8.305
    48   6 C        3.116     0.015    27.514     8.592
    49  16 S        2.403    -0.028   142.231    20.072
    50   6 C        3.744    -0.017    20.944     6.529
    51   6 C        3.752    -0.126    22.987     6.837
    52   6 C        3.744    -0.018    20.962     6.531
    53   6 C        3.752    -0.126    22.981     6.836
    54   6 C        2.920    -0.013    28.330     8.728
    55   6 C        3.008    -0.043    29.052     8.842
    56   6 C        2.874     0.230    23.186     7.894
    57   8 O        0.968    -0.400    21.624     6.237
    58   6 C        3.042    -0.023    28.532     8.761
    59   6 C        2.921    -0.029    28.725     8.789
    60   6 C        2.965     0.021    27.533     8.607
    61   6 C        3.758    -0.129    23.036     6.843
    62   6 C        2.794     0.171    24.315     8.078
    63   9 F        0.788    -0.240    11.654     4.032
    64   6 C        2.912    -0.048    29.185     8.859
    65   6 C        3.042     0.004    27.886     8.661
    66   6 C        3.020     0.037    27.157     8.548
    67   6 C        2.947     0.000    28.018     8.682
    68   6 C        1.944     0.131    27.868     8.525
    69   7 N        0.911    -0.283    27.296     7.556
    70   6 C        1.946     0.133    27.824     8.518
    71   7 N        0.911    -0.286    27.386     7.569
    72   1 H        0.925     0.093     1.849     2.127
    73   1 H        0.926     0.052     2.300     2.371
    74   1 H        0.926     0.066     2.130     2.282
    75   1 H        0.926     0.068     2.107     2.270
    76   1 H        0.926     0.065     2.138     2.287
    77   1 H        0.926     0.046     2.366     2.405
    78   1 H        0.924     0.059     2.211     2.325
    79   1 H        0.924     0.066     2.128     2.281
    80   1 H        0.925     0.058     2.225     2.332
    81   1 H        0.925     0.050     2.320     2.382
    82   1 H        0.925     0.044     2.396     2.421
    83   1 H        0.924     0.058     2.225     2.333
    84   1 H        0.924     0.067     2.121     2.277
    85   1 H        0.925     0.039     2.459     2.452
    86   1 H        0.925     0.059     2.207     2.323
    87   1 H        0.925     0.050     2.314     2.379
    88   1 H        0.925     0.092     1.864     2.135
    89   1 H        0.924     0.084     1.942     2.179
    90   1 H        0.925     0.072     2.065     2.247
    91   1 H        0.925     0.053     2.287     2.365
    92   1 H        0.925     0.056     2.244     2.343
    93   1 H        0.924     0.085     1.926     2.170
    94   1 H        0.925     0.092     1.864     2.135
    95   1 H        0.925     0.072     2.061     2.245
    96   1 H        0.925     0.057     2.237     2.339
    97   1 H        0.925     0.052     2.291     2.367
    98   1 H        0.925     0.075     2.029     2.228
    99   1 H        0.926     0.090     1.883     2.146
   100   1 H        0.925     0.076     2.020     2.223
   101   1 H        0.925     0.083     1.950     2.184
   102   1 H        0.925     0.083     1.946     2.182
   103   1 H        0.926     0.073     2.054     2.241

 Mol. C6AA /au·bohr⁶  :     200593.741304
 Mol. C8AA /au·bohr⁸  :    5719097.441573
 Mol. α(0) /au        :        712.548737


Wiberg/Mayer (AO) data.
largest (>0.10) Wiberg bond orders for each atom

 ---------------------------------------------------------------------------
     #   Z sym  total        # sym  WBO       # sym  WBO       # sym  WBO
 ---------------------------------------------------------------------------
     1   6 C    3.954 --     2 C    1.537    19 C    1.281    72 H    0.936
     2   6 C    3.910 --     1 C    1.537    17 C    1.074     3 S    1.059
     3  16 S    2.542 --     4 C    1.104     2 C    1.059
     4   6 C    3.945 --     5 C    1.410    10 N    1.200     3 S    1.104
     5   6 C    3.933 --     4 C    1.410     6 C    1.116     8 C    1.109
     6   6 C    3.946 --     7 N    2.739     5 C    1.116
     7   7 N    2.973 --     6 C    2.739
     8   6 C    3.946 --     9 N    2.754     5 C    1.109
     9   7 N    2.972 --     8 C    2.754
    10   7 N    3.590 --     4 C    1.200    17 C    1.086    11 C    0.960
                            18 O    0.124
    11   6 C    3.946 --    12 C    1.404    16 C    1.398    10 N    0.960
                            14 C    0.106
    12   6 C    3.988 --    13 C    1.439    11 C    1.404    73 H    0.968
                            15 C    0.111
    13   6 C    3.988 --    14 C    1.441    12 C    1.439    74 H    0.967
                            16 C    0.112
    14   6 C    3.987 --    13 C    1.441    15 C    1.437    75 H    0.968
                            11 C    0.106
    15   6 C    3.988 --    16 C    1.443    14 C    1.437    76 H    0.967
                            12 C    0.111
    16   6 C    3.989 --    15 C    1.443    11 C    1.398    77 H    0.968
                            13 C    0.112
    17   6 C    3.926 --    18 O    1.645    10 N    1.086     2 C    1.074
    18   8 O    1.971 --    17 C    1.645    10 N    0.124
    19   6 C    3.928 --    20 C    1.372     1 C    1.281    49 S    1.069
    20   6 C    3.961 --    19 C    1.372    23 C    1.329    21 C    1.016
    21   6 C    3.991 --    20 C    1.016    22 C    0.991    79 H    0.967
                            78 H    0.965
    22   6 C    3.987 --    21 C    0.991    81 H    0.987    82 H    0.987
                            80 H    0.983
    23   6 C    3.926 --    20 C    1.329    48 C    1.308    24 S    1.086
    24  16 S    2.507 --    25 C    1.111    23 C    1.086
    25   6 C    3.916 --    47 C    1.295    26 C    1.282    24 S    1.111
    26   6 C    3.954 --    25 C    1.282    45 C    1.262    27 C    1.171
    27   6 C    3.970 --    31 N    1.423    26 C    1.171    28 C    1.166
                            30 S    0.106
    28   6 C    3.970 --    29 N    1.423    32 C    1.172    27 C    1.166
                            30 S    0.106
    29   7 N    3.059 --    28 C    1.423    30 S    1.381    31 N    0.145
    30  16 S    3.095 --    29 N    1.381    31 N    1.380    27 C    0.106
                            28 C    0.106
    31   7 N    3.058 --    27 C    1.423    30 S    1.380    29 N    0.145
    32   6 C    3.954 --    33 C    1.288    44 C    1.255    28 C    1.172
    33   6 C    3.913 --    42 C    1.291    32 C    1.288    34 S    1.111
    34  16 S    2.497 --    33 C    1.111    35 C    1.075
    35   6 C    3.927 --    36 C    1.373    41 C    1.283    34 S    1.075
    36   6 C    3.954 --    35 C    1.373    39 C    1.316    37 C    1.019
    37   6 C    3.991 --    36 C    1.019    38 C    0.989    84 H    0.966
                            83 H    0.962
    38   6 C    3.987 --    37 C    0.989    87 H    0.988    85 H    0.987
                            86 H    0.983
    39   6 C    3.931 --    54 C    1.341    36 C    1.316    40 S    1.069
    40  16 S    2.720 --    41 C    1.160    39 C    1.069    57 O    0.129
    41   6 C    3.940 --    35 C    1.283    42 C    1.257    40 S    1.160
    42   6 C    3.941 --    33 C    1.291    41 C    1.257    43 N    1.167
    43   7 N    3.577 --    44 C    1.191    42 C    1.167    52 C    0.971
    44   6 C    3.929 --    32 C    1.255    45 C    1.220    43 N    1.191
    45   6 C    3.931 --    26 C    1.262    44 C    1.220    46 N    1.185
    46   7 N    3.576 --    45 C    1.185    47 C    1.170    50 C    0.972
    47   6 C    3.940 --    25 C    1.295    48 C    1.251    46 N    1.170
    48   6 C    3.924 --    23 C    1.308    47 C    1.251    49 S    1.132
    49  16 S    2.583 --    48 C    1.132    19 C    1.069
    50   6 C    3.946 --    51 C    1.006    46 N    0.972    89 H    0.960
                            88 H    0.949
    51   6 C    3.984 --    50 C    1.006    91 H    0.986    92 H    0.982
                            90 H    0.980
    52   6 C    3.945 --    53 C    1.006    43 N    0.971    93 H    0.959
                            94 H    0.949
    53   6 C    3.984 --    52 C    1.006    97 H    0.986    96 H    0.982
                            95 H    0.980
    54   6 C    3.940 --    55 C    1.456    39 C    1.341    98 H    0.931
    55   6 C    3.953 --    54 C    1.456    66 C    1.155    56 C    1.078
    56   6 C    3.910 --    57 O    1.679    55 C    1.078    58 C    1.025
    57   8 O    2.081 --    56 C    1.679    40 S    0.129
    58   6 C    3.974 --    59 C    1.423    65 C    1.292    56 C    1.025
    59   6 C    3.975 --    58 C    1.423    60 C    1.388    99 H    0.960
    60   6 C    3.964 --    59 C    1.388    62 C    1.349    61 C    1.038
    61   6 C    3.983 --    60 C    1.038   100 H    0.982   101 H    0.959
                           102 H    0.958
    62   6 C    3.863 --    64 C    1.400    60 C    1.349    63 F    0.950
    63   9 F    1.075 --    62 C    0.950
    64   6 C    3.975 --    62 C    1.400    65 C    1.399   103 H    0.957
    65   6 C    3.980 --    64 C    1.399    58 C    1.292    66 C    1.084
    66   6 C    3.965 --    67 C    1.461    55 C    1.155    65 C    1.084
    67   6 C    3.941 --    66 C    1.461    68 C    1.105    70 C    1.102
    68   6 C    3.941 --    69 N    2.734    67 C    1.105
    69   7 N    2.952 --    68 C    2.734
    70   6 C    3.939 --    71 N    2.748    67 C    1.102
    71   7 N    2.954 --    70 C    2.748
    72   1 H    0.990 --     1 C    0.936
    73   1 H    0.997 --    12 C    0.968
    74   1 H    0.995 --    13 C    0.967
    75   1 H    0.995 --    14 C    0.968
    76   1 H    0.995 --    15 C    0.967
    77   1 H    0.998 --    16 C    0.968
    78   1 H    0.995 --    21 C    0.965
    79   1 H    0.994 --    21 C    0.967
    80   1 H    0.995 --    22 C    0.983
    81   1 H    0.997 --    22 C    0.987
    82   1 H    0.998 --    22 C    0.987
    83   1 H    0.995 --    37 C    0.962
    84   1 H    0.994 --    37 C    0.966
    85   1 H    0.998 --    38 C    0.987
    86   1 H    0.995 --    38 C    0.983
    87   1 H    0.997 --    38 C    0.988
    88   1 H    0.989 --    50 C    0.949
    89   1 H    0.992 --    50 C    0.960
    90   1 H    0.994 --    51 C    0.980
    91   1 H    0.997 --    51 C    0.986
    92   1 H    0.996 --    51 C    0.982
    93   1 H    0.992 --    52 C    0.959
    94   1 H    0.989 --    52 C    0.949
    95   1 H    0.994 --    53 C    0.980
    96   1 H    0.996 --    53 C    0.982
    97   1 H    0.997 --    53 C    0.986
    98   1 H    0.993 --    54 C    0.931
    99   1 H    0.991 --    59 C    0.960
   100   1 H    0.994 --    61 C    0.982
   101   1 H    0.990 --    61 C    0.959
   102   1 H    0.990 --    61 C    0.958
   103   1 H    0.994 --    64 C    0.957
 ---------------------------------------------------------------------------

Topologies differ in bond orders
Writing corrected topology to xtbtopo.mol

molecular dipole:
                 x           y           z       tot (Debye)
 q only:       -0.437      -3.245       0.285
   full:       -0.422      -3.424       0.198       8.783
molecular quadrupole (traceless):
                xx          xy          yy          xz          yz          zz
 q only:       39.246      66.976     -88.203      38.919     -38.206      48.957
  q+dip:       38.798      65.372     -77.694      54.795     -43.024      38.896
   full:       46.875      71.363     -83.162      60.004     -42.990      36.287


           -------------------------------------------------
          | TOTAL ENERGY             -188.492554401176 Eh   |
          | GRADIENT NORM               0.040525902137 Eh/α |
          | HOMO-LUMO GAP               1.022182201955 eV   |
           -------------------------------------------------

------------------------------------------------------------------------
 * finished run on 2022/02/01 at 18:09:43.752     
------------------------------------------------------------------------
 total:
 * wall-time:     0 d,  0 h,  0 min,  0.301 sec
 *  cpu-time:     0 d,  0 h,  0 min,  2.306 sec
 * ratio c/w:     7.656 speedup
 SCF:
 * wall-time:     0 d,  0 h,  0 min,  0.235 sec
 *  cpu-time:     0 d,  0 h,  0 min,  1.868 sec
 * ratio c/w:     7.960 speedup

