      -----------------------------------------------------------      
     |                   =====================                   |     
     |                           x T B                           |     
     |                   =====================                   |     
     |                         S. Grimme                         |     
     |          Mulliken Center for Theoretical Chemistry        |     
     |                    University of Bonn                     |     
      -----------------------------------------------------------      

   * xtb version 6.4.1 (unknown) compiled by 'oda6@login1.crc.pitt.edu' on 2021-06-25

   xtb is free software: you can redistribute it and/or modify it under
   the terms of the GNU Lesser General Public License as published by
   the Free Software Foundation, either version 3 of the License, or
   (at your option) any later version.
   
   xtb is distributed in the hope that it will be useful,
   but WITHOUT ANY WARRANTY; without even the implied warranty of
   MERCHANTABILITY or FITNESS FOR A PARTICULAR PURPOSE.  See the
   GNU Lesser General Public License for more details.
   
   Cite this work as:
   * C. Bannwarth, E. Caldeweyher, S. Ehlert, A. Hansen, P. Pracht,
     J. Seibert, S. Spicher, S. Grimme, WIREs Comput. Mol. Sci., 2020, 11,
     e01493. DOI: 10.1002/wcms.1493
   
   for GFN2-xTB:
   * C. Bannwarth, S. Ehlert and S. Grimme., J. Chem. Theory Comput., 2019,
     15, 1652-1671. DOI: 10.1021/acs.jctc.8b01176
   for GFN1-xTB:
   * S. Grimme, C. Bannwarth, P. Shushkov, J. Chem. Theory Comput., 2017,
     13, 1989-2009. DOI: 10.1021/acs.jctc.7b00118
   for GFN0-xTB:
   * P. Pracht, E. Caldeweyher, S. Ehlert, S. Grimme, ChemRxiv, 2019, preprint.
     DOI: 10.26434/chemrxiv.8326202.v1
   for GFN-FF:
   * S. Spicher and S. Grimme, Angew. Chem. Int. Ed., 2020, 59, 15665-15673.
     DOI: 10.1002/anie.202004239
   
   for DFT-D4:
   * E. Caldeweyher, C. Bannwarth and S. Grimme, J. Chem. Phys., 2017,
     147, 034112. DOI: 10.1063/1.4993215
   * E. Caldeweyher, S. Ehlert, A. Hansen, H. Neugebauer, S. Spicher,
     C. Bannwarth and S. Grimme, J. Chem. Phys., 2019, 150, 154122.
     DOI: 10.1063/1.5090222
   * E. Caldeweyher, J.-M. Mewes, S. Ehlert and S. Grimme, Phys. Chem. Chem. Phys.
     2020, 22, 8499-8512. DOI: 10.1039/D0CP00502A
   
   for sTDA-xTB:
   * S. Grimme and C. Bannwarth, J. Chem. Phys., 2016, 145, 054103.
     DOI: 10.1063/1.4959605
   
   in the mass-spec context:
   * V. Asgeirsson, C. Bauer and S. Grimme, Chem. Sci., 2017, 8, 4879.
     DOI: 10.1039/c7sc00601b
   * J. Koopman and S. Grimme, ACS Omega 2019, 4, 12, 15120-15133.
     DOI: 10.1021/acsomega.9b02011
   
   for metadynamics refer to:
   * S. Grimme, J. Chem. Theory Comput., 2019, 155, 2847-2862
     DOI: 10.1021/acs.jctc.9b00143
   
   for SPH calculations refer to:
   * S. Spicher and S. Grimme, J. Chem. Theory Comput., 2021, 17, 1701-1714
     DOI: 10.1021/acs.jctc.0c01306
   
   with help from (in alphabetical order)
   P. Atkinson, C. Bannwarth, F. Bohle, G. Brandenburg, E. Caldeweyher
   M. Checinski, S. Dohm, S. Ehlert, S. Ehrlich, I. Gerasimov, J. Koopman
   C. Lavigne, S. Lehtola, F. März, M. Müller, F. Musil, H. Neugebauer
   J. Pisarek, C. Plett, P. Pracht, J. Seibert, P. Shushkov, S. Spicher
   M. Stahn, M. Steiner, T. Strunk, J. Stückrath, T. Rose, and J. Unsleber
   
 * started run on 2022/02/11 at 05:56:07.242     

           -------------------------------------------------
          |                Calculation Setup                |
           -------------------------------------------------

          program call               : /ihome/ghutchison/oda6/xtb/xtb-641/bin/xtb ../../GFN2_output/56_78_39.mol --sp --alpb water
          hostname                   : smp-n28
          coordinate file            : ../../GFN2_output/56_78_39.mol
          omp threads                :                     8
          number of atoms            :                   122
          number of electrons        :                   394
          charge                     :                     0
          spin                       :                   0.0
          first test random number   :      0.79956831734781

   ID    Z sym.   atoms
    1    6 C      1-3, 5-8, 12-17, 19, 21-26, 28, 29, 31, 32, 34-37, 39-41,
                  43-47, 49, 50, 52-55, 57-61, 63-71, 73, 75-81
    2    8 O      4, 62
    3    9 F      9-11
    4    7 N      18, 20, 33, 38, 51, 56, 72, 74
    5   16 S      27, 30, 42, 48
    6    1 H      82-122

           -------------------------------------------------
          |                 G F N 2 - x T B                 |
           -------------------------------------------------

        Reference                      10.1021/acs.jctc.8b01176
      * Hamiltonian:
        H0-scaling (s, p, d)           1.850000    2.230000    2.230000
        zeta-weighting                 0.500000
      * Dispersion:
        s8                             2.700000
        a1                             0.520000
        a2                             5.000000
        s9                             5.000000
      * Repulsion:
        kExp                           1.500000    1.000000
        rExp                           1.000000
      * Coulomb:
        alpha                          2.000000
        third order                    shell-resolved
        anisotropic                    true
        a3                             3.000000
        a5                             4.000000
        cn-shift                       1.200000
        cn-exp                         4.000000
        max-rad                        5.000000

      * Solvation model:               ALPB
        Solvent                        water
        Parameter file                 internal GFN2-xTB/ALPB
        Dielectric constant                8.0200E+01
        Reference state                gsolv [1 M gas/solution]
        Free energy shift                  1.0808E-03 Eh       6.7819E-01 kcal/mol
        Temperature                        2.9815E+02 K
        Density                            1.0000E+00 kg/L
        Solvent mass                       1.8000E+01 g/mol
        Interaction kernel             P16
        Born radius scaling (c1)           1.4744E+00
        Born radii integrator          GBOBC
        Born offset                        0.0000E+00 a0       0.0000E+00 AA
        H-bond correction              true
        Ion screening                  false
        Surface tension                    1.0000E-05 Eh       1.5569E+01 dyn/cm
        Grid points                               230 per atom

          ...................................................
          :                      SETUP                      :
          :.................................................:
          :  # basis functions                 389          :
          :  # atomic orbitals                 385          :
          :  # shells                          207          :
          :  # electrons                       394          :
          :  max. iterations                   250          :
          :  Hamiltonian                  GFN2-xTB          :
          :  restarted?                      false          :
          :  GBSA solvation                   true          :
          :  PC potential                    false          :
          :  electronic temp.          300.0000000     K    :
          :  accuracy                    1.0000000          :
          :  -> integral cutoff          0.2500000E+02      :
          :  -> integral neglect         0.1000000E-07      :
          :  -> SCF convergence          0.1000000E-05 Eh   :
          :  -> wf. convergence          0.1000000E-03 e    :
          :  Broyden damping             0.4000000          :
          ...................................................

 iter      E             dE          RMSdq      gap      omega  full diag
   1   -219.6454380 -0.219645E+03  0.435E+00    1.03       0.0  T
   2   -219.8801811 -0.234743E+00  0.259E+00    0.72       1.0  T
   3   -219.8408420  0.393391E-01  0.137E+00    0.66       1.0  T
   4   -219.9353132 -0.944713E-01  0.480E-01    0.49       1.0  T
   5   -219.9544895 -0.191763E-01  0.135E-01    0.41       1.0  T
   6   -219.9550646 -0.575014E-03  0.767E-02    0.43       1.0  T
   7   -219.9553415 -0.276971E-03  0.294E-02    0.42       1.0  T
   8   -219.9553665 -0.249233E-04  0.133E-02    0.42       1.0  T
   9   -219.9553709 -0.446226E-05  0.713E-03    0.43       1.3  T
  10   -219.9553716 -0.726950E-06  0.376E-03    0.43       2.4  T
  11   -219.9553721 -0.489376E-06  0.210E-03    0.43       4.3  T
  12   -219.9553722 -0.100117E-06  0.104E-03    0.43       8.7  T
  13   -219.9553723 -0.413295E-07  0.427E-04    0.43      21.2  T
  14   -219.9553723 -0.713149E-08  0.232E-04    0.43      39.0  T

   *** convergence criteria satisfied after 14 iterations ***

         #    Occupation            Energy/Eh            Energy/eV
      -------------------------------------------------------------
         1        2.0000           -0.8991351             -24.4667
       ...           ...                  ...                  ...
       191        2.0000           -0.3988874             -10.8543
       192        2.0000           -0.3909888             -10.6393
       193        2.0000           -0.3880942             -10.5606
       194        2.0000           -0.3819165             -10.3925
       195        2.0000           -0.3711365             -10.0991
       196        2.0000           -0.3688159             -10.0360
       197        1.9995           -0.3543108              -9.6413 (HOMO)
       198        0.0005           -0.3386755              -9.2158 (LUMO)
       199                         -0.3292545              -8.9595
       200                         -0.3246253              -8.8335
       201                         -0.3160985              -8.6015
       202                         -0.2844582              -7.7405
       ...                                ...                  ...
       385                          1.1518056              31.3422
      -------------------------------------------------------------
                  HL-Gap            0.0156354 Eh            0.4255 eV
             Fermi-level           -0.3464932 Eh           -9.4286 eV

 SCC (total)                   0 d,  0 h,  0 min,  0.319 sec
 SCC setup                      ...        0 min,  0.003 sec (  0.879%)
 Dispersion                     ...        0 min,  0.005 sec (  1.539%)
 classical contributions        ...        0 min,  0.000 sec (  0.046%)
 integral evaluation            ...        0 min,  0.017 sec (  5.242%)
 iterations                     ...        0 min,  0.251 sec ( 78.455%)
 molecular gradient             ...        0 min,  0.043 sec ( 13.427%)
 printout                       ...        0 min,  0.001 sec (  0.383%)

         :::::::::::::::::::::::::::::::::::::::::::::::::::::
         ::                     SUMMARY                     ::
         :::::::::::::::::::::::::::::::::::::::::::::::::::::
         :: total energy            -216.645339758161 Eh    ::
         :: total w/o Gsasa/hb      -216.625154117854 Eh    ::
         :: gradient norm              0.034577894529 Eh/a0 ::
         :: HOMO-LUMO gap              0.425459943021 eV    ::
         ::.................................................::
         :: SCC energy              -219.955372277862 Eh    ::
         :: -> isotropic ES            0.194704343459 Eh    ::
         :: -> anisotropic ES          0.006001806991 Eh    ::
         :: -> anisotropic XC          0.121261826535 Eh    ::
         :: -> dispersion             -0.188649330005 Eh    ::
         :: -> Gsolv                  -0.056881530335 Eh    ::
         ::    -> Gelec               -0.036695890027 Eh    ::
         ::    -> Gsasa               -0.014400715169 Eh    ::
         ::    -> Ghb                 -0.006865684837 Eh    ::
         ::    -> Gshift               0.001080759698 Eh    ::
         :: repulsion energy           3.311344495495 Eh    ::
         :: add. restraining           0.000000000000 Eh    ::
         :: total charge               0.000000000000 e     ::
         :::::::::::::::::::::::::::::::::::::::::::::::::::::

           -------------------------------------------------
          |                Property Printout                |
           -------------------------------------------------

    * Orbital Energies and Occupations

         #    Occupation            Energy/Eh            Energy/eV
      -------------------------------------------------------------
         1        2.0000           -0.8991351             -24.4667
       ...           ...                  ...                  ...
       185        2.0000           -0.4176363             -11.3645
       186        2.0000           -0.4154784             -11.3057
       187        2.0000           -0.4141798             -11.2704
       188        2.0000           -0.4140656             -11.2673
       189        2.0000           -0.4083216             -11.1110
       190        2.0000           -0.4040781             -10.9955
       191        2.0000           -0.3988874             -10.8543
       192        2.0000           -0.3909888             -10.6393
       193        2.0000           -0.3880942             -10.5606
       194        2.0000           -0.3819165             -10.3925
       195        2.0000           -0.3711365             -10.0991
       196        2.0000           -0.3688159             -10.0360
       197        1.9995           -0.3543108              -9.6413 (HOMO)
       198        0.0005           -0.3386755              -9.2158 (LUMO)
       199                         -0.3292545              -8.9595
       200                         -0.3246253              -8.8335
       201                         -0.3160985              -8.6015
       202                         -0.2844582              -7.7405
       203                         -0.2755315              -7.4976
       204                         -0.2645438              -7.1986
       205                         -0.2589566              -7.0466
       206                         -0.2518463              -6.8531
       207                         -0.2508965              -6.8272
       208                         -0.2453194              -6.6755
       ...                                ...                  ...
       385                          1.1518056              31.3422
      -------------------------------------------------------------
                  HL-Gap            0.0156354 Eh            0.4255 eV
             Fermi-level           -0.3464932 Eh           -9.4286 eV

     #   Z          covCN         q      C6AA      α(0)
     1   6 C        2.953    -0.007    28.183     8.707
     2   6 C        3.011    -0.040    28.987     8.832
     3   6 C        2.865     0.232    23.142     7.885
     4   8 O        0.856    -0.413    21.938     6.280
     5   6 C        3.048    -0.010    28.214     8.712
     6   6 C        2.914    -0.013    28.348     8.731
     7   6 C        2.979    -0.016    28.397     8.741
     8   6 C        3.336     0.500    17.095     6.548
     9   9 F        0.791    -0.216    11.405     3.989
    10   9 F        0.791    -0.225    11.491     4.004
    11   9 F        0.791    -0.217    11.414     3.991
    12   6 C        2.923    -0.017    28.434     8.745
    13   6 C        2.914    -0.020    28.503     8.755
    14   6 C        3.031     0.020    27.541     8.608
    15   6 C        3.022     0.036    27.164     8.549
    16   6 C        2.947     0.008    27.837     8.654
    17   6 C        1.934     0.134    27.826     8.519
    18   7 N        0.911    -0.275    27.095     7.528
    19   6 C        1.934     0.132    27.866     8.525
    20   7 N        0.911    -0.274    27.080     7.526
    21   6 C        2.999     0.021    27.525     8.606
    22   6 C        3.086     0.023    27.386     8.578
    23   6 C        3.804    -0.052    21.500     6.601
    24   6 C        3.753    -0.116    22.787     6.807
    25   6 C        3.187     0.012    27.286     8.523
    26   6 C        3.120     0.016    27.475     8.585
    27  16 S        2.267    -0.027   142.166    20.068
    28   6 C        3.251     0.030    26.304     8.301
    29   6 C        3.103     0.009    27.696     8.624
    30  16 S        2.183    -0.019   141.849    20.045
    31   6 C        3.092    -0.036    28.790     8.794
    32   6 C        2.965     0.067    26.500     8.444
    33   7 N        1.848    -0.267    27.796     7.814
    34   6 C        2.949     0.085    26.113     8.381
    35   6 C        3.760    -0.133    23.101     6.852
    36   6 C        2.949     0.085    26.108     8.380
    37   6 C        3.760    -0.133    23.101     6.852
    38   7 N        1.848    -0.267    27.789     7.813
    39   6 C        2.965     0.067    26.487     8.442
    40   6 C        3.093    -0.037    28.800     8.796
    41   6 C        3.099     0.010    27.671     8.621
    42  16 S        2.168    -0.038   142.633    20.101
    43   6 C        3.180     0.011    27.349     8.537
    44   6 C        3.096     0.008    27.715     8.628
    45   6 C        3.804    -0.060    21.652     6.625
    46   6 C        3.754    -0.108    22.614     6.781
    47   6 C        2.993     0.016    27.641     8.624
    48  16 S        2.337    -0.010   141.484    20.020
    49   6 C        3.109     0.003    27.817     8.641
    50   6 C        3.255     0.029    26.264     8.288
    51   7 N        2.798    -0.015    21.540     6.893
    52   6 C        3.743    -0.015    20.917     6.525
    53   6 C        3.752    -0.124    22.946     6.831
    54   6 C        3.079     0.036    27.104     8.535
    55   6 C        3.079     0.038    27.073     8.530
    56   7 N        2.796    -0.019    21.611     6.904
    57   6 C        3.743    -0.014    20.907     6.523
    58   6 C        3.752    -0.126    22.972     6.835
    59   6 C        2.920    -0.015    28.384     8.737
    60   6 C        3.005    -0.045    29.109     8.850
    61   6 C        2.876     0.227    23.243     7.903
    62   8 O        0.977    -0.411    21.850     6.270
    63   6 C        3.061    -0.023    28.513     8.757
    64   6 C        2.904    -0.025    28.639     8.775
    65   6 C        3.261     0.014    26.526     8.321
    66   6 C        3.255     0.014    26.606     8.342
    67   6 C        2.904    -0.034    28.839     8.805
    68   6 C        3.049     0.003    27.919     8.666
    69   6 C        3.021     0.035    27.192     8.554
    70   6 C        2.947    -0.003    28.106     8.695
    71   6 C        1.947     0.131    27.887     8.528
    72   7 N        0.911    -0.291    27.492     7.583
    73   6 C        1.948     0.134    27.814     8.517
    74   7 N        0.911    -0.291    27.502     7.585
    75   6 C        4.163    -0.025    20.926     6.497
    76   6 C        4.013    -0.016    20.782     6.476
    77   6 C        2.995    -0.044    29.077     8.845
    78   6 C        2.995    -0.044    29.090     8.847
    79   6 C        4.013    -0.016    20.788     6.477
    80   6 C        3.915    -0.062    21.630     6.610
    81   6 C        4.160    -0.025    20.926     6.497
    82   1 H        0.925     0.074     2.046     2.237
    83   1 H        0.926     0.087     1.913     2.163
    84   1 H        0.926     0.090     1.875     2.141
    85   1 H        0.926     0.083     1.944     2.181
    86   1 H        0.924     0.077     2.013     2.219
    87   1 H        0.924     0.042     2.419     2.432
    88   1 H        0.925     0.055     2.263     2.353
    89   1 H        0.925     0.048     2.342     2.393
    90   1 H        0.925     0.059     2.210     2.325
    91   1 H        0.925     0.071     2.072     2.251
    92   1 H        0.925     0.070     2.087     2.259
    93   1 H        0.925     0.069     2.097     2.264
    94   1 H        0.925     0.070     2.090     2.261
    95   1 H        0.925     0.071     2.071     2.250
    96   1 H        0.925     0.069     2.093     2.263
    97   1 H        0.924     0.055     2.255     2.348
    98   1 H        0.924     0.067     2.121     2.278
    99   1 H        0.925     0.036     2.498     2.472
   100   1 H        0.925     0.058     2.226     2.333
   101   1 H        0.925     0.050     2.314     2.379
   102   1 H        0.924     0.087     1.903     2.158
   103   1 H        0.924     0.082     1.963     2.191
   104   1 H        0.925     0.050     2.321     2.383
   105   1 H        0.925     0.056     2.248     2.344
   106   1 H        0.925     0.069     2.092     2.262
   107   1 H        0.924     0.087     1.906     2.159
   108   1 H        0.924     0.082     1.963     2.191
   109   1 H        0.925     0.055     2.260     2.351
   110   1 H        0.925     0.071     2.080     2.255
   111   1 H        0.925     0.053     2.286     2.364
   112   1 H        0.925     0.070     2.082     2.257
   113   1 H        0.926     0.069     2.102     2.267
   114   1 H        0.926     0.052     2.290     2.366
   115   1 H        0.925     0.053     2.288     2.365
   116   1 H        0.925     0.041     2.438     2.442
   117   1 H        0.926     0.043     2.410     2.427
   118   1 H        0.926     0.045     2.387     2.416
   119   1 H        0.925     0.045     2.385     2.415
   120   1 H        0.925     0.034     2.530     2.487
   121   1 H        0.925     0.045     2.386     2.416
   122   1 H        0.925     0.055     2.253     2.347

 Mol. C6AA /au·bohr⁶  :     243484.148934
 Mol. C8AA /au·bohr⁸  :    6593198.188347
 Mol. α(0) /au        :        777.378999


Wiberg/Mayer (AO) data.
largest (>0.10) Wiberg bond orders for each atom

 ---------------------------------------------------------------------------
     #   Z sym  total        # sym  WBO       # sym  WBO       # sym  WBO
 ---------------------------------------------------------------------------
     1   6 C    3.936 --     2 C    1.469    21 C    1.301    82 H    0.945
     2   6 C    3.956 --     1 C    1.469    15 C    1.164     3 C    1.050
     3   6 C    3.924 --     4 O    1.730     2 C    1.050     5 C    1.006
     4   8 O    2.024 --     3 C    1.730
     5   6 C    3.977 --     6 C    1.429    14 C    1.302     3 C    1.006
     6   6 C    3.974 --     5 C    1.429     7 C    1.393    83 H    0.961
     7   6 C    3.953 --    12 C    1.415     6 C    1.393     8 C    0.947
     8   6 C    3.804 --     7 C    0.947     9 F    0.946    11 F    0.943
                            10 F    0.930
     9   9 F    1.066 --     8 C    0.946
    10   9 F    1.056 --     8 C    0.930
    11   9 F    1.064 --     8 C    0.943
    12   6 C    3.975 --    13 C    1.425     7 C    1.415    84 H    0.963
    13   6 C    3.970 --    12 C    1.425    14 C    1.408    85 H    0.958
    14   6 C    3.983 --    13 C    1.408     5 C    1.302    15 C    1.074
    15   6 C    3.965 --    16 C    1.464     2 C    1.164    14 C    1.074
    16   6 C    3.946 --    15 C    1.464    17 C    1.104    19 C    1.101
    17   6 C    3.941 --    18 N    2.752    16 C    1.104
    18   7 N    2.956 --    17 C    2.752
    19   6 C    3.943 --    20 N    2.752    16 C    1.101
    20   7 N    2.959 --    19 C    2.752
    21   6 C    3.927 --    22 C    1.366     1 C    1.301    27 S    1.054
    22   6 C    3.953 --    21 C    1.366    25 C    1.330    23 C    1.023
    23   6 C    3.991 --    22 C    1.023    24 C    1.000    87 H    0.970
                            86 H    0.940
    24   6 C    3.989 --    23 C    1.000    89 H    0.987    88 H    0.984
                            90 H    0.979
    25   6 C    3.927 --    22 C    1.330    26 C    1.300    30 S    1.089
    26   6 C    3.932 --    25 C    1.300    28 C    1.266    27 S    1.137
    27  16 S    2.542 --    26 C    1.137    21 C    1.054
    28   6 C    3.940 --    29 C    1.287    26 C    1.266    56 N    1.163
    29   6 C    3.912 --    28 C    1.287    31 C    1.283    30 S    1.114
    30  16 S    2.526 --    29 C    1.114    25 C    1.089
    31   6 C    3.953 --    29 C    1.283    55 C    1.261    32 C    1.171
    32   6 C    3.975 --    33 N    1.328    39 C    1.247    31 C    1.171
    33   7 N    3.046 --    34 C    1.475    32 C    1.328
    34   6 C    3.955 --    33 N    1.475    36 C    1.255    35 C    1.032
    35   6 C    3.990 --    34 C    1.032    91 H    0.982    93 H    0.962
                            92 H    0.962
    36   6 C    3.955 --    38 N    1.476    34 C    1.255    37 C    1.032
    37   6 C    3.990 --    36 C    1.032    95 H    0.982    96 H    0.962
                            94 H    0.962
    38   7 N    3.047 --    36 C    1.476    39 C    1.328
    39   6 C    3.974 --    38 N    1.328    32 C    1.247    40 C    1.171
    40   6 C    3.953 --    41 C    1.287    54 C    1.256    39 C    1.171
    41   6 C    3.909 --    50 C    1.292    40 C    1.287    42 S    1.109
    42  16 S    2.495 --    41 C    1.109    43 C    1.078
    43   6 C    3.927 --    44 C    1.368    49 C    1.286    42 S    1.078
    44   6 C    3.953 --    43 C    1.368    47 C    1.324    45 C    1.018
    45   6 C    3.991 --    44 C    1.018    46 C    0.991    98 H    0.967
                            97 H    0.963
    46   6 C    3.988 --    45 C    0.991   101 H    0.987    99 H    0.987
                           100 H    0.983
    47   6 C    3.930 --    59 C    1.330    44 C    1.324    48 S    1.070
    48  16 S    2.718 --    49 C    1.155    47 C    1.070    62 O    0.132
    49   6 C    3.940 --    43 C    1.286    50 C    1.257    48 S    1.155
    50   6 C    3.939 --    41 C    1.292    49 C    1.257    51 N    1.166
    51   7 N    3.574 --    54 C    1.181    50 C    1.166    52 C    0.974
    52   6 C    3.949 --    53 C    1.006    51 N    0.974   103 H    0.960
                           102 H    0.950
    53   6 C    3.985 --    52 C    1.006   104 H    0.986   105 H    0.982
                           106 H    0.981
    54   6 C    3.928 --    40 C    1.256    55 C    1.234    51 N    1.181
    55   6 C    3.927 --    31 C    1.261    54 C    1.234    56 N    1.176
    56   7 N    3.566 --    55 C    1.176    28 C    1.163    57 C    0.972
    57   6 C    3.949 --    58 C    1.007    56 N    0.972   108 H    0.961
                           107 H    0.951
    58   6 C    3.985 --    57 C    1.007   111 H    0.986   109 H    0.982
                           110 H    0.980
    59   6 C    3.940 --    60 C    1.469    47 C    1.330   112 H    0.932
    60   6 C    3.951 --    59 C    1.469    69 C    1.149    61 C    1.074
    61   6 C    3.908 --    62 O    1.668    60 C    1.074    63 C    1.034
    62   8 O    2.075 --    61 C    1.668    48 S    0.132
    63   6 C    3.969 --    64 C    1.380    68 C    1.306    61 C    1.034
    64   6 C    3.977 --    65 C    1.439    63 C    1.380   113 H    0.962
    65   6 C    3.953 --    64 C    1.439    66 C    1.324    81 C    0.994
    66   6 C    3.963 --    67 C    1.446    65 C    1.324    75 C    0.995
    67   6 C    3.976 --    66 C    1.446    68 C    1.367   114 H    0.959
    68   6 C    3.975 --    67 C    1.367    63 C    1.306    69 C    1.088
    69   6 C    3.964 --    70 C    1.458    60 C    1.149    68 C    1.088
    70   6 C    3.943 --    69 C    1.458    71 C    1.105    73 C    1.103
    71   6 C    3.940 --    72 N    2.731    70 C    1.105
    72   7 N    2.949 --    71 C    2.731
    73   6 C    3.938 --    74 N    2.743    70 C    1.103
    74   7 N    2.952 --    73 C    2.743
    75   6 C    3.983 --    66 C    0.995    81 C    0.975   115 H    0.960
                            76 C    0.950
    76   6 C    3.988 --    77 C    1.004    80 C    0.989   116 H    0.971
                            75 C    0.950
    77   6 C    3.981 --    78 C    1.924    76 C    1.004   117 H    0.970
    78   6 C    3.981 --    77 C    1.924    79 C    1.004   118 H    0.970
    79   6 C    3.987 --    78 C    1.004    80 C    0.989   119 H    0.970
                            81 C    0.949
    80   6 C    3.994 --    76 C    0.989    79 C    0.989   121 H    0.978
                           120 H    0.974
    81   6 C    3.982 --    65 C    0.994    75 C    0.975   122 H    0.959
                            79 C    0.949
    82   1 H    0.992 --     1 C    0.945
    83   1 H    0.992 --     6 C    0.961
    84   1 H    0.991 --    12 C    0.963
    85   1 H    0.992 --    13 C    0.958
    86   1 H    0.992 --    23 C    0.940
    87   1 H    0.998 --    23 C    0.970
    88   1 H    0.996 --    24 C    0.984
    89   1 H    0.998 --    24 C    0.987
    90   1 H    0.996 --    24 C    0.979
    91   1 H    0.995 --    35 C    0.982
    92   1 H    0.992 --    35 C    0.962
    93   1 H    0.992 --    35 C    0.962
    94   1 H    0.992 --    37 C    0.962
    95   1 H    0.995 --    37 C    0.982
    96   1 H    0.993 --    37 C    0.962
    97   1 H    0.996 --    45 C    0.963
    98   1 H    0.994 --    45 C    0.967
    99   1 H    0.999 --    46 C    0.987
   100   1 H    0.995 --    46 C    0.983
   101   1 H    0.997 --    46 C    0.987
   102   1 H    0.990 --    52 C    0.950
   103   1 H    0.993 --    52 C    0.960
   104   1 H    0.997 --    53 C    0.986
   105   1 H    0.996 --    53 C    0.982
   106   1 H    0.994 --    53 C    0.981
   107   1 H    0.990 --    57 C    0.951
   108   1 H    0.993 --    57 C    0.961
   109   1 H    0.996 --    58 C    0.982
   110   1 H    0.994 --    58 C    0.980
   111   1 H    0.997 --    58 C    0.986
   112   1 H    0.994 --    59 C    0.932
   113   1 H    0.995 --    64 C    0.962
   114   1 H    0.997 --    67 C    0.959
   115   1 H    0.996 --    75 C    0.960
   116   1 H    0.998 --    76 C    0.971
   117   1 H    0.998 --    77 C    0.970
   118   1 H    0.998 --    78 C    0.970
   119   1 H    0.998 --    79 C    0.970
   120   1 H    0.999 --    80 C    0.974
   121   1 H    0.998 --    80 C    0.978
   122   1 H    0.995 --    81 C    0.959
 ---------------------------------------------------------------------------

Topologies differ in bond orders
Writing corrected topology to xtbtopo.mol

molecular dipole:
                 x           y           z       tot (Debye)
 q only:       -0.649      -1.125      -0.585
   full:       -0.295      -0.783      -0.808       2.955
molecular quadrupole (traceless):
                xx          xy          yy          xz          yz          zz
 q only:      -98.252     -62.534      85.830    -155.615      31.656      12.422
  q+dip:      -93.954     -49.898      91.922    -155.949      42.861       2.031
   full:      -98.809     -45.942      95.012    -163.465      40.382       3.798


           -------------------------------------------------
          | TOTAL ENERGY             -216.645339758161 Eh   |
          | GRADIENT NORM               0.034577894529 Eh/α |
          | HOMO-LUMO GAP               0.425459943021 eV   |
           -------------------------------------------------

------------------------------------------------------------------------
 * finished run on 2022/02/11 at 05:56:07.624     
------------------------------------------------------------------------
 total:
 * wall-time:     0 d,  0 h,  0 min,  0.383 sec
 *  cpu-time:     0 d,  0 h,  0 min,  2.966 sec
 * ratio c/w:     7.753 speedup
 SCF:
 * wall-time:     0 d,  0 h,  0 min,  0.321 sec
 *  cpu-time:     0 d,  0 h,  0 min,  2.560 sec
 * ratio c/w:     7.966 speedup

