      -----------------------------------------------------------      
     |                   =====================                   |     
     |                           x T B                           |     
     |                   =====================                   |     
     |                         S. Grimme                         |     
     |          Mulliken Center for Theoretical Chemistry        |     
     |                    University of Bonn                     |     
      -----------------------------------------------------------      

   * xtb version 6.4.1 (unknown) compiled by 'oda6@login1.crc.pitt.edu' on 2021-06-25

   xtb is free software: you can redistribute it and/or modify it under
   the terms of the GNU Lesser General Public License as published by
   the Free Software Foundation, either version 3 of the License, or
   (at your option) any later version.
   
   xtb is distributed in the hope that it will be useful,
   but WITHOUT ANY WARRANTY; without even the implied warranty of
   MERCHANTABILITY or FITNESS FOR A PARTICULAR PURPOSE.  See the
   GNU Lesser General Public License for more details.
   
   Cite this work as:
   * C. Bannwarth, E. Caldeweyher, S. Ehlert, A. Hansen, P. Pracht,
     J. Seibert, S. Spicher, S. Grimme, WIREs Comput. Mol. Sci., 2020, 11,
     e01493. DOI: 10.1002/wcms.1493
   
   for GFN2-xTB:
   * C. Bannwarth, S. Ehlert and S. Grimme., J. Chem. Theory Comput., 2019,
     15, 1652-1671. DOI: 10.1021/acs.jctc.8b01176
   for GFN1-xTB:
   * S. Grimme, C. Bannwarth, P. Shushkov, J. Chem. Theory Comput., 2017,
     13, 1989-2009. DOI: 10.1021/acs.jctc.7b00118
   for GFN0-xTB:
   * P. Pracht, E. Caldeweyher, S. Ehlert, S. Grimme, ChemRxiv, 2019, preprint.
     DOI: 10.26434/chemrxiv.8326202.v1
   for GFN-FF:
   * S. Spicher and S. Grimme, Angew. Chem. Int. Ed., 2020, 59, 15665-15673.
     DOI: 10.1002/anie.202004239
   
   for DFT-D4:
   * E. Caldeweyher, C. Bannwarth and S. Grimme, J. Chem. Phys., 2017,
     147, 034112. DOI: 10.1063/1.4993215
   * E. Caldeweyher, S. Ehlert, A. Hansen, H. Neugebauer, S. Spicher,
     C. Bannwarth and S. Grimme, J. Chem. Phys., 2019, 150, 154122.
     DOI: 10.1063/1.5090222
   * E. Caldeweyher, J.-M. Mewes, S. Ehlert and S. Grimme, Phys. Chem. Chem. Phys.
     2020, 22, 8499-8512. DOI: 10.1039/D0CP00502A
   
   for sTDA-xTB:
   * S. Grimme and C. Bannwarth, J. Chem. Phys., 2016, 145, 054103.
     DOI: 10.1063/1.4959605
   
   in the mass-spec context:
   * V. Asgeirsson, C. Bauer and S. Grimme, Chem. Sci., 2017, 8, 4879.
     DOI: 10.1039/c7sc00601b
   * J. Koopman and S. Grimme, ACS Omega 2019, 4, 12, 15120-15133.
     DOI: 10.1021/acsomega.9b02011
   
   for metadynamics refer to:
   * S. Grimme, J. Chem. Theory Comput., 2019, 155, 2847-2862
     DOI: 10.1021/acs.jctc.9b00143
   
   for SPH calculations refer to:
   * S. Spicher and S. Grimme, J. Chem. Theory Comput., 2021, 17, 1701-1714
     DOI: 10.1021/acs.jctc.0c01306
   
   with help from (in alphabetical order)
   P. Atkinson, C. Bannwarth, F. Bohle, G. Brandenburg, E. Caldeweyher
   M. Checinski, S. Dohm, S. Ehlert, S. Ehrlich, I. Gerasimov, J. Koopman
   C. Lavigne, S. Lehtola, F. März, M. Müller, F. Musil, H. Neugebauer
   J. Pisarek, C. Plett, P. Pracht, J. Seibert, P. Shushkov, S. Spicher
   M. Stahn, M. Steiner, T. Strunk, J. Stückrath, T. Rose, and J. Unsleber
   
 * started run on 2022/02/03 at 00:44:55.532     

           -------------------------------------------------
          |                Calculation Setup                |
           -------------------------------------------------

          program call               : /ihome/ghutchison/oda6/xtb/xtb-641/bin/xtb ../../GFN2_output/58_133_39.mol --sp --alpb water
          hostname                   : smp-n39
          coordinate file            : ../../GFN2_output/58_133_39.mol
          omp threads                :                     8
          number of atoms            :                   116
          number of electrons        :                   376
          charge                     :                     0
          spin                       :                   0.0
          first test random number   :      0.50973116528576

   ID    Z sym.   atoms
    1    6 C      1-3, 5-7, 9, 11-17, 19, 21-25, 27-30, 34, 35, 37-41, 43,
                  44, 46, 47, 49, 50, 52-58, 60-68, 70, 72-78
    2    8 O      4, 8, 10, 59
    3    7 N      18, 20, 31, 33, 45, 48, 69, 71
    4   16 S      26, 36, 42, 51
    5   34 Se     32
    6    1 H      79-116

molecular fragmentation (1/2 indicates fragments):
111111111111111111111111111111112111111111111111111111111111111111111111
11111111111111111111111111111111111111111111
# atoms in fragment 1/2:   115     1
 fragment masses (1/2) :     1140.22       14.01
CMA distance (Bohr)    :  12.244
constraining FC (au)   :  0.0500

           -------------------------------------------------
          |                 G F N 2 - x T B                 |
           -------------------------------------------------

        Reference                      10.1021/acs.jctc.8b01176
      * Hamiltonian:
        H0-scaling (s, p, d)           1.850000    2.230000    2.230000
        zeta-weighting                 0.500000
      * Dispersion:
        s8                             2.700000
        a1                             0.520000
        a2                             5.000000
        s9                             5.000000
      * Repulsion:
        kExp                           1.500000    1.000000
        rExp                           1.000000
      * Coulomb:
        alpha                          2.000000
        third order                    shell-resolved
        anisotropic                    true
        a3                             3.000000
        a5                             4.000000
        cn-shift                       1.200000
        cn-exp                         4.000000
        max-rad                        5.000000

      * Solvation model:               ALPB
        Solvent                        water
        Parameter file                 internal GFN2-xTB/ALPB
        Dielectric constant                8.0200E+01
        Reference state                gsolv [1 M gas/solution]
        Free energy shift                  1.0808E-03 Eh       6.7819E-01 kcal/mol
        Temperature                        2.9815E+02 K
        Density                            1.0000E+00 kg/L
        Solvent mass                       1.8000E+01 g/mol
        Interaction kernel             P16
        Born radius scaling (c1)           1.4744E+00
        Born radii integrator          GBOBC
        Born offset                        0.0000E+00 a0       0.0000E+00 AA
        H-bond correction              true
        Ion screening                  false
        Surface tension                    1.0000E-05 Eh       1.5569E+01 dyn/cm
        Grid points                               230 per atom

          ...................................................
          :                      SETUP                      :
          :.................................................:
          :  # basis functions                 380          :
          :  # atomic orbitals                 375          :
          :  # shells                          199          :
          :  # electrons                       376          :
          :  max. iterations                   250          :
          :  Hamiltonian                  GFN2-xTB          :
          :  restarted?                      false          :
          :  GBSA solvation                   true          :
          :  PC potential                    false          :
          :  electronic temp.          300.0000000     K    :
          :  accuracy                    1.0000000          :
          :  -> integral cutoff          0.2500000E+02      :
          :  -> integral neglect         0.1000000E-07      :
          :  -> SCF convergence          0.1000000E-05 Eh   :
          :  -> wf. convergence          0.1000000E-03 e    :
          :  Broyden damping             0.4000000          :
          ...................................................

 iter      E             dE          RMSdq      gap      omega  full diag
   1   -208.6530794 -0.208653E+03  0.487E+00    1.14       0.0  T
   2   -208.8836360 -0.230557E+00  0.284E+00    0.96       1.0  T
   3   -208.8356301  0.480059E-01  0.155E+00    1.09       1.0  T
   4   -208.9576511 -0.122021E+00  0.520E-01    1.05       1.0  T
   5   -208.9743552 -0.167041E-01  0.185E-01    0.99       1.0  T
   6   -208.9757210 -0.136581E-02  0.107E-01    1.04       1.0  T
   7   -208.9761175 -0.396495E-03  0.428E-02    1.03       1.0  T
   8   -208.9761286 -0.111009E-04  0.227E-02    1.03       1.0  T
   9   -208.9761397 -0.111103E-04  0.124E-02    1.03       1.0  T
  10   -208.9761424 -0.277248E-05  0.680E-03    1.03       1.4  T
  11   -208.9761440 -0.159652E-05  0.334E-03    1.03       2.8  T
  12   -208.9761442 -0.184592E-06  0.161E-03    1.03       5.7  T
  13   -208.9761443 -0.980553E-07  0.613E-04    1.03      15.1  T
  14   -208.9761443 -0.128039E-07  0.286E-04    1.03      32.5  T

   *** convergence criteria satisfied after 14 iterations ***

         #    Occupation            Energy/Eh            Energy/eV
      -------------------------------------------------------------
         1        2.0000           -0.7676871             -20.8898
       ...           ...                  ...                  ...
       182        2.0000           -0.4052977             -11.0287
       183        2.0000           -0.4016402             -10.9292
       184        2.0000           -0.3918112             -10.6617
       185        2.0000           -0.3909203             -10.6375
       186        2.0000           -0.3847582             -10.4698
       187        2.0000           -0.3769116             -10.2563
       188        2.0000           -0.3714264             -10.1070 (HOMO)
       189                         -0.3335724              -9.0770 (LUMO)
       190                         -0.3288706              -8.9490
       191                         -0.3220081              -8.7623
       192                         -0.3155052              -8.5853
       193                         -0.3050639              -8.3012
       ...                                ...                  ...
       375                          1.1549786              31.4286
      -------------------------------------------------------------
                  HL-Gap            0.0378540 Eh            1.0301 eV
             Fermi-level           -0.3525013 Eh           -9.5920 eV

 SCC (total)                   0 d,  0 h,  0 min,  0.620 sec
 SCC setup                      ...        0 min,  0.003 sec (  0.441%)
 Dispersion                     ...        0 min,  0.005 sec (  0.787%)
 classical contributions        ...        0 min,  0.000 sec (  0.038%)
 integral evaluation            ...        0 min,  0.020 sec (  3.202%)
 iterations                     ...        0 min,  0.546 sec ( 88.016%)
 molecular gradient             ...        0 min,  0.045 sec (  7.255%)
 printout                       ...        0 min,  0.002 sec (  0.247%)

         :::::::::::::::::::::::::::::::::::::::::::::::::::::
         ::                     SUMMARY                     ::
         :::::::::::::::::::::::::::::::::::::::::::::::::::::
         :: total energy            -205.788991661491 Eh    ::
         :: total w/o Gsasa/hb      -205.768841118032 Eh    ::
         :: gradient norm              0.043052156493 Eh/a0 ::
         :: HOMO-LUMO gap              1.030060158630 eV    ::
         ::.................................................::
         :: SCC energy              -208.976144337197 Eh    ::
         :: -> isotropic ES            0.199882869895 Eh    ::
         :: -> anisotropic ES          0.003087467976 Eh    ::
         :: -> anisotropic XC          0.128704183811 Eh    ::
         :: -> dispersion             -0.185588155230 Eh    ::
         :: -> Gsolv                  -0.060220979043 Eh    ::
         ::    -> Gelec               -0.040070435585 Eh    ::
         ::    -> Gsasa               -0.013801152703 Eh    ::
         ::    -> Ghb                 -0.007430150453 Eh    ::
         ::    -> Gshift               0.001080759698 Eh    ::
         :: repulsion energy           3.187521873476 Eh    ::
         :: add. restraining           0.000000000000 Eh    ::
         :: total charge              -0.000000000018 e     ::
         :::::::::::::::::::::::::::::::::::::::::::::::::::::

           -------------------------------------------------
          |                Property Printout                |
           -------------------------------------------------

    * Orbital Energies and Occupations

         #    Occupation            Energy/Eh            Energy/eV
      -------------------------------------------------------------
         1        2.0000           -0.7676871             -20.8898
       ...           ...                  ...                  ...
       176        2.0000           -0.4185464             -11.3892
       177        2.0000           -0.4177091             -11.3664
       178        2.0000           -0.4144800             -11.2786
       179        2.0000           -0.4107183             -11.1762
       180        2.0000           -0.4097427             -11.1497
       181        2.0000           -0.4094062             -11.1405
       182        2.0000           -0.4052977             -11.0287
       183        2.0000           -0.4016402             -10.9292
       184        2.0000           -0.3918112             -10.6617
       185        2.0000           -0.3909203             -10.6375
       186        2.0000           -0.3847582             -10.4698
       187        2.0000           -0.3769116             -10.2563
       188        2.0000           -0.3714264             -10.1070 (HOMO)
       189                         -0.3335724              -9.0770 (LUMO)
       190                         -0.3288706              -8.9490
       191                         -0.3220081              -8.7623
       192                         -0.3155052              -8.5853
       193                         -0.3050639              -8.3012
       194                         -0.2744651              -7.4686
       195                         -0.2677119              -7.2848
       196                         -0.2575470              -7.0082
       197                         -0.2521652              -6.8618
       198                         -0.2470716              -6.7232
       199                         -0.2463065              -6.7023
       ...                                ...                  ...
       375                          1.1549786              31.4286
      -------------------------------------------------------------
                  HL-Gap            0.0378540 Eh            1.0301 eV
             Fermi-level           -0.3525013 Eh           -9.5920 eV

     #   Z          covCN         q      C6AA      α(0)
     1   6 C        2.920    -0.013    28.329     8.728
     2   6 C        3.008    -0.043    29.056     8.842
     3   6 C        2.874     0.230    23.190     7.894
     4   8 O        0.974    -0.403    21.681     6.246
     5   6 C        3.049    -0.016    28.366     8.735
     6   6 C        2.910    -0.034    28.842     8.806
     7   6 C        2.867     0.154    24.668     8.141
     8   8 O        1.709    -0.249    18.124     5.748
     9   6 C        2.703     0.375    20.653     7.438
    10   8 O        0.856    -0.448    22.667     6.383
    11   6 C        3.754    -0.178    24.027     6.990
    12   6 C        2.921    -0.043    29.056     8.839
    13   6 C        2.914    -0.024    28.605     8.770
    14   6 C        3.036     0.005    27.884     8.661
    15   6 C        3.020     0.037    27.150     8.547
    16   6 C        2.947     0.002    27.992     8.677
    17   6 C        1.945     0.132    27.864     8.525
    18   7 N        0.911    -0.282    27.275     7.553
    19   6 C        1.947     0.134    27.817     8.517
    20   7 N        0.911    -0.282    27.282     7.554
    21   6 C        2.992     0.018    27.587     8.616
    22   6 C        3.094     0.012    27.642     8.617
    23   6 C        3.804    -0.061    21.670     6.627
    24   6 C        3.754    -0.109    22.643     6.785
    25   6 C        3.180     0.013    27.287     8.528
    26  16 S        2.165    -0.036   142.527    20.093
    27   6 C        3.096     0.011    27.660     8.619
    28   6 C        3.088    -0.039    28.859     8.806
    29   6 C        3.308     0.078    24.453     7.900
    30   6 C        3.308     0.078    24.451     7.899
    31   7 N        1.840    -0.265    27.744     7.806
    32  34 Se       2.630     0.209   228.881    26.362
    33   7 N        1.840    -0.264    27.711     7.801
    34   6 C        3.088    -0.038    28.849     8.804
    35   6 C        3.100     0.007    27.744     8.632
    36  16 S        2.178    -0.028   142.211    20.071
    37   6 C        3.196     0.011    27.238     8.508
    38   6 C        3.102     0.012    27.611     8.611
    39   6 C        3.804    -0.059    21.639     6.622
    40   6 C        3.755    -0.107    22.601     6.779
    41   6 C        2.996     0.017    27.612     8.620
    42  16 S        2.257    -0.053   143.266    20.145
    43   6 C        3.119     0.015    27.513     8.591
    44   6 C        3.252     0.030    26.289     8.297
    45   7 N        2.800    -0.011    21.466     6.881
    46   6 C        3.072     0.037    27.099     8.535
    47   6 C        3.072     0.038    27.067     8.530
    48   7 N        2.799    -0.008    21.403     6.871
    49   6 C        3.254     0.030    26.273     8.292
    50   6 C        3.107     0.005    27.768     8.634
    51  16 S        2.331    -0.001   141.100    19.992
    52   6 C        3.744    -0.017    20.946     6.529
    53   6 C        3.752    -0.125    22.955     6.832
    54   6 C        3.743    -0.014    20.900     6.522
    55   6 C        3.752    -0.126    22.985     6.837
    56   6 C        2.929    -0.011    28.289     8.723
    57   6 C        3.010    -0.040    28.965     8.828
    58   6 C        2.873     0.232    23.149     7.887
    59   8 O        0.856    -0.435    22.392     6.344
    60   6 C        3.060    -0.023    28.526     8.759
    61   6 C        2.904    -0.025    28.618     8.772
    62   6 C        3.260     0.014    26.553     8.327
    63   6 C        3.258     0.016    26.531     8.326
    64   6 C        2.904    -0.033    28.811     8.801
    65   6 C        3.052     0.006    27.837     8.653
    66   6 C        3.024     0.041    27.050     8.531
    67   6 C        2.948     0.001    27.994     8.678
    68   6 C        1.934     0.132    27.866     8.525
    69   7 N        0.911    -0.288    27.415     7.573
    70   6 C        1.929     0.133    27.839     8.521
    71   7 N        0.911    -0.282    27.284     7.555
    72   6 C        4.163    -0.028    20.979     6.505
    73   6 C        4.012    -0.017    20.792     6.478
    74   6 C        2.988    -0.043    29.065     8.843
    75   6 C        2.987    -0.043    29.058     8.842
    76   6 C        4.012    -0.016    20.790     6.477
    77   6 C        3.927    -0.066    21.694     6.619
    78   6 C        4.162    -0.028    20.977     6.505
    79   1 H        0.925     0.077     2.006     2.215
    80   1 H        0.926     0.081     1.965     2.192
    81   1 H        0.925     0.117     1.639     2.002
    82   1 H        0.925     0.114     1.665     2.018
    83   1 H        0.925     0.098     1.808     2.103
    84   1 H        0.926     0.097     1.815     2.107
    85   1 H        0.926     0.074     2.038     2.233
    86   1 H        0.924     0.068     2.110     2.271
    87   1 H        0.924     0.059     2.206     2.323
    88   1 H        0.925     0.060     2.196     2.318
    89   1 H        0.925     0.050     2.315     2.380
    90   1 H        0.925     0.040     2.454     2.450
    91   1 H        0.924     0.065     2.136     2.286
    92   1 H        0.924     0.059     2.212     2.326
    93   1 H        0.925     0.038     2.475     2.460
    94   1 H        0.925     0.050     2.322     2.383
    95   1 H        0.925     0.059     2.215     2.328
    96   1 H        0.925     0.090     1.874     2.141
    97   1 H        0.924     0.085     1.927     2.171
    98   1 H        0.925     0.055     2.261     2.352
    99   1 H        0.925     0.053     2.282     2.362
   100   1 H        0.925     0.071     2.077     2.254
   101   1 H        0.925     0.089     1.886     2.148
   102   1 H        0.924     0.079     1.987     2.204
   103   1 H        0.925     0.054     2.270     2.356
   104   1 H        0.925     0.072     2.058     2.244
   105   1 H        0.925     0.057     2.230     2.335
   106   1 H        0.925     0.080     1.982     2.202
   107   1 H        0.926     0.064     2.151     2.294
   108   1 H        0.926     0.059     2.207     2.323
   109   1 H        0.925     0.061     2.189     2.314
   110   1 H        0.925     0.046     2.377     2.411
   111   1 H        0.926     0.033     2.537     2.491
   112   1 H        0.926     0.031     2.573     2.508
   113   1 H        0.925     0.044     2.400     2.423
   114   1 H        0.925     0.049     2.329     2.386
   115   1 H        0.925     0.049     2.332     2.388
   116   1 H        0.925     0.060     2.197     2.318

 Mol. C6AA /au·bohr⁶  :     237778.926347
 Mol. C8AA /au·bohr⁸  :    6739884.860270
 Mol. α(0) /au        :        772.281032


Wiberg/Mayer (AO) data.
largest (>0.10) Wiberg bond orders for each atom

 ---------------------------------------------------------------------------
     #   Z sym  total        # sym  WBO       # sym  WBO       # sym  WBO
 ---------------------------------------------------------------------------
     1   6 C    3.940 --     2 C    1.452    21 C    1.345    79 H    0.931
     2   6 C    3.952 --     1 C    1.452    15 C    1.154     3 C    1.082
     3   6 C    3.909 --     4 O    1.678     2 C    1.082     5 C    1.020
     4   8 O    2.083 --     3 C    1.678    51 S    0.130
     5   6 C    3.974 --     6 C    1.425    14 C    1.296     3 C    1.020
     6   6 C    3.977 --     5 C    1.425     7 C    1.369    80 H    0.960
     7   6 C    3.907 --    12 C    1.373     6 C    1.369     8 O    1.000
     8   8 O    2.351 --     9 C    1.081     7 C    1.000    10 O    0.149
     9   6 C    3.893 --    10 O    1.744     8 O    1.081    11 C    1.002
    10   8 O    2.022 --     9 C    1.744     8 O    0.149
    11   6 C    3.977 --     9 C    1.002    83 H    0.978    82 H    0.954
                            81 H    0.945
    12   6 C    3.971 --    13 C    1.443     7 C    1.373    84 H    0.961
    13   6 C    3.972 --    12 C    1.443    14 C    1.394    85 H    0.959
    14   6 C    3.979 --    13 C    1.394     5 C    1.296    15 C    1.083
    15   6 C    3.965 --    16 C    1.462     2 C    1.154    14 C    1.083
    16   6 C    3.941 --    15 C    1.462    17 C    1.105    19 C    1.102
    17   6 C    3.941 --    18 N    2.735    16 C    1.105
    18   7 N    2.952 --    17 C    2.735
    19   6 C    3.940 --    20 N    2.748    16 C    1.102
    20   7 N    2.955 --    19 C    2.748
    21   6 C    3.930 --     1 C    1.345    22 C    1.313    51 S    1.068
    22   6 C    3.954 --    25 C    1.376    21 C    1.313    23 C    1.020
    23   6 C    3.990 --    22 C    1.020    24 C    0.989    86 H    0.967
                            87 H    0.961
    24   6 C    3.987 --    23 C    0.989    89 H    0.988    90 H    0.987
                            88 H    0.983
    25   6 C    3.927 --    22 C    1.376    50 C    1.280    26 S    1.075
    26  16 S    2.501 --    27 C    1.114    25 C    1.075
    27   6 C    3.915 --    49 C    1.289    28 C    1.289    26 S    1.114
    28   6 C    3.953 --    27 C    1.289    47 C    1.257    29 C    1.165
    29   6 C    3.972 --    33 N    1.460    28 C    1.165    30 C    1.135
                            32 Se   0.120
    30   6 C    3.973 --    31 N    1.460    34 C    1.165    29 C    1.135
                            32 Se   0.120
    31   7 N    3.131 --    30 C    1.460    32 Se   1.434    33 N    0.126
    32  34 Se   3.243 --    33 N    1.434    31 N    1.434    30 C    0.120
                            29 C    0.120
    33   7 N    3.132 --    29 C    1.460    32 Se   1.434    31 N    0.126
    34   6 C    3.953 --    35 C    1.281    46 C    1.266    30 C    1.165
    35   6 C    3.918 --    44 C    1.292    34 C    1.281    36 S    1.116
    36  16 S    2.517 --    35 C    1.116    37 C    1.088
    37   6 C    3.927 --    43 C    1.321    38 C    1.311    36 S    1.088
    38   6 C    3.963 --    41 C    1.397    37 C    1.311    39 C    1.018
    39   6 C    3.991 --    38 C    1.018    40 C    0.991    91 H    0.969
                            92 H    0.961
    40   6 C    3.988 --    39 C    0.991    94 H    0.987    93 H    0.987
                            95 H    0.983
    41   6 C    3.924 --    38 C    1.397    56 C    1.253    42 S    1.064
    42  16 S    2.551 --    43 C    1.127    41 C    1.064
    43   6 C    3.935 --    37 C    1.321    44 C    1.253    42 S    1.127
    44   6 C    3.941 --    35 C    1.292    43 C    1.253    45 N    1.170
    45   7 N    3.575 --    46 C    1.185    44 C    1.170    54 C    0.972
    46   6 C    3.931 --    34 C    1.266    47 C    1.214    45 N    1.185
    47   6 C    3.929 --    28 C    1.257    46 C    1.214    48 N    1.194
    48   7 N    3.577 --    47 C    1.194    49 C    1.165    52 C    0.972
    49   6 C    3.940 --    27 C    1.289    50 C    1.259    48 N    1.165
    50   6 C    3.940 --    25 C    1.280    49 C    1.259    51 S    1.160
    51  16 S    2.721 --    50 C    1.160    21 C    1.068     4 O    0.130
    52   6 C    3.946 --    53 C    1.006    48 N    0.972    97 H    0.960
                            96 H    0.949
    53   6 C    3.984 --    52 C    1.006    99 H    0.986    98 H    0.982
                           100 H    0.980
    54   6 C    3.947 --    55 C    1.006    45 N    0.972   102 H    0.961
                           101 H    0.949
    55   6 C    3.984 --    54 C    1.006   103 H    0.986   105 H    0.982
                           104 H    0.980
    56   6 C    3.944 --    57 C    1.543    41 C    1.253   106 H    0.940
    57   6 C    3.954 --    56 C    1.543    66 C    1.135    58 C    1.019
    58   6 C    3.910 --    59 O    1.728    60 C    1.030    57 C    1.019
    59   8 O    2.004 --    58 C    1.728
    60   6 C    3.969 --    61 C    1.379    65 C    1.299    58 C    1.030
    61   6 C    3.981 --    62 C    1.441    60 C    1.379   107 H    0.963
    62   6 C    3.953 --    61 C    1.441    63 C    1.323    78 C    0.997
    63   6 C    3.963 --    64 C    1.446    62 C    1.323    72 C    0.999
    64   6 C    3.978 --    63 C    1.446    65 C    1.369   108 H    0.960
    65   6 C    3.977 --    64 C    1.369    60 C    1.299    66 C    1.087
    66   6 C    3.968 --    67 C    1.463    57 C    1.135    65 C    1.087
    67   6 C    3.966 --    66 C    1.463    70 C    1.108    68 C    1.102
    68   6 C    3.943 --    69 N    2.751    67 C    1.102
    69   7 N    2.965 --    68 C    2.751
    70   6 C    3.942 --    71 N    2.749    67 C    1.108
    71   7 N    2.957 --    70 C    2.749
    72   6 C    3.983 --    63 C    0.999    78 C    0.977   109 H    0.957
                            73 C    0.945
    73   6 C    3.988 --    74 C    1.010    77 C    0.985   110 H    0.971
                            72 C    0.945
    74   6 C    3.987 --    75 C    1.924    73 C    1.010   111 H    0.971
    75   6 C    3.987 --    74 C    1.924    76 C    1.010   112 H    0.971
    76   6 C    3.987 --    75 C    1.010    77 C    0.985   113 H    0.971
                            78 C    0.946
    77   6 C    3.991 --    73 C    0.985    76 C    0.985   114 H    0.977
                           115 H    0.976
    78   6 C    3.982 --    62 C    0.997    72 C    0.977   116 H    0.957
                            76 C    0.946
    79   1 H    0.993 --     1 C    0.931
    80   1 H    0.993 --     6 C    0.960
    81   1 H    0.986 --    11 C    0.945
    82   1 H    0.987 --    11 C    0.954
    83   1 H    0.990 --    11 C    0.978
    84   1 H    0.990 --    12 C    0.961
    85   1 H    0.993 --    13 C    0.959
    86   1 H    0.994 --    23 C    0.967
    87   1 H    0.995 --    23 C    0.961
    88   1 H    0.995 --    24 C    0.983
    89   1 H    0.997 --    24 C    0.988
    90   1 H    0.998 --    24 C    0.987
    91   1 H    0.995 --    39 C    0.969
    92   1 H    0.995 --    39 C    0.961
    93   1 H    0.998 --    40 C    0.987
    94   1 H    0.998 --    40 C    0.987
    95   1 H    0.995 --    40 C    0.983
    96   1 H    0.989 --    52 C    0.949
    97   1 H    0.992 --    52 C    0.960
    98   1 H    0.996 --    53 C    0.982
    99   1 H    0.997 --    53 C    0.986
   100   1 H    0.994 --    53 C    0.980
   101   1 H    0.989 --    54 C    0.949
   102   1 H    0.993 --    54 C    0.961
   103   1 H    0.997 --    55 C    0.986
   104   1 H    0.994 --    55 C    0.980
   105   1 H    0.996 --    55 C    0.982
   106   1 H    0.991 --    56 C    0.940
   107   1 H    0.995 --    61 C    0.963
   108   1 H    0.996 --    64 C    0.960
   109   1 H    0.994 --    72 C    0.957
   110   1 H    0.998 --    73 C    0.971
   111   1 H    0.999 --    74 C    0.971
   112   1 H    0.999 --    75 C    0.971
   113   1 H    0.998 --    76 C    0.971
   114   1 H    0.997 --    77 C    0.977
   115   1 H    0.995 --    77 C    0.976
   116   1 H    0.994 --    78 C    0.957
 ---------------------------------------------------------------------------

Topologies differ in bond orders
Writing corrected topology to xtbtopo.mol

molecular dipole:
                 x           y           z       tot (Debye)
 q only:       -2.156      -1.292       2.946
   full:       -2.693      -1.283       3.081      10.901
molecular quadrupole (traceless):
                xx          xy          yy          xz          yz          zz
 q only:      -59.301      71.167     -16.780     -20.598      -3.382      76.081
  q+dip:      -55.620      71.160     -20.785      -7.288      -2.738      76.405
   full:      -61.501      72.777      -7.304      -8.282       1.805      68.806


           -------------------------------------------------
          | TOTAL ENERGY             -205.788991661491 Eh   |
          | GRADIENT NORM               0.043052156493 Eh/α |
          | HOMO-LUMO GAP               1.030060158630 eV   |
           -------------------------------------------------

------------------------------------------------------------------------
 * finished run on 2022/02/03 at 00:44:56.221     
------------------------------------------------------------------------
 total:
 * wall-time:     0 d,  0 h,  0 min,  0.689 sec
 *  cpu-time:     0 d,  0 h,  0 min,  4.753 sec
 * ratio c/w:     6.899 speedup
 SCF:
 * wall-time:     0 d,  0 h,  0 min,  0.623 sec
 *  cpu-time:     0 d,  0 h,  0 min,  4.357 sec
 * ratio c/w:     6.998 speedup

