      -----------------------------------------------------------      
     |                   =====================                   |     
     |                           x T B                           |     
     |                   =====================                   |     
     |                         S. Grimme                         |     
     |          Mulliken Center for Theoretical Chemistry        |     
     |                    University of Bonn                     |     
      -----------------------------------------------------------      

   * xtb version 6.4.1 (unknown) compiled by 'oda6@login1.crc.pitt.edu' on 2021-06-25

   xtb is free software: you can redistribute it and/or modify it under
   the terms of the GNU Lesser General Public License as published by
   the Free Software Foundation, either version 3 of the License, or
   (at your option) any later version.
   
   xtb is distributed in the hope that it will be useful,
   but WITHOUT ANY WARRANTY; without even the implied warranty of
   MERCHANTABILITY or FITNESS FOR A PARTICULAR PURPOSE.  See the
   GNU Lesser General Public License for more details.
   
   Cite this work as:
   * C. Bannwarth, E. Caldeweyher, S. Ehlert, A. Hansen, P. Pracht,
     J. Seibert, S. Spicher, S. Grimme, WIREs Comput. Mol. Sci., 2020, 11,
     e01493. DOI: 10.1002/wcms.1493
   
   for GFN2-xTB:
   * C. Bannwarth, S. Ehlert and S. Grimme., J. Chem. Theory Comput., 2019,
     15, 1652-1671. DOI: 10.1021/acs.jctc.8b01176
   for GFN1-xTB:
   * S. Grimme, C. Bannwarth, P. Shushkov, J. Chem. Theory Comput., 2017,
     13, 1989-2009. DOI: 10.1021/acs.jctc.7b00118
   for GFN0-xTB:
   * P. Pracht, E. Caldeweyher, S. Ehlert, S. Grimme, ChemRxiv, 2019, preprint.
     DOI: 10.26434/chemrxiv.8326202.v1
   for GFN-FF:
   * S. Spicher and S. Grimme, Angew. Chem. Int. Ed., 2020, 59, 15665-15673.
     DOI: 10.1002/anie.202004239
   
   for DFT-D4:
   * E. Caldeweyher, C. Bannwarth and S. Grimme, J. Chem. Phys., 2017,
     147, 034112. DOI: 10.1063/1.4993215
   * E. Caldeweyher, S. Ehlert, A. Hansen, H. Neugebauer, S. Spicher,
     C. Bannwarth and S. Grimme, J. Chem. Phys., 2019, 150, 154122.
     DOI: 10.1063/1.5090222
   * E. Caldeweyher, J.-M. Mewes, S. Ehlert and S. Grimme, Phys. Chem. Chem. Phys.
     2020, 22, 8499-8512. DOI: 10.1039/D0CP00502A
   
   for sTDA-xTB:
   * S. Grimme and C. Bannwarth, J. Chem. Phys., 2016, 145, 054103.
     DOI: 10.1063/1.4959605
   
   in the mass-spec context:
   * V. Asgeirsson, C. Bauer and S. Grimme, Chem. Sci., 2017, 8, 4879.
     DOI: 10.1039/c7sc00601b
   * J. Koopman and S. Grimme, ACS Omega 2019, 4, 12, 15120-15133.
     DOI: 10.1021/acsomega.9b02011
   
   for metadynamics refer to:
   * S. Grimme, J. Chem. Theory Comput., 2019, 155, 2847-2862
     DOI: 10.1021/acs.jctc.9b00143
   
   for SPH calculations refer to:
   * S. Spicher and S. Grimme, J. Chem. Theory Comput., 2021, 17, 1701-1714
     DOI: 10.1021/acs.jctc.0c01306
   
   with help from (in alphabetical order)
   P. Atkinson, C. Bannwarth, F. Bohle, G. Brandenburg, E. Caldeweyher
   M. Checinski, S. Dohm, S. Ehlert, S. Ehrlich, I. Gerasimov, J. Koopman
   C. Lavigne, S. Lehtola, F. März, M. Müller, F. Musil, H. Neugebauer
   J. Pisarek, C. Plett, P. Pracht, J. Seibert, P. Shushkov, S. Spicher
   M. Stahn, M. Steiner, T. Strunk, J. Stückrath, T. Rose, and J. Unsleber
   
 * started run on 2022/02/01 at 22:37:23.505     

           -------------------------------------------------
          |                Calculation Setup                |
           -------------------------------------------------

          program call               : /ihome/ghutchison/oda6/xtb/xtb-641/bin/xtb ../../GFN2_output/61_51_10.mol --sp --alpb water
          hostname                   : smp-n66
          coordinate file            : ../../GFN2_output/61_51_10.mol
          omp threads                :                     8
          number of atoms            :                   103
          number of electrons        :                   356
          charge                     :                     0
          spin                       :                   0.0
          first test random number   :      0.45351314011431

   ID    Z sym.   atoms
    1    6 C      1-3, 5-8, 10, 12, 14-16, 18, 20-24, 26-29, 33, 34, 36-40,
                  42, 43, 45, 46, 48, 49, 51-57, 59-71, 73
    2    8 O      4, 58
    3    9 F      9, 11, 13
    4    7 N      17, 19, 30, 32, 44, 47, 72, 74
    5   16 S      25, 31, 35, 41, 50
    6    1 H      75-103

           -------------------------------------------------
          |                 G F N 2 - x T B                 |
           -------------------------------------------------

        Reference                      10.1021/acs.jctc.8b01176
      * Hamiltonian:
        H0-scaling (s, p, d)           1.850000    2.230000    2.230000
        zeta-weighting                 0.500000
      * Dispersion:
        s8                             2.700000
        a1                             0.520000
        a2                             5.000000
        s9                             5.000000
      * Repulsion:
        kExp                           1.500000    1.000000
        rExp                           1.000000
      * Coulomb:
        alpha                          2.000000
        third order                    shell-resolved
        anisotropic                    true
        a3                             3.000000
        a5                             4.000000
        cn-shift                       1.200000
        cn-exp                         4.000000
        max-rad                        5.000000

      * Solvation model:               ALPB
        Solvent                        water
        Parameter file                 internal GFN2-xTB/ALPB
        Dielectric constant                8.0200E+01
        Reference state                gsolv [1 M gas/solution]
        Free energy shift                  1.0808E-03 Eh       6.7819E-01 kcal/mol
        Temperature                        2.9815E+02 K
        Density                            1.0000E+00 kg/L
        Solvent mass                       1.8000E+01 g/mol
        Interaction kernel             P16
        Born radius scaling (c1)           1.4744E+00
        Born radii integrator          GBOBC
        Born offset                        0.0000E+00 a0       0.0000E+00 AA
        H-bond correction              true
        Ion screening                  false
        Surface tension                    1.0000E-05 Eh       1.5569E+01 dyn/cm
        Grid points                               230 per atom

          ...................................................
          :                      SETUP                      :
          :.................................................:
          :  # basis functions                 355          :
          :  # atomic orbitals                 350          :
          :  # shells                          182          :
          :  # electrons                       356          :
          :  max. iterations                   250          :
          :  Hamiltonian                  GFN2-xTB          :
          :  restarted?                      false          :
          :  GBSA solvation                   true          :
          :  PC potential                    false          :
          :  electronic temp.          300.0000000     K    :
          :  accuracy                    1.0000000          :
          :  -> integral cutoff          0.2500000E+02      :
          :  -> integral neglect         0.1000000E-07      :
          :  -> SCF convergence          0.1000000E-05 Eh   :
          :  -> wf. convergence          0.1000000E-03 e    :
          :  Broyden damping             0.4000000          :
          ...................................................

 iter      E             dE          RMSdq      gap      omega  full diag
   1   -199.3169360 -0.199317E+03  0.519E+00    1.01       0.0  T
   2   -199.5218040 -0.204868E+00  0.310E+00    0.88       1.0  T
   3   -199.4652148  0.565893E-01  0.164E+00    0.76       1.0  T
   4   -199.5945201 -0.129305E+00  0.525E-01    0.84       1.0  T
   5   -199.6090422 -0.145222E-01  0.180E-01    0.74       1.0  T
   6   -199.6104167 -0.137447E-02  0.895E-02    0.78       1.0  T
   7   -199.6106804 -0.263690E-03  0.321E-02    0.77       1.0  T
   8   -199.6107013 -0.209546E-04  0.157E-02    0.77       1.0  T
   9   -199.6107082 -0.687756E-05  0.845E-03    0.77       1.2  T
  10   -199.6107097 -0.143694E-05  0.455E-03    0.77       2.2  T
  11   -199.6107103 -0.608134E-06  0.263E-03    0.77       3.7  T
  12   -199.6107104 -0.116135E-06  0.129E-03    0.77       7.6  T
  13   -199.6107104 -0.469529E-07  0.501E-04    0.77      19.7  T
  14   -199.6107104 -0.731333E-08  0.262E-04    0.77      37.6  T

   *** convergence criteria satisfied after 14 iterations ***

         #    Occupation            Energy/Eh            Energy/eV
      -------------------------------------------------------------
         1        2.0000           -0.8695411             -23.6614
       ...           ...                  ...                  ...
       172        2.0000           -0.4055602             -11.0359
       173        2.0000           -0.4020659             -10.9408
       174        2.0000           -0.3996883             -10.8761
       175        2.0000           -0.3931626             -10.6985
       176        2.0000           -0.3856868             -10.4951
       177        2.0000           -0.3776326             -10.2759
       178        2.0000           -0.3735088             -10.1637 (HOMO)
       179        0.0000           -0.3450843              -9.3902 (LUMO)
       180                         -0.3341903              -9.0938
       181                         -0.3312199              -9.0130
       182                         -0.3205861              -8.7236
       183                         -0.3032244              -8.2512
       ...                                ...                  ...
       350                          1.1500911              31.2956
      -------------------------------------------------------------
                  HL-Gap            0.0284245 Eh            0.7735 eV
             Fermi-level           -0.3592904 Eh           -9.7768 eV

 SCC (total)                   0 d,  0 h,  0 min,  0.234 sec
 SCC setup                      ...        0 min,  0.002 sec (  0.957%)
 Dispersion                     ...        0 min,  0.003 sec (  1.246%)
 classical contributions        ...        0 min,  0.000 sec (  0.048%)
 integral evaluation            ...        0 min,  0.012 sec (  5.311%)
 iterations                     ...        0 min,  0.183 sec ( 78.266%)
 molecular gradient             ...        0 min,  0.032 sec ( 13.759%)
 printout                       ...        0 min,  0.001 sec (  0.385%)

         :::::::::::::::::::::::::::::::::::::::::::::::::::::
         ::                     SUMMARY                     ::
         :::::::::::::::::::::::::::::::::::::::::::::::::::::
         :: total energy            -196.638660789264 Eh    ::
         :: total w/o Gsasa/hb      -196.621283155870 Eh    ::
         :: gradient norm              0.034661012263 Eh/a0 ::
         :: HOMO-LUMO gap              0.773470390224 eV    ::
         ::.................................................::
         :: SCC energy              -199.610710435587 Eh    ::
         :: -> isotropic ES            0.178323186727 Eh    ::
         :: -> anisotropic ES          0.005188894275 Eh    ::
         :: -> anisotropic XC          0.109109417688 Eh    ::
         :: -> dispersion             -0.169382577482 Eh    ::
         :: -> Gsolv                  -0.054813078363 Eh    ::
         ::    -> Gelec               -0.037435444969 Eh    ::
         ::    -> Gsasa               -0.013237850031 Eh    ::
         ::    -> Ghb                 -0.005220543061 Eh    ::
         ::    -> Gshift               0.001080759698 Eh    ::
         :: repulsion energy           2.973874854236 Eh    ::
         :: add. restraining           0.000000000000 Eh    ::
         :: total charge               0.000000000000 e     ::
         :::::::::::::::::::::::::::::::::::::::::::::::::::::

           -------------------------------------------------
          |                Property Printout                |
           -------------------------------------------------

    * Orbital Energies and Occupations

         #    Occupation            Energy/Eh            Energy/eV
      -------------------------------------------------------------
         1        2.0000           -0.8695411             -23.6614
       ...           ...                  ...                  ...
       166        2.0000           -0.4236727             -11.5287
       167        2.0000           -0.4212164             -11.4619
       168        2.0000           -0.4196750             -11.4199
       169        2.0000           -0.4185474             -11.3893
       170        2.0000           -0.4177455             -11.3674
       171        2.0000           -0.4127189             -11.2307
       172        2.0000           -0.4055602             -11.0359
       173        2.0000           -0.4020659             -10.9408
       174        2.0000           -0.3996883             -10.8761
       175        2.0000           -0.3931626             -10.6985
       176        2.0000           -0.3856868             -10.4951
       177        2.0000           -0.3776326             -10.2759
       178        2.0000           -0.3735088             -10.1637 (HOMO)
       179        0.0000           -0.3450843              -9.3902 (LUMO)
       180                         -0.3341903              -9.0938
       181                         -0.3312199              -9.0130
       182                         -0.3205861              -8.7236
       183                         -0.3032244              -8.2512
       184                         -0.2888581              -7.8602
       185                         -0.2720150              -7.4019
       186                         -0.2615622              -7.1175
       187                         -0.2577326              -7.0133
       188                         -0.2547275              -6.9315
       189                         -0.2529384              -6.8828
       ...                                ...                  ...
       350                          1.1500911              31.2956
      -------------------------------------------------------------
                  HL-Gap            0.0284245 Eh            0.7735 eV
             Fermi-level           -0.3592904 Eh           -9.7768 eV

     #   Z          covCN         q      C6AA      α(0)
     1   6 C        2.920    -0.010    28.273     8.720
     2   6 C        3.009    -0.042    29.021     8.837
     3   6 C        2.871     0.239    23.023     7.865
     4   8 O        0.963    -0.388    21.391     6.204
     5   6 C        3.042    -0.036    28.854     8.810
     6   6 C        3.037     0.016    27.611     8.619
     7   6 C        2.912    -0.050    29.250     8.868
     8   6 C        2.783     0.172    24.280     8.071
     9   9 F        0.788    -0.200    11.236     3.960
    10   6 C        2.777     0.149    24.755     8.149
    11   9 F        0.787    -0.198    11.216     3.956
    12   6 C        2.773     0.175    24.229     8.062
    13   9 F        0.787    -0.191    11.142     3.943
    14   6 C        3.021     0.039    27.107     8.540
    15   6 C        2.947     0.011    27.762     8.642
    16   6 C        1.946     0.133    27.820     8.518
    17   7 N        0.911    -0.270    26.989     7.514
    18   6 C        1.945     0.134    27.799     8.515
    19   7 N        0.911    -0.265    26.863     7.496
    20   6 C        2.992     0.021    27.518     8.605
    21   6 C        3.091     0.016    27.541     8.602
    22   6 C        3.804    -0.063    21.716     6.634
    23   6 C        3.754    -0.112    22.692     6.793
    24   6 C        3.177     0.015    27.258     8.525
    25  16 S        2.163    -0.027   142.183    20.069
    26   6 C        3.094     0.011    27.648     8.618
    27   6 C        3.085    -0.036    28.804     8.798
    28   6 C        3.341     0.069    24.014     7.747
    29   6 C        3.340     0.069    24.021     7.750
    30   7 N        1.855    -0.298    28.583     7.924
    31  16 S        2.687     0.310   129.031    19.118
    32   7 N        1.854    -0.296    28.526     7.916
    33   6 C        3.086    -0.037    28.829     8.801
    34   6 C        3.096     0.008    27.723     8.629
    35  16 S        2.166    -0.045   142.905    20.120
    36   6 C        3.184     0.013    27.288     8.525
    37   6 C        3.096     0.008    27.721     8.629
    38   6 C        3.804    -0.059    21.641     6.623
    39   6 C        3.754    -0.108    22.616     6.781
    40   6 C        2.993     0.016    27.655     8.626
    41  16 S        2.345     0.009   140.703    19.964
    42   6 C        3.107     0.002    27.837     8.645
    43   6 C        3.253     0.032    26.231     8.286
    44   7 N        2.799    -0.008    21.410     6.872
    45   6 C        3.074     0.034    27.167     8.546
    46   6 C        3.073     0.039    27.049     8.527
    47   7 N        2.795    -0.013    21.506     6.888
    48   6 C        3.256     0.033    26.172     8.272
    49   6 C        3.106     0.010    27.667     8.618
    50  16 S        2.316     0.013   140.516    19.951
    51   6 C        3.747    -0.020    21.000     6.536
    52   6 C        3.752    -0.122    22.904     6.825
    53   6 C        3.743    -0.012    20.855     6.515
    54   6 C        3.752    -0.133    23.111     6.856
    55   6 C        2.920    -0.014    28.370     8.734
    56   6 C        3.009    -0.044    29.068     8.844
    57   6 C        2.880     0.227    23.252     7.905
    58   8 O        0.983    -0.406    21.732     6.253
    59   6 C        3.040    -0.025    28.598     8.771
    60   6 C        3.041     0.007    27.835     8.653
    61   6 C        2.909    -0.032    28.797     8.799
    62   6 C        2.921    -0.027    28.672     8.781
    63   6 C        2.986     0.020    27.557     8.611
    64   6 C        2.918    -0.034    28.853     8.808
    65   6 C        2.915    -0.026    28.648     8.777
    66   6 C        2.916    -0.026    28.651     8.778
    67   6 C        2.915    -0.033    28.832     8.805
    68   6 C        2.982     0.023    27.480     8.599
    69   6 C        3.022     0.035    27.198     8.555
    70   6 C        2.947     0.000    28.020     8.682
    71   6 C        1.949     0.134    27.800     8.515
    72   7 N        0.911    -0.287    27.393     7.570
    73   6 C        1.948     0.130    27.887     8.528
    74   7 N        0.911    -0.284    27.327     7.560
    75   1 H        0.926     0.087     1.909     2.160
    76   1 H        0.926     0.116     1.646     2.006
    77   1 H        0.924     0.071     2.072     2.251
    78   1 H        0.924     0.065     2.144     2.290
    79   1 H        0.925     0.062     2.171     2.304
    80   1 H        0.925     0.052     2.296     2.370
    81   1 H        0.925     0.042     2.422     2.434
    82   1 H        0.924     0.055     2.258     2.350
    83   1 H        0.924     0.065     2.141     2.288
    84   1 H        0.925     0.038     2.473     2.459
    85   1 H        0.925     0.059     2.211     2.325
    86   1 H        0.925     0.050     2.323     2.383
    87   1 H        0.925     0.096     1.820     2.110
    88   1 H        0.924     0.084     1.934     2.175
    89   1 H        0.925     0.053     2.287     2.365
    90   1 H        0.925     0.071     2.077     2.254
    91   1 H        0.925     0.048     2.342     2.393
    92   1 H        0.924     0.077     2.012     2.218
    93   1 H        0.924     0.081     1.967     2.193
    94   1 H        0.925     0.061     2.190     2.314
    95   1 H        0.925     0.072     2.063     2.246
    96   1 H        0.925     0.067     2.114     2.273
    97   1 H        0.925     0.072     2.067     2.248
    98   1 H        0.926     0.051     2.302     2.372
    99   1 H        0.926     0.068     2.113     2.273
   100   1 H        0.926     0.057     2.233     2.337
   101   1 H        0.926     0.059     2.214     2.327
   102   1 H        0.926     0.059     2.215     2.327
   103   1 H        0.926     0.066     2.130     2.283

 Mol. C6AA /au·bohr⁶  :     201631.808331
 Mol. C8AA /au·bohr⁸  :    5672820.381772
 Mol. α(0) /au        :        713.281548


Wiberg/Mayer (AO) data.
largest (>0.10) Wiberg bond orders for each atom

 ---------------------------------------------------------------------------
     #   Z sym  total        # sym  WBO       # sym  WBO       # sym  WBO
 ---------------------------------------------------------------------------
     1   6 C    3.932 --     2 C    1.412    20 C    1.379    75 H    0.929
     2   6 C    3.953 --     1 C    1.412    14 C    1.173     3 C    1.093
     3   6 C    3.914 --     4 O    1.685     2 C    1.093     5 C    1.011
     4   8 O    2.085 --     3 C    1.685    50 S    0.121
     5   6 C    3.970 --    12 C    1.377     6 C    1.298     3 C    1.011
     6   6 C    3.981 --     7 C    1.413     5 C    1.298    14 C    1.072
     7   6 C    3.961 --     6 C    1.413     8 C    1.374    76 H    0.948
     8   6 C    3.881 --     7 C    1.374    10 C    1.350     9 F    0.980
     9   9 F    1.117 --     8 C    0.980
    10   6 C    3.873 --     8 C    1.350    12 C    1.322    11 F    0.979
    11   9 F    1.113 --    10 C    0.979
    12   6 C    3.882 --     5 C    1.377    10 C    1.322    13 F    0.988
    13   9 F    1.134 --    12 C    0.988
    14   6 C    3.962 --    15 C    1.458     2 C    1.173     6 C    1.072
    15   6 C    3.939 --    14 C    1.458    18 C    1.103    16 C    1.101
    16   6 C    3.940 --    17 N    2.751    15 C    1.101
    17   7 N    2.955 --    16 C    2.751
    18   6 C    3.943 --    19 N    2.740    15 C    1.103
    19   7 N    2.955 --    18 C    2.740
    20   6 C    3.932 --     1 C    1.379    21 C    1.286    50 S    1.064
    21   6 C    3.951 --    24 C    1.396    20 C    1.286    22 C    1.021
    22   6 C    3.989 --    21 C    1.021    23 C    0.987    77 H    0.966
                            78 H    0.959
    23   6 C    3.986 --    22 C    0.987    80 H    0.987    81 H    0.987
                            79 H    0.982
    24   6 C    3.928 --    21 C    1.396    49 C    1.262    25 S    1.075
    25  16 S    2.503 --    26 C    1.115    24 C    1.075
    26   6 C    3.913 --    27 C    1.291    48 C    1.283    25 S    1.115
    27   6 C    3.952 --    26 C    1.291    46 C    1.254    28 C    1.169
    28   6 C    3.970 --    32 N    1.426    27 C    1.169    29 C    1.166
                            31 S    0.106
    29   6 C    3.970 --    30 N    1.424    33 C    1.171    28 C    1.166
                            31 S    0.105
    30   7 N    3.059 --    29 C    1.424    31 S    1.382    32 N    0.144
    31  16 S    3.096 --    30 N    1.382    32 N    1.381    28 C    0.106
                            29 C    0.105
    32   7 N    3.059 --    28 C    1.426    31 S    1.381    30 N    0.144
    33   6 C    3.952 --    34 C    1.288    45 C    1.253    29 C    1.171
    34   6 C    3.913 --    43 C    1.292    33 C    1.288    35 S    1.111
    35  16 S    2.498 --    34 C    1.111    36 C    1.076
    36   6 C    3.926 --    37 C    1.363    42 C    1.291    35 S    1.076
    37   6 C    3.953 --    36 C    1.363    40 C    1.329    38 C    1.019
    38   6 C    3.992 --    37 C    1.019    39 C    0.990    83 H    0.967
                            82 H    0.963
    39   6 C    3.988 --    38 C    0.990    86 H    0.988    84 H    0.987
                            85 H    0.983
    40   6 C    3.931 --    37 C    1.329    55 C    1.321    41 S    1.077
    41  16 S    2.732 --    42 C    1.156    40 C    1.077    58 O    0.137
    42   6 C    3.941 --    36 C    1.291    43 C    1.254    41 S    1.156
    43   6 C    3.938 --    34 C    1.292    42 C    1.254    44 N    1.169
    44   7 N    3.579 --    45 C    1.191    43 C    1.169    53 C    0.971
    45   6 C    3.930 --    33 C    1.253    46 C    1.222    44 N    1.191
    46   6 C    3.926 --    27 C    1.254    45 C    1.222    47 N    1.190
    47   7 N    3.565 --    46 C    1.190    48 C    1.159    51 C    0.969
    48   6 C    3.940 --    26 C    1.283    49 C    1.273    47 N    1.159
    49   6 C    3.939 --    48 C    1.273    24 C    1.262    50 S    1.166
    50  16 S    2.713 --    49 C    1.166    20 C    1.064     4 O    0.121
    51   6 C    3.944 --    52 C    1.004    47 N    0.969    88 H    0.961
                            87 H    0.950
    52   6 C    3.985 --    51 C    1.004    91 H    0.986    89 H    0.984
                            90 H    0.980
    53   6 C    3.949 --    54 C    1.005    44 N    0.971    92 H    0.961
                            93 H    0.959
    54   6 C    3.981 --    53 C    1.005    95 H    0.980    96 H    0.979
                            94 H    0.979
    55   6 C    3.941 --    56 C    1.480    40 C    1.321    97 H    0.931
    56   6 C    3.951 --    55 C    1.480    69 C    1.147    57 C    1.070
    57   6 C    3.911 --    58 O    1.663    56 C    1.070    59 C    1.041
    58   8 O    2.084 --    57 C    1.663    41 S    0.137
    59   6 C    3.966 --    60 C    1.358    68 C    1.273    57 C    1.041
    60   6 C    3.975 --    59 C    1.358    61 C    1.314    69 C    1.086
    61   6 C    3.983 --    62 C    1.527    60 C    1.314    98 H    0.960
    62   6 C    3.971 --    61 C    1.527    63 C    1.286    99 H    0.965
    63   6 C    3.978 --    62 C    1.286    64 C    1.283    68 C    1.226
    64   6 C    3.983 --    65 C    1.551    63 C    1.283   100 H    0.966
                            67 C    0.114
    65   6 C    3.972 --    64 C    1.551    66 C    1.318   101 H    0.968
    66   6 C    3.985 --    67 C    1.553    65 C    1.318   102 H    0.968
    67   6 C    3.974 --    66 C    1.553    68 C    1.280   103 H    0.963
                            64 C    0.114
    68   6 C    3.984 --    67 C    1.280    59 C    1.273    63 C    1.226
    69   6 C    3.964 --    70 C    1.465    56 C    1.147    60 C    1.086
    70   6 C    3.936 --    69 C    1.465    73 C    1.103    71 C    1.101
    71   6 C    3.939 --    72 N    2.745    70 C    1.101
    72   7 N    2.954 --    71 C    2.745
    73   6 C    3.940 --    74 N    2.735    70 C    1.103
    74   7 N    2.951 --    73 C    2.735
    75   1 H    0.991 --     1 C    0.929
    76   1 H    0.986 --     7 C    0.948
    77   1 H    0.994 --    22 C    0.966
    78   1 H    0.994 --    22 C    0.959
    79   1 H    0.994 --    23 C    0.982
    80   1 H    0.997 --    23 C    0.987
    81   1 H    0.998 --    23 C    0.987
    82   1 H    0.996 --    38 C    0.963
    83   1 H    0.995 --    38 C    0.967
    84   1 H    0.998 --    39 C    0.987
    85   1 H    0.995 --    39 C    0.983
    86   1 H    0.997 --    39 C    0.988
    87   1 H    0.989 --    51 C    0.950
    88   1 H    0.992 --    51 C    0.961
    89   1 H    0.997 --    52 C    0.984
    90   1 H    0.994 --    52 C    0.980
    91   1 H    0.998 --    52 C    0.986
    92   1 H    0.991 --    53 C    0.961
    93   1 H    0.992 --    53 C    0.959
    94   1 H    0.996 --    54 C    0.979
    95   1 H    0.994 --    54 C    0.980
    96   1 H    0.995 --    54 C    0.979
    97   1 H    0.994 --    55 C    0.931
    98   1 H    0.996 --    61 C    0.960
    99   1 H    0.994 --    62 C    0.965
   100   1 H    0.996 --    64 C    0.966
   101   1 H    0.996 --    65 C    0.968
   102   1 H    0.996 --    66 C    0.968
   103   1 H    0.995 --    67 C    0.963
 ---------------------------------------------------------------------------

Topologies differ in bond orders
Writing corrected topology to xtbtopo.mol

molecular dipole:
                 x           y           z       tot (Debye)
 q only:       -0.773       0.705       0.171
   full:       -1.005       0.550       1.013       3.887
molecular quadrupole (traceless):
                xx          xy          yy          xz          yz          zz
 q only:       98.386      -5.358    -202.090      -7.832      -7.597     103.705
  q+dip:      105.743      -7.132    -201.751      -8.048     -17.855      96.008
   full:      122.340      -8.730    -210.745      -3.143     -18.600      88.405


           -------------------------------------------------
          | TOTAL ENERGY             -196.638660789264 Eh   |
          | GRADIENT NORM               0.034661012263 Eh/α |
          | HOMO-LUMO GAP               0.773470390224 eV   |
           -------------------------------------------------

------------------------------------------------------------------------
 * finished run on 2022/02/01 at 22:37:23.804     
------------------------------------------------------------------------
 total:
 * wall-time:     0 d,  0 h,  0 min,  0.299 sec
 *  cpu-time:     0 d,  0 h,  0 min,  2.302 sec
 * ratio c/w:     7.710 speedup
 SCF:
 * wall-time:     0 d,  0 h,  0 min,  0.236 sec
 *  cpu-time:     0 d,  0 h,  0 min,  1.879 sec
 * ratio c/w:     7.976 speedup

