      -----------------------------------------------------------      
     |                   =====================                   |     
     |                           x T B                           |     
     |                   =====================                   |     
     |                         S. Grimme                         |     
     |          Mulliken Center for Theoretical Chemistry        |     
     |                    University of Bonn                     |     
      -----------------------------------------------------------      

   * xtb version 6.4.1 (unknown) compiled by 'oda6@login1.crc.pitt.edu' on 2021-06-25

   xtb is free software: you can redistribute it and/or modify it under
   the terms of the GNU Lesser General Public License as published by
   the Free Software Foundation, either version 3 of the License, or
   (at your option) any later version.
   
   xtb is distributed in the hope that it will be useful,
   but WITHOUT ANY WARRANTY; without even the implied warranty of
   MERCHANTABILITY or FITNESS FOR A PARTICULAR PURPOSE.  See the
   GNU Lesser General Public License for more details.
   
   Cite this work as:
   * C. Bannwarth, E. Caldeweyher, S. Ehlert, A. Hansen, P. Pracht,
     J. Seibert, S. Spicher, S. Grimme, WIREs Comput. Mol. Sci., 2020, 11,
     e01493. DOI: 10.1002/wcms.1493
   
   for GFN2-xTB:
   * C. Bannwarth, S. Ehlert and S. Grimme., J. Chem. Theory Comput., 2019,
     15, 1652-1671. DOI: 10.1021/acs.jctc.8b01176
   for GFN1-xTB:
   * S. Grimme, C. Bannwarth, P. Shushkov, J. Chem. Theory Comput., 2017,
     13, 1989-2009. DOI: 10.1021/acs.jctc.7b00118
   for GFN0-xTB:
   * P. Pracht, E. Caldeweyher, S. Ehlert, S. Grimme, ChemRxiv, 2019, preprint.
     DOI: 10.26434/chemrxiv.8326202.v1
   for GFN-FF:
   * S. Spicher and S. Grimme, Angew. Chem. Int. Ed., 2020, 59, 15665-15673.
     DOI: 10.1002/anie.202004239
   
   for DFT-D4:
   * E. Caldeweyher, C. Bannwarth and S. Grimme, J. Chem. Phys., 2017,
     147, 034112. DOI: 10.1063/1.4993215
   * E. Caldeweyher, S. Ehlert, A. Hansen, H. Neugebauer, S. Spicher,
     C. Bannwarth and S. Grimme, J. Chem. Phys., 2019, 150, 154122.
     DOI: 10.1063/1.5090222
   * E. Caldeweyher, J.-M. Mewes, S. Ehlert and S. Grimme, Phys. Chem. Chem. Phys.
     2020, 22, 8499-8512. DOI: 10.1039/D0CP00502A
   
   for sTDA-xTB:
   * S. Grimme and C. Bannwarth, J. Chem. Phys., 2016, 145, 054103.
     DOI: 10.1063/1.4959605
   
   in the mass-spec context:
   * V. Asgeirsson, C. Bauer and S. Grimme, Chem. Sci., 2017, 8, 4879.
     DOI: 10.1039/c7sc00601b
   * J. Koopman and S. Grimme, ACS Omega 2019, 4, 12, 15120-15133.
     DOI: 10.1021/acsomega.9b02011
   
   for metadynamics refer to:
   * S. Grimme, J. Chem. Theory Comput., 2019, 155, 2847-2862
     DOI: 10.1021/acs.jctc.9b00143
   
   for SPH calculations refer to:
   * S. Spicher and S. Grimme, J. Chem. Theory Comput., 2021, 17, 1701-1714
     DOI: 10.1021/acs.jctc.0c01306
   
   with help from (in alphabetical order)
   P. Atkinson, C. Bannwarth, F. Bohle, G. Brandenburg, E. Caldeweyher
   M. Checinski, S. Dohm, S. Ehlert, S. Ehrlich, I. Gerasimov, J. Koopman
   C. Lavigne, S. Lehtola, F. März, M. Müller, F. Musil, H. Neugebauer
   J. Pisarek, C. Plett, P. Pracht, J. Seibert, P. Shushkov, S. Spicher
   M. Stahn, M. Steiner, T. Strunk, J. Stückrath, T. Rose, and J. Unsleber
   
 * started run on 2022/02/01 at 22:40:12.195     

           -------------------------------------------------
          |                Calculation Setup                |
           -------------------------------------------------

          program call               : /ihome/ghutchison/oda6/xtb/xtb-641/bin/xtb ../../GFN2_output/61_95_0.mol --sp --alpb water
          hostname                   : smp-n66
          coordinate file            : ../../GFN2_output/61_95_0.mol
          omp threads                :                     8
          number of atoms            :                    94
          number of electrons        :                   320
          charge                     :                     0
          spin                       :                   0.0
          first test random number   :      0.82455402337345

   ID    Z sym.   atoms
    1    6 C      1-3, 5-8, 10, 12, 14-16, 18, 20, 22-24, 26-37, 39-46,
                  48-50, 52-54, 56, 58-62, 64
    2    8 O      4, 25, 38, 51
    3    9 F      9, 11, 13, 55, 57
    4    7 N      17, 19, 63, 65
    5   16 S      21, 47
    6    1 H      66-94

           -------------------------------------------------
          |                 G F N 2 - x T B                 |
           -------------------------------------------------

        Reference                      10.1021/acs.jctc.8b01176
      * Hamiltonian:
        H0-scaling (s, p, d)           1.850000    2.230000    2.230000
        zeta-weighting                 0.500000
      * Dispersion:
        s8                             2.700000
        a1                             0.520000
        a2                             5.000000
        s9                             5.000000
      * Repulsion:
        kExp                           1.500000    1.000000
        rExp                           1.000000
      * Coulomb:
        alpha                          2.000000
        third order                    shell-resolved
        anisotropic                    true
        a3                             3.000000
        a5                             4.000000
        cn-shift                       1.200000
        cn-exp                         4.000000
        max-rad                        5.000000

      * Solvation model:               ALPB
        Solvent                        water
        Parameter file                 internal GFN2-xTB/ALPB
        Dielectric constant                8.0200E+01
        Reference state                gsolv [1 M gas/solution]
        Free energy shift                  1.0808E-03 Eh       6.7819E-01 kcal/mol
        Temperature                        2.9815E+02 K
        Density                            1.0000E+00 kg/L
        Solvent mass                       1.8000E+01 g/mol
        Interaction kernel             P16
        Born radius scaling (c1)           1.4744E+00
        Born radii integrator          GBOBC
        Born offset                        0.0000E+00 a0       0.0000E+00 AA
        H-bond correction              true
        Ion screening                  false
        Surface tension                    1.0000E-05 Eh       1.5569E+01 dyn/cm
        Grid points                               230 per atom

          ...................................................
          :                      SETUP                      :
          :.................................................:
          :  # basis functions                 301          :
          :  # atomic orbitals                 299          :
          :  # shells                          161          :
          :  # electrons                       320          :
          :  max. iterations                   250          :
          :  Hamiltonian                  GFN2-xTB          :
          :  restarted?                      false          :
          :  GBSA solvation                   true          :
          :  PC potential                    false          :
          :  electronic temp.          300.0000000     K    :
          :  accuracy                    1.0000000          :
          :  -> integral cutoff          0.2500000E+02      :
          :  -> integral neglect         0.1000000E-07      :
          :  -> SCF convergence          0.1000000E-05 Eh   :
          :  -> wf. convergence          0.1000000E-03 e    :
          :  Broyden damping             0.4000000          :
          ...................................................

 iter      E             dE          RMSdq      gap      omega  full diag
   1   -182.2980971 -0.182298E+03  0.489E+00    0.85       0.0  T
   2   -182.4199341 -0.121837E+00  0.283E+00    1.00       1.0  T
   3   -182.3226174  0.973167E-01  0.159E+00    0.51       1.0  T
   4   -182.4690179 -0.146401E+00  0.475E-01    0.81       1.0  T
   5   -182.4809967 -0.119788E-01  0.142E-01    0.73       1.0  T
   6   -182.4815477 -0.550965E-03  0.665E-02    0.74       1.0  T
   7   -182.4815905 -0.428153E-04  0.233E-02    0.74       1.0  T
   8   -182.4816120 -0.215145E-04  0.896E-03    0.74       1.2  T
   9   -182.4816138 -0.183168E-05  0.449E-03    0.74       2.3  T
  10   -182.4816148 -0.910706E-06  0.197E-03    0.74       5.2  T
  11   -182.4816148 -0.901681E-07  0.100E-03    0.74      10.3  T
  12   -182.4816149 -0.266134E-07  0.517E-04    0.74      19.9  T
  13   -182.4816149 -0.432604E-08  0.232E-04    0.74      44.5  T

   *** convergence criteria satisfied after 13 iterations ***

         #    Occupation            Energy/Eh            Energy/eV
      -------------------------------------------------------------
         1        2.0000           -0.8702204             -23.6799
       ...           ...                  ...                  ...
       154        2.0000           -0.4201999             -11.4342
       155        2.0000           -0.4156160             -11.3095
       156        2.0000           -0.4150412             -11.2938
       157        2.0000           -0.4136931             -11.2572
       158        2.0000           -0.4007472             -10.9049
       159        2.0000           -0.3997546             -10.8779
       160        2.0000           -0.3746473             -10.1947 (HOMO)
       161        0.0000           -0.3475147              -9.4564 (LUMO)
       162                         -0.3420144              -9.3067
       163                         -0.3352807              -9.1235
       164                         -0.3268159              -8.8931
       165                         -0.2938168              -7.9952
       ...                                ...                  ...
       299                          1.1477700              31.2324
      -------------------------------------------------------------
                  HL-Gap            0.0271326 Eh            0.7383 eV
             Fermi-level           -0.3610824 Eh           -9.8256 eV

 SCC (total)                   0 d,  0 h,  0 min,  0.182 sec
 SCC setup                      ...        0 min,  0.010 sec (  5.499%)
 Dispersion                     ...        0 min,  0.003 sec (  1.800%)
 classical contributions        ...        0 min,  0.000 sec (  0.136%)
 integral evaluation            ...        0 min,  0.010 sec (  5.356%)
 iterations                     ...        0 min,  0.133 sec ( 72.962%)
 molecular gradient             ...        0 min,  0.025 sec ( 13.861%)
 printout                       ...        0 min,  0.001 sec (  0.350%)

         :::::::::::::::::::::::::::::::::::::::::::::::::::::
         ::                     SUMMARY                     ::
         :::::::::::::::::::::::::::::::::::::::::::::::::::::
         :: total energy            -179.882516043316 Eh    ::
         :: total w/o Gsasa/hb      -179.865617356681 Eh    ::
         :: gradient norm              0.036575634852 Eh/a0 ::
         :: HOMO-LUMO gap              0.738314586708 eV    ::
         ::.................................................::
         :: SCC energy              -182.481614874128 Eh    ::
         :: -> isotropic ES            0.204107457673 Eh    ::
         :: -> anisotropic ES          0.009967326753 Eh    ::
         :: -> anisotropic XC          0.081849531168 Eh    ::
         :: -> dispersion             -0.136524699973 Eh    ::
         :: -> Gsolv                  -0.049988912141 Eh    ::
         ::    -> Gelec               -0.033090225507 Eh    ::
         ::    -> Gsasa               -0.011757196502 Eh    ::
         ::    -> Ghb                 -0.006222249831 Eh    ::
         ::    -> Gshift               0.001080759698 Eh    ::
         :: repulsion energy           2.600000187189 Eh    ::
         :: add. restraining           0.000000000000 Eh    ::
         :: total charge               0.000000000000 e     ::
         :::::::::::::::::::::::::::::::::::::::::::::::::::::

           -------------------------------------------------
          |                Property Printout                |
           -------------------------------------------------

    * Orbital Energies and Occupations

         #    Occupation            Energy/Eh            Energy/eV
      -------------------------------------------------------------
         1        2.0000           -0.8702204             -23.6799
       ...           ...                  ...                  ...
       148        2.0000           -0.4359384             -11.8625
       149        2.0000           -0.4341859             -11.8148
       150        2.0000           -0.4319451             -11.7538
       151        2.0000           -0.4301824             -11.7059
       152        2.0000           -0.4283470             -11.6559
       153        2.0000           -0.4259617             -11.5910
       154        2.0000           -0.4201999             -11.4342
       155        2.0000           -0.4156160             -11.3095
       156        2.0000           -0.4150412             -11.2938
       157        2.0000           -0.4136931             -11.2572
       158        2.0000           -0.4007472             -10.9049
       159        2.0000           -0.3997546             -10.8779
       160        2.0000           -0.3746473             -10.1947 (HOMO)
       161        0.0000           -0.3475147              -9.4564 (LUMO)
       162                         -0.3420144              -9.3067
       163                         -0.3352807              -9.1235
       164                         -0.3268159              -8.8931
       165                         -0.2938168              -7.9952
       166                         -0.2828784              -7.6975
       167                         -0.2678442              -7.2884
       168                         -0.2590346              -7.0487
       169                         -0.2570829              -6.9956
       170                         -0.2545510              -6.9267
       171                         -0.2476926              -6.7401
       ...                                ...                  ...
       299                          1.1477700              31.2324
      -------------------------------------------------------------
                  HL-Gap            0.0271326 Eh            0.7383 eV
             Fermi-level           -0.3610824 Eh           -9.8256 eV

     #   Z          covCN         q      C6AA      α(0)
     1   6 C        2.918    -0.010    28.258     8.717
     2   6 C        3.008    -0.038    28.918     8.821
     3   6 C        2.869     0.240    22.992     7.860
     4   8 O        0.946    -0.387    21.377     6.201
     5   6 C        3.041    -0.036    28.845     8.809
     6   6 C        3.036     0.017    27.589     8.615
     7   6 C        2.912    -0.050    29.235     8.866
     8   6 C        2.783     0.173    24.261     8.068
     9   9 F        0.788    -0.198    11.218     3.956
    10   6 C        2.776     0.149    24.740     8.147
    11   9 F        0.787    -0.197    11.204     3.954
    12   6 C        2.773     0.176    24.211     8.059
    13   9 F        0.787    -0.191    11.139     3.942
    14   6 C        3.019     0.041    27.063     8.533
    15   6 C        2.947     0.015    27.666     8.627
    16   6 C        1.944     0.136    27.763     8.509
    17   7 N        0.911    -0.261    26.768     7.483
    18   6 C        1.945     0.135    27.797     8.514
    19   7 N        0.911    -0.264    26.849     7.494
    20   6 C        2.983     0.030    27.334     8.576
    21  16 S        2.347     0.058   138.688    19.821
    22   6 C        3.020     0.030    27.300     8.571
    23   6 C        2.999    -0.008    28.212     8.713
    24   6 C        2.867     0.149    24.762     8.157
    25   8 O        1.704    -0.268    18.437     5.797
    26   6 C        3.792     0.140    18.336     6.098
    27   6 C        3.803    -0.066    21.765     6.642
    28   6 C        3.751    -0.119    22.839     6.815
    29   6 C        3.803    -0.068    21.795     6.646
    30   6 C        3.751    -0.117    22.802     6.810
    31   6 C        3.125    -0.008    28.028     8.669
    32   6 C        3.088    -0.043    28.968     8.823
    33   6 C        2.917    -0.064    29.594     8.921
    34   6 C        2.998    -0.007    28.177     8.707
    35   6 C        3.019     0.028    27.356     8.580
    36   6 C        3.126    -0.004    27.934     8.654
    37   6 C        3.791     0.140    18.334     6.098
    38   8 O        1.704    -0.270    18.482     5.804
    39   6 C        2.866     0.149    24.769     8.158
    40   6 C        2.917    -0.064    29.604     8.922
    41   6 C        3.804    -0.070    21.845     6.654
    42   6 C        3.752    -0.114    22.735     6.800
    43   6 C        3.803    -0.068    21.792     6.646
    44   6 C        3.751    -0.120    22.860     6.819
    45   6 C        3.089    -0.042    28.943     8.818
    46   6 C        2.983     0.028    27.375     8.582
    47  16 S        2.345     0.060   138.633    19.817
    48   6 C        2.918    -0.010    28.269     8.719
    49   6 C        3.007    -0.037    28.900     8.818
    50   6 C        2.872     0.234    23.109     7.880
    51   8 O        0.941    -0.389    21.422     6.207
    52   6 C        3.048    -0.014    28.318     8.728
    53   6 C        2.912    -0.039    28.960     8.824
    54   6 C        2.783     0.169    24.341     8.081
    55   9 F        0.787    -0.216    11.401     3.988
    56   6 C        2.782     0.170    24.320     8.078
    57   9 F        0.787    -0.216    11.407     3.990
    58   6 C        2.914    -0.045    29.112     8.848
    59   6 C        3.036     0.012    27.705     8.633
    60   6 C        3.019     0.040    27.074     8.535
    61   6 C        2.947     0.011    27.764     8.642
    62   6 C        1.945     0.135    27.795     8.514
    63   7 N        0.911    -0.272    27.027     7.519
    64   6 C        1.943     0.135    27.787     8.513
    65   7 N        0.911    -0.268    26.939     7.507
    66   1 H        0.925     0.087     1.904     2.158
    67   1 H        0.926     0.118     1.628     1.996
    68   1 H        0.924     0.063     2.163     2.300
    69   1 H        0.924     0.036     2.508     2.476
    70   1 H        0.925     0.054     2.275     2.359
    71   1 H        0.925     0.042     2.419     2.432
    72   1 H        0.925     0.054     2.268     2.355
    73   1 H        0.925     0.061     2.188     2.313
    74   1 H        0.924     0.051     2.304     2.374
    75   1 H        0.925     0.049     2.328     2.386
    76   1 H        0.925     0.049     2.328     2.386
    77   1 H        0.925     0.053     2.288     2.365
    78   1 H        0.926     0.083     1.945     2.181
    79   1 H        0.926     0.084     1.937     2.176
    80   1 H        0.926     0.082     1.963     2.191
    81   1 H        0.925     0.061     2.190     2.314
    82   1 H        0.924     0.062     2.182     2.310
    83   1 H        0.925     0.046     2.367     2.406
    84   1 H        0.925     0.051     2.307     2.375
    85   1 H        0.925     0.040     2.455     2.450
    86   1 H        0.924     0.058     2.227     2.334
    87   1 H        0.924     0.038     2.476     2.461
    88   1 H        0.925     0.052     2.295     2.369
    89   1 H        0.925     0.055     2.254     2.348
    90   1 H        0.925     0.044     2.393     2.419
    91   1 H        0.926     0.081     1.964     2.192
    92   1 H        0.925     0.083     1.951     2.184
    93   1 H        0.926     0.119     1.625     1.994
    94   1 H        0.926     0.099     1.794     2.095

 Mol. C6AA /au·bohr⁶  :     141054.519376
 Mol. C8AA /au·bohr⁸  :    3713024.419134
 Mol. α(0) /au        :        588.016800


Wiberg/Mayer (AO) data.
largest (>0.10) Wiberg bond orders for each atom

 ---------------------------------------------------------------------------
     #   Z sym  total        # sym  WBO       # sym  WBO       # sym  WBO
 ---------------------------------------------------------------------------
     1   6 C    3.934 --     2 C    1.440    20 C    1.344    66 H    0.936
     2   6 C    3.956 --     1 C    1.440    14 C    1.163     3 C    1.082
     3   6 C    3.914 --     4 O    1.696     2 C    1.082     5 C    1.012
     4   8 O    2.086 --     3 C    1.696    21 S    0.110
     5   6 C    3.971 --    12 C    1.375     6 C    1.298     3 C    1.012
     6   6 C    3.981 --     7 C    1.411     5 C    1.298    14 C    1.074
     7   6 C    3.961 --     6 C    1.411     8 C    1.375    67 H    0.948
     8   6 C    3.881 --     7 C    1.375    10 C    1.348     9 F    0.982
     9   9 F    1.119 --     8 C    0.982
    10   6 C    3.873 --     8 C    1.348    12 C    1.323    11 F    0.980
    11   9 F    1.115 --    10 C    0.980
    12   6 C    3.882 --     5 C    1.375    10 C    1.323    13 F    0.989
    13   9 F    1.135 --    12 C    0.989
    14   6 C    3.962 --    15 C    1.469     2 C    1.163     6 C    1.074
    15   6 C    3.939 --    14 C    1.469    16 C    1.100    18 C    1.099
    16   6 C    3.943 --    17 N    2.747    15 C    1.100
    17   7 N    2.956 --    16 C    2.747
    18   6 C    3.941 --    19 N    2.755    15 C    1.099
    19   7 N    2.958 --    18 C    2.755
    20   6 C    3.935 --     1 C    1.344    32 C    1.319    21 S    1.105
    21  16 S    2.756 --    22 C    1.218    20 C    1.105     4 O    0.110
    22   6 C    3.934 --    31 C    1.332    21 S    1.218    23 C    1.172
    23   6 C    3.948 --    40 C    1.352    24 C    1.230    22 C    1.172
    24   6 C    3.916 --    33 C    1.398    23 C    1.230    25 O    1.102
    25   8 O    2.245 --    24 C    1.102    26 C    0.918
    26   6 C    3.922 --    31 C    0.982    29 C    0.974    27 C    0.952
                            25 O    0.918
    27   6 C    3.980 --    28 C    1.020    69 H    0.975    68 H    0.969
                            26 C    0.952
    28   6 C    3.991 --    27 C    1.020    72 H    0.984    71 H    0.984
                            70 H    0.983
    29   6 C    3.988 --    30 C    1.019    74 H    0.975    26 C    0.974
                            73 H    0.969
    30   6 C    3.992 --    29 C    1.019    77 H    0.985    75 H    0.985
                            76 H    0.985
    31   6 C    3.958 --    32 C    1.444    22 C    1.332    26 C    0.982
    32   6 C    3.961 --    31 C    1.444    20 C    1.319    78 H    0.956
    33   6 C    3.967 --    24 C    1.398    34 C    1.356    79 H    0.958
    34   6 C    3.947 --    33 C    1.356    39 C    1.231    35 C    1.169
    35   6 C    3.936 --    36 C    1.343    47 S    1.212    34 C    1.169
    36   6 C    3.960 --    45 C    1.430    35 C    1.343    37 C    0.985
    37   6 C    3.923 --    36 C    0.985    41 C    0.974    43 C    0.950
                            38 O    0.919
    38   8 O    2.242 --    39 C    1.101    37 C    0.919
    39   6 C    3.916 --    40 C    1.401    34 C    1.231    38 O    1.101
    40   6 C    3.968 --    39 C    1.401    23 C    1.352    80 H    0.959
    41   6 C    3.987 --    42 C    1.020    37 C    0.974    82 H    0.973
                            81 H    0.969
    42   6 C    3.994 --    41 C    1.020    83 H    0.986    84 H    0.985
                            85 H    0.985
    43   6 C    3.981 --    44 C    1.021    87 H    0.976    86 H    0.972
                            37 C    0.950
    44   6 C    3.991 --    43 C    1.021    88 H    0.984    90 H    0.983
                            89 H    0.983
    45   6 C    3.962 --    36 C    1.430    46 C    1.331    91 H    0.957
    46   6 C    3.935 --    45 C    1.331    48 C    1.329    47 S    1.109
    47  16 S    2.758 --    35 C    1.212    46 C    1.109    51 O    0.112
    48   6 C    3.939 --    49 C    1.459    46 C    1.329    92 H    0.937
    49   6 C    3.956 --    48 C    1.459    60 C    1.154    50 C    1.078
    50   6 C    3.914 --    51 O    1.696    49 C    1.078    52 C    1.016
    51   8 O    2.083 --    50 C    1.696    47 S    0.112
    52   6 C    3.975 --    53 C    1.420    59 C    1.301    50 C    1.016
    53   6 C    3.968 --    52 C    1.420    54 C    1.383    93 H    0.954
    54   6 C    3.868 --    53 C    1.383    56 C    1.340    55 F    0.968
    55   9 F    1.098 --    54 C    0.968
    56   6 C    3.874 --    58 C    1.388    54 C    1.340    57 F    0.968
    57   9 F    1.101 --    56 C    0.968
    58   6 C    3.967 --    59 C    1.404    56 C    1.388    94 H    0.953
    59   6 C    3.982 --    58 C    1.404    52 C    1.301    60 C    1.077
    60   6 C    3.964 --    61 C    1.474    49 C    1.154    59 C    1.077
    61   6 C    3.941 --    60 C    1.474    64 C    1.100    62 C    1.098
    62   6 C    3.941 --    63 N    2.754    61 C    1.098
    63   7 N    2.959 --    62 C    2.754
    64   6 C    3.942 --    65 N    2.745    61 C    1.100
    65   7 N    2.956 --    64 C    2.745
    66   1 H    0.991 --     1 C    0.936
    67   1 H    0.986 --     7 C    0.948
    68   1 H    0.994 --    27 C    0.969
    69   1 H    0.999 --    27 C    0.975
    70   1 H    0.996 --    28 C    0.983
    71   1 H    0.998 --    28 C    0.984
    72   1 H    0.997 --    28 C    0.984
    73   1 H    0.996 --    29 C    0.969
    74   1 H    0.997 --    29 C    0.975
    75   1 H    0.998 --    30 C    0.985
    76   1 H    0.997 --    30 C    0.985
    77   1 H    0.997 --    30 C    0.985
    78   1 H    0.993 --    32 C    0.956
    79   1 H    0.992 --    33 C    0.958
    80   1 H    0.992 --    40 C    0.959
    81   1 H    0.996 --    41 C    0.969
    82   1 H    0.995 --    41 C    0.973
    83   1 H    0.998 --    42 C    0.986
    84   1 H    0.997 --    42 C    0.985
    85   1 H    0.998 --    42 C    0.985
    86   1 H    0.995 --    43 C    0.972
    87   1 H    0.998 --    43 C    0.976
    88   1 H    0.997 --    44 C    0.984
    89   1 H    0.996 --    44 C    0.983
    90   1 H    0.998 --    44 C    0.983
    91   1 H    0.993 --    45 C    0.957
    92   1 H    0.992 --    48 C    0.937
    93   1 H    0.985 --    53 C    0.954
    94   1 H    0.990 --    58 C    0.953
 ---------------------------------------------------------------------------

Topologies differ in bond orders
Writing corrected topology to xtbtopo.mol

molecular dipole:
                 x           y           z       tot (Debye)
 q only:        0.885       0.836      -0.707
   full:        0.707       0.723      -0.525       2.897
molecular quadrupole (traceless):
                xx          xy          yy          xz          yz          zz
 q only:     -101.910      87.389      36.365    -107.385      45.287      65.546
  q+dip:      -79.832      92.636      11.879     -99.989      53.917      67.953
   full:      -85.331      91.282       5.488    -107.977      57.225      79.844


           -------------------------------------------------
          | TOTAL ENERGY             -179.882516043316 Eh   |
          | GRADIENT NORM               0.036575634852 Eh/α |
          | HOMO-LUMO GAP               0.738314586708 eV   |
           -------------------------------------------------

------------------------------------------------------------------------
 * finished run on 2022/02/01 at 22:40:12.425     
------------------------------------------------------------------------
 total:
 * wall-time:     0 d,  0 h,  0 min,  0.231 sec
 *  cpu-time:     0 d,  0 h,  0 min,  1.733 sec
 * ratio c/w:     7.511 speedup
 SCF:
 * wall-time:     0 d,  0 h,  0 min,  0.184 sec
 *  cpu-time:     0 d,  0 h,  0 min,  1.438 sec
 * ratio c/w:     7.836 speedup

