      -----------------------------------------------------------      
     |                   =====================                   |     
     |                           x T B                           |     
     |                   =====================                   |     
     |                         S. Grimme                         |     
     |          Mulliken Center for Theoretical Chemistry        |     
     |                    University of Bonn                     |     
      -----------------------------------------------------------      

   * xtb version 6.4.1 (unknown) compiled by 'oda6@login1.crc.pitt.edu' on 2021-06-25

   xtb is free software: you can redistribute it and/or modify it under
   the terms of the GNU Lesser General Public License as published by
   the Free Software Foundation, either version 3 of the License, or
   (at your option) any later version.
   
   xtb is distributed in the hope that it will be useful,
   but WITHOUT ANY WARRANTY; without even the implied warranty of
   MERCHANTABILITY or FITNESS FOR A PARTICULAR PURPOSE.  See the
   GNU Lesser General Public License for more details.
   
   Cite this work as:
   * C. Bannwarth, E. Caldeweyher, S. Ehlert, A. Hansen, P. Pracht,
     J. Seibert, S. Spicher, S. Grimme, WIREs Comput. Mol. Sci., 2020, 11,
     e01493. DOI: 10.1002/wcms.1493
   
   for GFN2-xTB:
   * C. Bannwarth, S. Ehlert and S. Grimme., J. Chem. Theory Comput., 2019,
     15, 1652-1671. DOI: 10.1021/acs.jctc.8b01176
   for GFN1-xTB:
   * S. Grimme, C. Bannwarth, P. Shushkov, J. Chem. Theory Comput., 2017,
     13, 1989-2009. DOI: 10.1021/acs.jctc.7b00118
   for GFN0-xTB:
   * P. Pracht, E. Caldeweyher, S. Ehlert, S. Grimme, ChemRxiv, 2019, preprint.
     DOI: 10.26434/chemrxiv.8326202.v1
   for GFN-FF:
   * S. Spicher and S. Grimme, Angew. Chem. Int. Ed., 2020, 59, 15665-15673.
     DOI: 10.1002/anie.202004239
   
   for DFT-D4:
   * E. Caldeweyher, C. Bannwarth and S. Grimme, J. Chem. Phys., 2017,
     147, 034112. DOI: 10.1063/1.4993215
   * E. Caldeweyher, S. Ehlert, A. Hansen, H. Neugebauer, S. Spicher,
     C. Bannwarth and S. Grimme, J. Chem. Phys., 2019, 150, 154122.
     DOI: 10.1063/1.5090222
   * E. Caldeweyher, J.-M. Mewes, S. Ehlert and S. Grimme, Phys. Chem. Chem. Phys.
     2020, 22, 8499-8512. DOI: 10.1039/D0CP00502A
   
   for sTDA-xTB:
   * S. Grimme and C. Bannwarth, J. Chem. Phys., 2016, 145, 054103.
     DOI: 10.1063/1.4959605
   
   in the mass-spec context:
   * V. Asgeirsson, C. Bauer and S. Grimme, Chem. Sci., 2017, 8, 4879.
     DOI: 10.1039/c7sc00601b
   * J. Koopman and S. Grimme, ACS Omega 2019, 4, 12, 15120-15133.
     DOI: 10.1021/acsomega.9b02011
   
   for metadynamics refer to:
   * S. Grimme, J. Chem. Theory Comput., 2019, 155, 2847-2862
     DOI: 10.1021/acs.jctc.9b00143
   
   for SPH calculations refer to:
   * S. Spicher and S. Grimme, J. Chem. Theory Comput., 2021, 17, 1701-1714
     DOI: 10.1021/acs.jctc.0c01306
   
   with help from (in alphabetical order)
   P. Atkinson, C. Bannwarth, F. Bohle, G. Brandenburg, E. Caldeweyher
   M. Checinski, S. Dohm, S. Ehlert, S. Ehrlich, I. Gerasimov, J. Koopman
   C. Lavigne, S. Lehtola, F. März, M. Müller, F. Musil, H. Neugebauer
   J. Pisarek, C. Plett, P. Pracht, J. Seibert, P. Shushkov, S. Spicher
   M. Stahn, M. Steiner, T. Strunk, J. Stückrath, T. Rose, and J. Unsleber
   
 * started run on 2022/02/01 at 20:44:26.535     

           -------------------------------------------------
          |                Calculation Setup                |
           -------------------------------------------------

          program call               : /ihome/ghutchison/oda6/xtb/xtb-641/bin/xtb ../../GFN2_output/64_51_38.mol --sp --alpb water
          hostname                   : smp-n66
          coordinate file            : ../../GFN2_output/64_51_38.mol
          omp threads                :                     8
          number of atoms            :                   101
          number of electrons        :                   344
          charge                     :                     0
          spin                       :                   0.0
          first test random number   :      0.85267962816999

   ID    Z sym.   atoms
    1    6 C      1-3, 5-7, 9, 11-15, 17, 19-23, 25-28, 32, 33, 35-39, 41,
                  42, 44, 45, 47, 48, 50-56, 58, 59, 61-68, 70
    2    8 O      4, 57, 60
    3   17 Cl     8
    4    9 F      10
    5    7 N      16, 18, 29, 31, 43, 46, 69, 71
    6   16 S      24, 30, 34, 40, 49
    7    1 H      72-101

           -------------------------------------------------
          |                 G F N 2 - x T B                 |
           -------------------------------------------------

        Reference                      10.1021/acs.jctc.8b01176
      * Hamiltonian:
        H0-scaling (s, p, d)           1.850000    2.230000    2.230000
        zeta-weighting                 0.500000
      * Dispersion:
        s8                             2.700000
        a1                             0.520000
        a2                             5.000000
        s9                             5.000000
      * Repulsion:
        kExp                           1.500000    1.000000
        rExp                           1.000000
      * Coulomb:
        alpha                          2.000000
        third order                    shell-resolved
        anisotropic                    true
        a3                             3.000000
        a5                             4.000000
        cn-shift                       1.200000
        cn-exp                         4.000000
        max-rad                        5.000000

      * Solvation model:               ALPB
        Solvent                        water
        Parameter file                 internal GFN2-xTB/ALPB
        Dielectric constant                8.0200E+01
        Reference state                gsolv [1 M gas/solution]
        Free energy shift                  1.0808E-03 Eh       6.7819E-01 kcal/mol
        Temperature                        2.9815E+02 K
        Density                            1.0000E+00 kg/L
        Solvent mass                       1.8000E+01 g/mol
        Interaction kernel             P16
        Born radius scaling (c1)           1.4744E+00
        Born radii integrator          GBOBC
        Born offset                        0.0000E+00 a0       0.0000E+00 AA
        H-bond correction              true
        Ion screening                  false
        Surface tension                    1.0000E-05 Eh       1.5569E+01 dyn/cm
        Grid points                               230 per atom

          ...................................................
          :                      SETUP                      :
          :.................................................:
          :  # basis functions                 350          :
          :  # atomic orbitals                 344          :
          :  # shells                          178          :
          :  # electrons                       344          :
          :  max. iterations                   250          :
          :  Hamiltonian                  GFN2-xTB          :
          :  restarted?                      false          :
          :  GBSA solvation                   true          :
          :  PC potential                    false          :
          :  electronic temp.          300.0000000     K    :
          :  accuracy                    1.0000000          :
          :  -> integral cutoff          0.2500000E+02      :
          :  -> integral neglect         0.1000000E-07      :
          :  -> SCF convergence          0.1000000E-05 Eh   :
          :  -> wf. convergence          0.1000000E-03 e    :
          :  Broyden damping             0.4000000          :
          ...................................................

 iter      E             dE          RMSdq      gap      omega  full diag
   1   -192.4163414 -0.192416E+03  0.494E+00    1.10       0.0  T
   2   -192.6206772 -0.204336E+00  0.297E+00    0.93       1.0  T
   3   -192.5788258  0.418513E-01  0.156E+00    0.95       1.0  T
   4   -192.6899310 -0.111105E+00  0.518E-01    0.98       1.0  T
   5   -192.7052026 -0.152716E-01  0.174E-01    0.90       1.0  T
   6   -192.7062988 -0.109617E-02  0.926E-02    0.94       1.0  T
   7   -192.7065448 -0.245976E-03  0.419E-02    0.94       1.0  T
   8   -192.7065804 -0.356027E-04  0.271E-02    0.94       1.0  T
   9   -192.7065980 -0.176028E-04  0.199E-02    0.94       1.0  T
  10   -192.7066104 -0.124624E-04  0.133E-02    0.94       1.0  T
  11   -192.7066167 -0.622423E-05  0.878E-03    0.94       1.1  T
  12   -192.7066202 -0.348576E-05  0.452E-03    0.94       2.2  T
  13   -192.7066210 -0.858945E-06  0.250E-03    0.94       4.0  T
  14   -192.7066212 -0.151412E-06  0.143E-03    0.94       7.0  T
  15   -192.7066212 -0.561463E-07  0.731E-04    0.94      13.6  T
  16   -192.7066212 -0.164461E-07  0.372E-04    0.94      26.7  T

   *** convergence criteria satisfied after 16 iterations ***

         #    Occupation            Energy/Eh            Energy/eV
      -------------------------------------------------------------
         1        2.0000           -1.0813240             -29.4243
       ...           ...                  ...                  ...
       166        2.0000           -0.4072387             -11.0815
       167        2.0000           -0.4042648             -11.0006
       168        2.0000           -0.4026482             -10.9566
       169        2.0000           -0.3918642             -10.6632
       170        2.0000           -0.3850044             -10.4765
       171        2.0000           -0.3774581             -10.2712
       172        2.0000           -0.3722038             -10.1282 (HOMO)
       173                         -0.3375139              -9.1842 (LUMO)
       174                         -0.3323506              -9.0437
       175                         -0.3250593              -8.8453
       176                         -0.3168705              -8.6225
       177                         -0.3025794              -8.2336
       ...                                ...                  ...
       344                          1.1518918              31.3446
      -------------------------------------------------------------
                  HL-Gap            0.0346899 Eh            0.9440 eV
             Fermi-level           -0.3548591 Eh           -9.6562 eV

 SCC (total)                   0 d,  0 h,  0 min,  0.250 sec
 SCC setup                      ...        0 min,  0.002 sec (  0.811%)
 Dispersion                     ...        0 min,  0.003 sec (  1.395%)
 classical contributions        ...        0 min,  0.000 sec (  0.042%)
 integral evaluation            ...        0 min,  0.012 sec (  4.816%)
 iterations                     ...        0 min,  0.202 sec ( 80.501%)
 molecular gradient             ...        0 min,  0.030 sec ( 12.094%)
 printout                       ...        0 min,  0.001 sec (  0.311%)

         :::::::::::::::::::::::::::::::::::::::::::::::::::::
         ::                     SUMMARY                     ::
         :::::::::::::::::::::::::::::::::::::::::::::::::::::
         :: total energy            -189.873243745404 Eh    ::
         :: total w/o Gsasa/hb      -189.853676611646 Eh    ::
         :: gradient norm              0.033784487838 Eh/a0 ::
         :: HOMO-LUMO gap              0.943960941655 eV    ::
         ::.................................................::
         :: SCC energy              -192.706621233394 Eh    ::
         :: -> isotropic ES            0.176850105268 Eh    ::
         :: -> anisotropic ES          0.002322755288 Eh    ::
         :: -> anisotropic XC          0.113585764504 Eh    ::
         :: -> dispersion             -0.166015043324 Eh    ::
         :: -> Gsolv                  -0.056234569734 Eh    ::
         ::    -> Gelec               -0.036667435975 Eh    ::
         ::    -> Gsasa               -0.015123305399 Eh    ::
         ::    -> Ghb                 -0.005524588057 Eh    ::
         ::    -> Gshift               0.001080759698 Eh    ::
         :: repulsion energy           2.834385102055 Eh    ::
         :: add. restraining           0.000000000000 Eh    ::
         :: total charge              -0.000000000010 e     ::
         :::::::::::::::::::::::::::::::::::::::::::::::::::::

           -------------------------------------------------
          |                Property Printout                |
           -------------------------------------------------

    * Orbital Energies and Occupations

         #    Occupation            Energy/Eh            Energy/eV
      -------------------------------------------------------------
         1        2.0000           -1.0813240             -29.4243
       ...           ...                  ...                  ...
       160        2.0000           -0.4225780             -11.4989
       161        2.0000           -0.4212597             -11.4631
       162        2.0000           -0.4193187             -11.4102
       163        2.0000           -0.4176737             -11.3655
       164        2.0000           -0.4161436             -11.3238
       165        2.0000           -0.4136187             -11.2551
       166        2.0000           -0.4072387             -11.0815
       167        2.0000           -0.4042648             -11.0006
       168        2.0000           -0.4026482             -10.9566
       169        2.0000           -0.3918642             -10.6632
       170        2.0000           -0.3850044             -10.4765
       171        2.0000           -0.3774581             -10.2712
       172        2.0000           -0.3722038             -10.1282 (HOMO)
       173                         -0.3375139              -9.1842 (LUMO)
       174                         -0.3323506              -9.0437
       175                         -0.3250593              -8.8453
       176                         -0.3168705              -8.6225
       177                         -0.3025794              -8.2336
       178                         -0.2794801              -7.6050
       179                         -0.2694375              -7.3318
       180                         -0.2541743              -6.9164
       181                         -0.2539295              -6.9098
       182                         -0.2502861              -6.8106
       183                         -0.2432493              -6.6192
       ...                                ...                  ...
       344                          1.1518918              31.3446
      -------------------------------------------------------------
                  HL-Gap            0.0346899 Eh            0.9440 eV
             Fermi-level           -0.3548591 Eh           -9.6562 eV

     #   Z          covCN         q      C6AA      α(0)
     1   6 C        2.920    -0.011    28.288     8.722
     2   6 C        3.008    -0.041    29.005     8.834
     3   6 C        2.873     0.233    23.136     7.885
     4   8 O        0.959    -0.390    21.429     6.209
     5   6 C        3.046    -0.014    28.317     8.728
     6   6 C        2.947    -0.030    28.737     8.792
     7   6 C        2.885     0.092    25.958     8.353
     8  17 Cl       0.961    -0.137   103.436    15.559
     9   6 C        2.818     0.176    24.208     8.062
    10   9 F        0.788    -0.220    11.443     3.996
    11   6 C        2.913    -0.044    29.098     8.845
    12   6 C        3.038     0.011    27.728     8.637
    13   6 C        3.020     0.038    27.115     8.542
    14   6 C        2.947     0.006    27.891     8.662
    15   6 C        1.946     0.133    27.820     8.518
    16   7 N        0.911    -0.280    27.219     7.546
    17   6 C        1.944     0.133    27.841     8.521
    18   7 N        0.911    -0.274    27.077     7.526
    19   6 C        2.992     0.019    27.584     8.615
    20   6 C        3.092     0.013    27.612     8.613
    21   6 C        3.804    -0.062    21.686     6.630
    22   6 C        3.754    -0.110    22.655     6.787
    23   6 C        3.179     0.014    27.284     8.528
    24  16 S        2.166    -0.036   142.563    20.096
    25   6 C        3.095     0.010    27.676     8.622
    26   6 C        3.083    -0.037    28.834     8.803
    27   6 C        3.340     0.069    24.041     7.754
    28   6 C        3.340     0.069    24.030     7.752
    29   7 N        1.854    -0.299    28.612     7.928
    30  16 S        2.686     0.307   129.174    19.129
    31   7 N        1.854    -0.298    28.566     7.922
    32   6 C        3.085    -0.038    28.855     8.806
    33   6 C        3.102     0.004    27.800     8.640
    34  16 S        2.181    -0.035   142.511    20.092
    35   6 C        3.200     0.011    27.203     8.499
    36   6 C        3.093     0.015    27.561     8.605
    37   6 C        3.804    -0.050    21.477     6.598
    38   6 C        3.753    -0.111    22.676     6.790
    39   6 C        2.999     0.020    27.553     8.610
    40  16 S        2.283    -0.019   141.839    20.045
    41   6 C        3.118     0.013    27.550     8.597
    42   6 C        3.249     0.031    26.296     8.303
    43   7 N        2.800    -0.010    21.456     6.880
    44   6 C        3.076     0.033    27.186     8.549
    45   6 C        3.078     0.037    27.093     8.534
    46   7 N        2.794    -0.018    21.595     6.902
    47   6 C        3.259     0.033    26.125     8.260
    48   6 C        3.107     0.007    27.721     8.626
    49  16 S        2.313     0.018   140.319    19.937
    50   6 C        3.747    -0.020    20.992     6.535
    51   6 C        3.752    -0.125    22.950     6.832
    52   6 C        3.742    -0.013    20.891     6.521
    53   6 C        3.752    -0.133    23.112     6.856
    54   6 C        2.952    -0.007    28.200     8.710
    55   6 C        3.007    -0.037    28.901     8.819
    56   6 C        2.871     0.234    23.111     7.881
    57   8 O        0.856    -0.432    22.324     6.335
    58   6 C        3.019    -0.058    29.406     8.895
    59   6 C        2.851     0.165    24.439     8.102
    60   8 O        1.707    -0.257    18.256     5.769
    61   6 C        3.639     0.017    20.649     6.536
    62   6 C        2.922    -0.051    29.260     8.871
    63   6 C        2.918    -0.022    28.564     8.764
    64   6 C        2.913    -0.035    28.880     8.812
    65   6 C        3.043     0.007    27.827     8.652
    66   6 C        3.013     0.035    27.189     8.553
    67   6 C        2.947    -0.000    28.029     8.683
    68   6 C        1.939     0.133    27.828     8.519
    69   7 N        0.911    -0.285    27.341     7.562
    70   6 C        1.940     0.130    27.904     8.531
    71   7 N        0.911    -0.285    27.357     7.565
    72   1 H        0.925     0.081     1.965     2.192
    73   1 H        0.926     0.116     1.646     2.006
    74   1 H        0.926     0.095     1.828     2.114
    75   1 H        0.924     0.060     2.194     2.316
    76   1 H        0.924     0.069     2.099     2.266
    77   1 H        0.925     0.041     2.442     2.444
    78   1 H        0.925     0.050     2.314     2.379
    79   1 H        0.925     0.061     2.190     2.314
    80   1 H        0.924     0.037     2.495     2.470
    81   1 H        0.924     0.063     2.161     2.299
    82   1 H        0.925     0.055     2.260     2.351
    83   1 H        0.925     0.054     2.274     2.358
    84   1 H        0.925     0.049     2.332     2.388
    85   1 H        0.925     0.096     1.821     2.110
    86   1 H        0.924     0.084     1.938     2.177
    87   1 H        0.925     0.048     2.340     2.392
    88   1 H        0.925     0.051     2.306     2.375
    89   1 H        0.925     0.072     2.067     2.248
    90   1 H        0.924     0.084     1.939     2.178
    91   1 H        0.924     0.077     2.016     2.220
    92   1 H        0.925     0.075     2.027     2.226
    93   1 H        0.925     0.064     2.153     2.294
    94   1 H        0.925     0.062     2.180     2.309
    95   1 H        0.925     0.068     2.107     2.270
    96   1 H        0.925     0.087     1.905     2.158
    97   1 H        0.924     0.076     2.019     2.222
    98   1 H        0.924     0.053     2.281     2.362
    99   1 H        0.926     0.086     1.916     2.165
   100   1 H        0.926     0.081     1.971     2.195
   101   1 H        0.926     0.060     2.199     2.319

 Mol. C6AA /au·bohr⁶  :     195178.285314
 Mol. C8AA /au·bohr⁸  :    5550015.696779
 Mol. α(0) /au        :        700.806151


Wiberg/Mayer (AO) data.
largest (>0.10) Wiberg bond orders for each atom

 ---------------------------------------------------------------------------
     #   Z sym  total        # sym  WBO       # sym  WBO       # sym  WBO
 ---------------------------------------------------------------------------
     1   6 C    3.937 --     2 C    1.437    19 C    1.358    72 H    0.930
     2   6 C    3.952 --     1 C    1.437    13 C    1.161     3 C    1.087
     3   6 C    3.913 --     4 O    1.685     2 C    1.087     5 C    1.015
     4   8 O    2.084 --     3 C    1.685    49 S    0.123
     5   6 C    3.975 --     6 C    1.427    12 C    1.295     3 C    1.015
     6   6 C    3.967 --     5 C    1.427     7 C    1.380    73 H    0.955
     7   6 C    3.906 --     6 C    1.380     9 C    1.348     8 Cl   1.001
     8  17 Cl   1.144 --     7 C    1.001
     9   6 C    3.873 --    11 C    1.389     7 C    1.348    10 F    0.966
    10   9 F    1.097 --     9 C    0.966
    11   6 C    3.968 --    12 C    1.402     9 C    1.389    74 H    0.953
    12   6 C    3.982 --    11 C    1.402     5 C    1.295    13 C    1.080
    13   6 C    3.963 --    14 C    1.461     2 C    1.161    12 C    1.080
    14   6 C    3.939 --    13 C    1.461    17 C    1.104    15 C    1.101
    15   6 C    3.939 --    16 N    2.749    14 C    1.101
    16   7 N    2.954 --    15 C    2.749
    17   6 C    3.942 --    18 N    2.738    14 C    1.104
    18   7 N    2.954 --    17 C    2.738
    19   6 C    3.932 --     1 C    1.358    20 C    1.302    49 S    1.070
    20   6 C    3.953 --    23 C    1.383    19 C    1.302    21 C    1.020
    21   6 C    3.990 --    20 C    1.020    22 C    0.988    76 H    0.966
                            75 H    0.962
    22   6 C    3.987 --    21 C    0.988    78 H    0.987    77 H    0.987
                            79 H    0.982
    23   6 C    3.927 --    20 C    1.383    48 C    1.272    24 S    1.075
    24  16 S    2.503 --    25 C    1.114    23 C    1.075
    25   6 C    3.913 --    47 C    1.293    26 C    1.283    24 S    1.114
    26   6 C    3.953 --    25 C    1.283    45 C    1.259    27 C    1.172
    27   6 C    3.970 --    31 N    1.424    26 C    1.172    28 C    1.164
                            30 S    0.106
    28   6 C    3.970 --    29 N    1.425    32 C    1.172    27 C    1.164
                            30 S    0.106
    29   7 N    3.059 --    28 C    1.425    30 S    1.380    31 N    0.144
    30  16 S    3.095 --    31 N    1.381    29 N    1.380    27 C    0.106
                            28 C    0.106
    31   7 N    3.059 --    27 C    1.424    30 S    1.381    29 N    0.144
    32   6 C    3.952 --    33 C    1.280    44 C    1.261    28 C    1.172
    33   6 C    3.918 --    42 C    1.297    32 C    1.280    34 S    1.111
    34  16 S    2.520 --    33 C    1.111    35 C    1.089
    35   6 C    3.926 --    41 C    1.324    36 C    1.304    34 S    1.089
    36   6 C    3.957 --    39 C    1.413    35 C    1.304    37 C    1.015
    37   6 C    3.993 --    36 C    1.015    38 C    0.999    80 H    0.973
                            81 H    0.955
    38   6 C    3.988 --    37 C    0.999    84 H    0.984    82 H    0.980
                            83 H    0.979
    39   6 C    3.927 --    36 C    1.413    54 C    1.236    40 S    1.068
    40  16 S    2.551 --    41 C    1.135    39 C    1.068
    41   6 C    3.933 --    35 C    1.324    42 C    1.249    40 S    1.135
    42   6 C    3.939 --    33 C    1.297    41 C    1.249    43 N    1.169
    43   7 N    3.577 --    44 C    1.188    42 C    1.169    52 C    0.972
    44   6 C    3.933 --    32 C    1.261    45 C    1.221    43 N    1.188
    45   6 C    3.929 --    26 C    1.259    44 C    1.221    46 N    1.187
    46   7 N    3.557 --    45 C    1.187    47 C    1.155    50 C    0.967
    47   6 C    3.941 --    25 C    1.293    48 C    1.267    46 N    1.155
    48   6 C    3.941 --    23 C    1.272    47 C    1.267    49 S    1.164
    49  16 S    2.714 --    48 C    1.164    19 C    1.070     4 O    0.123
    50   6 C    3.944 --    51 C    1.004    46 N    0.967    86 H    0.962
                            85 H    0.953
    51   6 C    3.986 --    50 C    1.004    88 H    0.986    87 H    0.985
                            89 H    0.980
    52   6 C    3.948 --    53 C    1.005    43 N    0.972    90 H    0.961
                            91 H    0.961
    53   6 C    3.981 --    52 C    1.005    92 H    0.980    94 H    0.978
                            93 H    0.978
    54   6 C    3.943 --    55 C    1.540    39 C    1.236    95 H    0.943
    55   6 C    3.959 --    54 C    1.540    66 C    1.151    56 C    1.021
    56   6 C    3.927 --    57 O    1.704    58 C    1.054    55 C    1.021
    57   8 O    2.021 --    56 C    1.704
    58   6 C    3.969 --    59 C    1.338    65 C    1.255    56 C    1.054
    59   6 C    3.933 --    58 C    1.338    62 C    1.293    60 O    1.121
    60   8 O    2.284 --    59 C    1.121    61 C    0.959
    61   6 C    3.916 --    98 H    0.977    96 H    0.976    97 H    0.964
                            60 O    0.959
    62   6 C    3.964 --    63 C    1.500    59 C    1.293    99 H    0.962
    63   6 C    3.977 --    62 C    1.500    64 C    1.374   100 H    0.965
    64   6 C    3.975 --    65 C    1.435    63 C    1.374   101 H    0.960
    65   6 C    3.981 --    64 C    1.435    58 C    1.255    66 C    1.090
    66   6 C    3.969 --    67 C    1.461    55 C    1.151    65 C    1.090
    67   6 C    3.946 --    66 C    1.461    68 C    1.104    70 C    1.103
    68   6 C    3.940 --    69 N    2.746    67 C    1.104
    69   7 N    2.954 --    68 C    2.746
    70   6 C    3.941 --    71 N    2.744    67 C    1.103
    71   7 N    2.956 --    70 C    2.744
    72   1 H    0.992 --     1 C    0.930
    73   1 H    0.986 --     6 C    0.955
    74   1 H    0.990 --    11 C    0.953
    75   1 H    0.995 --    21 C    0.962
    76   1 H    0.994 --    21 C    0.966
    77   1 H    0.998 --    22 C    0.987
    78   1 H    0.997 --    22 C    0.987
    79   1 H    0.994 --    22 C    0.982
    80   1 H    0.998 --    37 C    0.973
    81   1 H    0.994 --    37 C    0.955
    82   1 H    0.997 --    38 C    0.980
    83   1 H    0.997 --    38 C    0.979
    84   1 H    0.996 --    38 C    0.984
    85   1 H    0.990 --    50 C    0.953
    86   1 H    0.991 --    50 C    0.962
    87   1 H    0.997 --    51 C    0.985
    88   1 H    0.997 --    51 C    0.986
    89   1 H    0.994 --    51 C    0.980
    90   1 H    0.992 --    52 C    0.961
    91   1 H    0.991 --    52 C    0.961
    92   1 H    0.993 --    53 C    0.980
    93   1 H    0.996 --    53 C    0.978
    94   1 H    0.996 --    53 C    0.978
    95   1 H    0.992 --    54 C    0.943
    96   1 H    0.992 --    61 C    0.976
    97   1 H    0.993 --    61 C    0.964
    98   1 H    0.997 --    61 C    0.977
    99   1 H    0.992 --    62 C    0.962
   100   1 H    0.992 --    63 C    0.965
   101   1 H    0.996 --    64 C    0.960
 ---------------------------------------------------------------------------

Topologies differ in bond orders
Writing corrected topology to xtbtopo.mol

molecular dipole:
                 x           y           z       tot (Debye)
 q only:       -2.506      -1.380      -0.772
   full:       -2.300      -0.843      -1.154       6.882
molecular quadrupole (traceless):
                xx          xy          yy          xz          yz          zz
 q only:     -130.195      54.742      30.208     -32.034      29.208      99.986
  q+dip:     -120.648      81.126      20.017     -33.993      37.770     100.632
   full:     -124.264      82.238      17.116     -40.263      40.976     107.148


           -------------------------------------------------
          | TOTAL ENERGY             -189.873243745404 Eh   |
          | GRADIENT NORM               0.033784487838 Eh/α |
          | HOMO-LUMO GAP               0.943960941655 eV   |
           -------------------------------------------------

------------------------------------------------------------------------
 * finished run on 2022/02/01 at 20:44:26.848     
------------------------------------------------------------------------
 total:
 * wall-time:     0 d,  0 h,  0 min,  0.313 sec
 *  cpu-time:     0 d,  0 h,  0 min,  2.411 sec
 * ratio c/w:     7.703 speedup
 SCF:
 * wall-time:     0 d,  0 h,  0 min,  0.252 sec
 *  cpu-time:     0 d,  0 h,  0 min,  2.003 sec
 * ratio c/w:     7.943 speedup

