      -----------------------------------------------------------      
     |                   =====================                   |     
     |                           x T B                           |     
     |                   =====================                   |     
     |                         S. Grimme                         |     
     |          Mulliken Center for Theoretical Chemistry        |     
     |                    University of Bonn                     |     
      -----------------------------------------------------------      

   * xtb version 6.4.1 (unknown) compiled by 'oda6@login1.crc.pitt.edu' on 2021-06-25

   xtb is free software: you can redistribute it and/or modify it under
   the terms of the GNU Lesser General Public License as published by
   the Free Software Foundation, either version 3 of the License, or
   (at your option) any later version.
   
   xtb is distributed in the hope that it will be useful,
   but WITHOUT ANY WARRANTY; without even the implied warranty of
   MERCHANTABILITY or FITNESS FOR A PARTICULAR PURPOSE.  See the
   GNU Lesser General Public License for more details.
   
   Cite this work as:
   * C. Bannwarth, E. Caldeweyher, S. Ehlert, A. Hansen, P. Pracht,
     J. Seibert, S. Spicher, S. Grimme, WIREs Comput. Mol. Sci., 2020, 11,
     e01493. DOI: 10.1002/wcms.1493
   
   for GFN2-xTB:
   * C. Bannwarth, S. Ehlert and S. Grimme., J. Chem. Theory Comput., 2019,
     15, 1652-1671. DOI: 10.1021/acs.jctc.8b01176
   for GFN1-xTB:
   * S. Grimme, C. Bannwarth, P. Shushkov, J. Chem. Theory Comput., 2017,
     13, 1989-2009. DOI: 10.1021/acs.jctc.7b00118
   for GFN0-xTB:
   * P. Pracht, E. Caldeweyher, S. Ehlert, S. Grimme, ChemRxiv, 2019, preprint.
     DOI: 10.26434/chemrxiv.8326202.v1
   for GFN-FF:
   * S. Spicher and S. Grimme, Angew. Chem. Int. Ed., 2020, 59, 15665-15673.
     DOI: 10.1002/anie.202004239
   
   for DFT-D4:
   * E. Caldeweyher, C. Bannwarth and S. Grimme, J. Chem. Phys., 2017,
     147, 034112. DOI: 10.1063/1.4993215
   * E. Caldeweyher, S. Ehlert, A. Hansen, H. Neugebauer, S. Spicher,
     C. Bannwarth and S. Grimme, J. Chem. Phys., 2019, 150, 154122.
     DOI: 10.1063/1.5090222
   * E. Caldeweyher, J.-M. Mewes, S. Ehlert and S. Grimme, Phys. Chem. Chem. Phys.
     2020, 22, 8499-8512. DOI: 10.1039/D0CP00502A
   
   for sTDA-xTB:
   * S. Grimme and C. Bannwarth, J. Chem. Phys., 2016, 145, 054103.
     DOI: 10.1063/1.4959605
   
   in the mass-spec context:
   * V. Asgeirsson, C. Bauer and S. Grimme, Chem. Sci., 2017, 8, 4879.
     DOI: 10.1039/c7sc00601b
   * J. Koopman and S. Grimme, ACS Omega 2019, 4, 12, 15120-15133.
     DOI: 10.1021/acsomega.9b02011
   
   for metadynamics refer to:
   * S. Grimme, J. Chem. Theory Comput., 2019, 155, 2847-2862
     DOI: 10.1021/acs.jctc.9b00143
   
   for SPH calculations refer to:
   * S. Spicher and S. Grimme, J. Chem. Theory Comput., 2021, 17, 1701-1714
     DOI: 10.1021/acs.jctc.0c01306
   
   with help from (in alphabetical order)
   P. Atkinson, C. Bannwarth, F. Bohle, G. Brandenburg, E. Caldeweyher
   M. Checinski, S. Dohm, S. Ehlert, S. Ehrlich, I. Gerasimov, J. Koopman
   C. Lavigne, S. Lehtola, F. März, M. Müller, F. Musil, H. Neugebauer
   J. Pisarek, C. Plett, P. Pracht, J. Seibert, P. Shushkov, S. Spicher
   M. Stahn, M. Steiner, T. Strunk, J. Stückrath, T. Rose, and J. Unsleber
   
 * started run on 2022/02/01 at 23:57:17.587     

           -------------------------------------------------
          |                Calculation Setup                |
           -------------------------------------------------

          program call               : /ihome/ghutchison/oda6/xtb/xtb-641/bin/xtb ../../GFN2_output/64_51_17.mol --sp --alpb water
          hostname                   : smp-n66
          coordinate file            : ../../GFN2_output/64_51_17.mol
          omp threads                :                     8
          number of atoms            :                    97
          number of electrons        :                   332
          charge                     :                     0
          spin                       :                   0.0
          first test random number   :      0.33439706518489

   ID    Z sym.   atoms
    1    6 C      1-3, 5-7, 9, 11-15, 17, 19-23, 25-28, 32, 33, 35-39, 41,
                  42, 44, 45, 47, 48, 50-56, 58-66, 68
    2    8 O      4, 57
    3   17 Cl     8
    4    9 F      10
    5    7 N      16, 18, 29, 31, 43, 46, 67, 69
    6   16 S      24, 30, 34, 40, 49
    7    1 H      70-97

           -------------------------------------------------
          |                 G F N 2 - x T B                 |
           -------------------------------------------------

        Reference                      10.1021/acs.jctc.8b01176
      * Hamiltonian:
        H0-scaling (s, p, d)           1.850000    2.230000    2.230000
        zeta-weighting                 0.500000
      * Dispersion:
        s8                             2.700000
        a1                             0.520000
        a2                             5.000000
        s9                             5.000000
      * Repulsion:
        kExp                           1.500000    1.000000
        rExp                           1.000000
      * Coulomb:
        alpha                          2.000000
        third order                    shell-resolved
        anisotropic                    true
        a3                             3.000000
        a5                             4.000000
        cn-shift                       1.200000
        cn-exp                         4.000000
        max-rad                        5.000000

      * Solvation model:               ALPB
        Solvent                        water
        Parameter file                 internal GFN2-xTB/ALPB
        Dielectric constant                8.0200E+01
        Reference state                gsolv [1 M gas/solution]
        Free energy shift                  1.0808E-03 Eh       6.7819E-01 kcal/mol
        Temperature                        2.9815E+02 K
        Density                            1.0000E+00 kg/L
        Solvent mass                       1.8000E+01 g/mol
        Interaction kernel             P16
        Born radius scaling (c1)           1.4744E+00
        Born radii integrator          GBOBC
        Born offset                        0.0000E+00 a0       0.0000E+00 AA
        H-bond correction              true
        Ion screening                  false
        Surface tension                    1.0000E-05 Eh       1.5569E+01 dyn/cm
        Grid points                               230 per atom

          ...................................................
          :                      SETUP                      :
          :.................................................:
          :  # basis functions                 340          :
          :  # atomic orbitals                 334          :
          :  # shells                          172          :
          :  # electrons                       332          :
          :  max. iterations                   250          :
          :  Hamiltonian                  GFN2-xTB          :
          :  restarted?                      false          :
          :  GBSA solvation                   true          :
          :  PC potential                    false          :
          :  electronic temp.          300.0000000     K    :
          :  accuracy                    1.0000000          :
          :  -> integral cutoff          0.2500000E+02      :
          :  -> integral neglect         0.1000000E-07      :
          :  -> SCF convergence          0.1000000E-05 Eh   :
          :  -> wf. convergence          0.1000000E-03 e    :
          :  Broyden damping             0.4000000          :
          ...................................................

 iter      E             dE          RMSdq      gap      omega  full diag
   1   -185.1465229 -0.185147E+03  0.483E+00    1.16       0.0  T
   2   -185.3457115 -0.199189E+00  0.291E+00    0.93       1.0  T
   3   -185.3061674  0.395441E-01  0.158E+00    1.03       1.0  T
   4   -185.4153244 -0.109157E+00  0.523E-01    1.01       1.0  T
   5   -185.4312892 -0.159648E-01  0.170E-01    0.95       1.0  T
   6   -185.4324277 -0.113853E-02  0.888E-02    0.99       1.0  T
   7   -185.4326598 -0.232101E-03  0.411E-02    0.98       1.0  T
   8   -185.4326939 -0.340580E-04  0.267E-02    0.99       1.0  T
   9   -185.4327109 -0.170895E-04  0.202E-02    0.99       1.0  T
  10   -185.4327236 -0.126794E-04  0.137E-02    0.99       1.0  T
  11   -185.4327308 -0.714144E-05  0.859E-03    0.99       1.2  T
  12   -185.4327339 -0.318436E-05  0.428E-03    0.99       2.4  T
  13   -185.4327347 -0.788079E-06  0.203E-03    0.99       5.0  T
  14   -185.4327348 -0.106566E-06  0.117E-03    0.99       8.7  T
  15   -185.4327349 -0.252070E-07  0.615E-04    0.99      16.5  T
  16   -185.4327349 -0.116225E-07  0.283E-04    0.99      35.9  T

   *** convergence criteria satisfied after 16 iterations ***

         #    Occupation            Energy/Eh            Energy/eV
      -------------------------------------------------------------
         1        2.0000           -1.0812572             -29.4225
       ...           ...                  ...                  ...
       160        2.0000           -0.4120312             -11.2119
       161        2.0000           -0.4078166             -11.0973
       162        2.0000           -0.4062438             -11.0545
       163        2.0000           -0.3935204             -10.7082
       164        2.0000           -0.3878983             -10.5553
       165        2.0000           -0.3801658             -10.3448
       166        2.0000           -0.3743047             -10.1853 (HOMO)
       167                         -0.3379035              -9.1948 (LUMO)
       168                         -0.3314383              -9.0189
       169                         -0.3248538              -8.8397
       170                         -0.3173957              -8.6368
       171                         -0.3040606              -8.2739
       ...                                ...                  ...
       334                          1.1542833              31.4096
      -------------------------------------------------------------
                  HL-Gap            0.0364012 Eh            0.9905 eV
             Fermi-level           -0.3561036 Eh           -9.6901 eV

 SCC (total)                   0 d,  0 h,  0 min,  0.287 sec
 SCC setup                      ...        0 min,  0.011 sec (  3.819%)
 Dispersion                     ...        0 min,  0.004 sec (  1.453%)
 classical contributions        ...        0 min,  0.000 sec (  0.101%)
 integral evaluation            ...        0 min,  0.014 sec (  4.746%)
 iterations                     ...        0 min,  0.225 sec ( 78.347%)
 molecular gradient             ...        0 min,  0.032 sec ( 11.168%)
 printout                       ...        0 min,  0.001 sec (  0.327%)

         :::::::::::::::::::::::::::::::::::::::::::::::::::::
         ::                     SUMMARY                     ::
         :::::::::::::::::::::::::::::::::::::::::::::::::::::
         :: total energy            -182.636528432326 Eh    ::
         :: total w/o Gsasa/hb      -182.618011324905 Eh    ::
         :: gradient norm              0.038572593813 Eh/a0 ::
         :: HOMO-LUMO gap              0.990526365918 eV    ::
         ::.................................................::
         :: SCC energy              -185.432734880403 Eh    ::
         :: -> isotropic ES            0.167242401233 Eh    ::
         :: -> anisotropic ES          0.002214347321 Eh    ::
         :: -> anisotropic XC          0.115906363775 Eh    ::
         :: -> dispersion             -0.162680131136 Eh    ::
         :: -> Gsolv                  -0.055928304673 Eh    ::
         ::    -> Gelec               -0.037411197252 Eh    ::
         ::    -> Gsasa               -0.013754424184 Eh    ::
         ::    -> Ghb                 -0.005843442935 Eh    ::
         ::    -> Gshift               0.001080759698 Eh    ::
         :: repulsion energy           2.795885439680 Eh    ::
         :: add. restraining           0.000000000000 Eh    ::
         :: total charge               0.000000000009 e     ::
         :::::::::::::::::::::::::::::::::::::::::::::::::::::

           -------------------------------------------------
          |                Property Printout                |
           -------------------------------------------------

    * Orbital Energies and Occupations

         #    Occupation            Energy/Eh            Energy/eV
      -------------------------------------------------------------
         1        2.0000           -1.0812572             -29.4225
       ...           ...                  ...                  ...
       154        2.0000           -0.4240408             -11.5387
       155        2.0000           -0.4220673             -11.4850
       156        2.0000           -0.4208317             -11.4514
       157        2.0000           -0.4206852             -11.4474
       158        2.0000           -0.4201809             -11.4337
       159        2.0000           -0.4164351             -11.3318
       160        2.0000           -0.4120312             -11.2119
       161        2.0000           -0.4078166             -11.0973
       162        2.0000           -0.4062438             -11.0545
       163        2.0000           -0.3935204             -10.7082
       164        2.0000           -0.3878983             -10.5553
       165        2.0000           -0.3801658             -10.3448
       166        2.0000           -0.3743047             -10.1853 (HOMO)
       167                         -0.3379035              -9.1948 (LUMO)
       168                         -0.3314383              -9.0189
       169                         -0.3248538              -8.8397
       170                         -0.3173957              -8.6368
       171                         -0.3040606              -8.2739
       172                         -0.2801471              -7.6232
       173                         -0.2709350              -7.3725
       174                         -0.2581615              -7.0249
       175                         -0.2513230              -6.8388
       176                         -0.2485961              -6.7646
       177                         -0.2467616              -6.7147
       ...                                ...                  ...
       334                          1.1542833              31.4096
      -------------------------------------------------------------
                  HL-Gap            0.0364012 Eh            0.9905 eV
             Fermi-level           -0.3561036 Eh           -9.6901 eV

     #   Z          covCN         q      C6AA      α(0)
     1   6 C        2.928    -0.007    28.201     8.709
     2   6 C        3.011    -0.038    28.919     8.821
     3   6 C        2.872     0.237    23.048     7.870
     4   8 O        0.856    -0.411    21.902     6.275
     5   6 C        3.043    -0.015    28.332     8.730
     6   6 C        2.947    -0.029    28.716     8.789
     7   6 C        2.884     0.092    25.947     8.351
     8  17 Cl       0.961    -0.138   103.450    15.560
     9   6 C        2.819     0.178    24.174     8.056
    10   9 F        0.788    -0.217    11.408     3.990
    11   6 C        2.912    -0.043    29.079     8.842
    12   6 C        3.040     0.014    27.660     8.626
    13   6 C        3.021     0.044    26.988     8.522
    14   6 C        2.948     0.010    27.798     8.647
    15   6 C        1.930     0.133    27.840     8.521
    16   7 N        0.911    -0.272    27.039     7.521
    17   6 C        1.935     0.135    27.782     8.512
    18   7 N        0.911    -0.279    27.192     7.542
    19   6 C        2.995     0.018    27.597     8.617
    20   6 C        3.100     0.018    27.491     8.592
    21   6 C        3.804    -0.062    21.688     6.630
    22   6 C        3.754    -0.113    22.710     6.795
    23   6 C        3.198     0.013    27.187     8.499
    24  16 S        2.174    -0.018   141.796    20.042
    25   6 C        3.103     0.007    27.741     8.631
    26   6 C        3.084    -0.038    28.844     8.804
    27   6 C        3.342     0.069    24.003     7.743
    28   6 C        3.342     0.069    24.015     7.746
    29   7 N        1.854    -0.298    28.573     7.923
    30  16 S        2.688     0.316   128.836    19.104
    31   7 N        1.854    -0.297    28.551     7.920
    32   6 C        3.084    -0.036    28.809     8.799
    33   6 C        3.101     0.006    27.770     8.636
    34  16 S        2.176    -0.025   142.107    20.064
    35   6 C        3.198     0.012    27.201     8.501
    36   6 C        3.102     0.014    27.583     8.606
    37   6 C        3.804    -0.060    21.654     6.625
    38   6 C        3.754    -0.111    22.678     6.790
    39   6 C        2.995     0.017    27.624     8.622
    40  16 S        2.255    -0.047   142.991    20.126
    41   6 C        3.117     0.016    27.493     8.588
    42   6 C        3.250     0.032    26.259     8.295
    43   7 N        2.796    -0.020    21.625     6.907
    44   6 C        3.076     0.036    27.125     8.539
    45   6 C        3.076     0.036    27.117     8.538
    46   7 N        2.797    -0.014    21.529     6.891
    47   6 C        3.244     0.032    26.327     8.314
    48   6 C        3.115     0.019    27.434     8.580
    49  16 S        2.256    -0.035   142.483    20.090
    50   6 C        3.742    -0.007    20.774     6.502
    51   6 C        3.752    -0.134    23.129     6.858
    52   6 C        3.745    -0.015    20.906     6.522
    53   6 C        3.752    -0.123    22.915     6.826
    54   6 C        2.927    -0.011    28.282     8.721
    55   6 C        3.010    -0.039    28.953     8.826
    56   6 C        2.872     0.232    23.144     7.886
    57   8 O        0.856    -0.431    22.310     6.333
    58   6 C        3.044    -0.019    28.438     8.746
    59   6 C        2.912    -0.016    28.419     8.742
    60   6 C        2.921    -0.023    28.582     8.767
    61   6 C        2.922    -0.021    28.530     8.759
    62   6 C        2.913    -0.024    28.602     8.770
    63   6 C        3.038     0.010    27.760     8.642
    64   6 C        3.022     0.041    27.054     8.532
    65   6 C        2.948     0.004    27.946     8.670
    66   6 C        1.934     0.133    27.832     8.520
    67   7 N        0.911    -0.288    27.430     7.575
    68   6 C        1.929     0.133    27.837     8.521
    69   7 N        0.911    -0.279    27.201     7.543
    70   1 H        0.925     0.093     1.854     2.129
    71   1 H        0.926     0.112     1.681     2.028
    72   1 H        0.926     0.102     1.768     2.079
    73   1 H        0.924     0.069     2.101     2.267
    74   1 H        0.925     0.059     2.209     2.324
    75   1 H        0.925     0.052     2.297     2.370
    76   1 H        0.925     0.047     2.356     2.400
    77   1 H        0.925     0.061     2.193     2.316
    78   1 H        0.925     0.055     2.257     2.349
    79   1 H        0.924     0.067     2.122     2.278
    80   1 H        0.925     0.045     2.386     2.416
    81   1 H        0.925     0.059     2.207     2.323
    82   1 H        0.925     0.051     2.307     2.375
    83   1 H        0.924     0.077     2.006     2.215
    84   1 H        0.924     0.068     2.113     2.273
    85   1 H        0.925     0.071     2.076     2.253
    86   1 H        0.925     0.071     2.071     2.251
    87   1 H        0.925     0.061     2.182     2.310
    88   1 H        0.925     0.091     1.870     2.139
    89   1 H        0.924     0.078     2.001     2.212
    90   1 H        0.925     0.050     2.320     2.382
    91   1 H        0.925     0.055     2.260     2.351
    92   1 H        0.925     0.072     2.061     2.245
    93   1 H        0.925     0.083     1.947     2.182
    94   1 H        0.926     0.067     2.121     2.277
    95   1 H        0.926     0.075     2.036     2.231
    96   1 H        0.926     0.075     2.029     2.227
    97   1 H        0.926     0.061     2.192     2.315

 Mol. C6AA /au·bohr⁶  :     185160.047174
 Mol. C8AA /au·bohr⁸  :    5306120.750546
 Mol. α(0) /au        :        684.221084


Wiberg/Mayer (AO) data.
largest (>0.10) Wiberg bond orders for each atom

 ---------------------------------------------------------------------------
     #   Z sym  total        # sym  WBO       # sym  WBO       # sym  WBO
 ---------------------------------------------------------------------------
     1   6 C    3.937 --     2 C    1.503    19 C    1.285    70 H    0.940
     2   6 C    3.953 --     1 C    1.503    13 C    1.151     3 C    1.034
     3   6 C    3.914 --     4 O    1.743     2 C    1.034     5 C    1.011
     4   8 O    2.016 --     3 C    1.743
     5   6 C    3.974 --     6 C    1.425    12 C    1.293     3 C    1.011
     6   6 C    3.970 --     5 C    1.425     7 C    1.383    71 H    0.956
     7   6 C    3.907 --     6 C    1.383     9 C    1.346     8 Cl   1.001
     8  17 Cl   1.144 --     7 C    1.001
     9   6 C    3.875 --    11 C    1.390     7 C    1.346    10 F    0.968
    10   9 F    1.101 --     9 C    0.968
    11   6 C    3.968 --    12 C    1.402     9 C    1.390    72 H    0.953
    12   6 C    3.982 --    11 C    1.402     5 C    1.293    13 C    1.078
    13   6 C    3.967 --    14 C    1.463     2 C    1.151    12 C    1.078
    14   6 C    3.962 --    13 C    1.463    15 C    1.106    17 C    1.101
    15   6 C    3.943 --    16 N    2.754    14 C    1.106
    16   7 N    2.957 --    15 C    2.754
    17   6 C    3.944 --    18 N    2.753    14 C    1.101
    18   7 N    2.968 --    17 C    2.753
    19   6 C    3.926 --    20 C    1.369     1 C    1.285    49 S    1.063
    20   6 C    3.963 --    19 C    1.369    23 C    1.333    21 C    1.016
    21   6 C    3.989 --    20 C    1.016    22 C    0.989    74 H    0.970
                            73 H    0.963
    22   6 C    3.985 --    21 C    0.989    75 H    0.987    76 H    0.987
                            77 H    0.982
    23   6 C    3.928 --    20 C    1.333    48 C    1.302    24 S    1.088
    24  16 S    2.523 --    25 C    1.120    23 C    1.088
    25   6 C    3.915 --    47 C    1.288    26 C    1.281    24 S    1.120
    26   6 C    3.954 --    25 C    1.281    45 C    1.260    27 C    1.172
    27   6 C    3.970 --    31 N    1.423    26 C    1.172    28 C    1.166
                            30 S    0.105
    28   6 C    3.970 --    29 N    1.423    32 C    1.172    27 C    1.166
                            30 S    0.106
    29   7 N    3.060 --    28 C    1.423    30 S    1.384    31 N    0.145
    30  16 S    3.099 --    29 N    1.384    31 N    1.383    28 C    0.106
                            27 C    0.105
    31   7 N    3.060 --    27 C    1.423    30 S    1.383    29 N    0.145
    32   6 C    3.953 --    33 C    1.277    44 C    1.267    28 C    1.172
    33   6 C    3.917 --    42 C    1.294    32 C    1.277    34 S    1.117
    34  16 S    2.518 --    33 C    1.117    35 C    1.089
    35   6 C    3.927 --    36 C    1.318    41 C    1.316    34 S    1.089
    36   6 C    3.965 --    39 C    1.390    35 C    1.318    37 C    1.015
    37   6 C    3.990 --    36 C    1.015    38 C    0.991    78 H    0.971
                            79 H    0.963
    38   6 C    3.987 --    37 C    0.991    80 H    0.987    82 H    0.987
                            81 H    0.982
    39   6 C    3.924 --    36 C    1.390    54 C    1.261    40 S    1.065
    40  16 S    2.554 --    41 C    1.130    39 C    1.065
    41   6 C    3.936 --    35 C    1.316    42 C    1.256    40 S    1.130
    42   6 C    3.941 --    33 C    1.294    41 C    1.256    43 N    1.165
    43   7 N    3.560 --    44 C    1.178    42 C    1.165    52 C    0.969
    44   6 C    3.931 --    32 C    1.267    45 C    1.221    43 N    1.178
    45   6 C    3.929 --    26 C    1.260    44 C    1.221    46 N    1.187
    46   7 N    3.569 --    45 C    1.187    47 C    1.161    50 C    0.970
    47   6 C    3.941 --    25 C    1.288    48 C    1.266    46 N    1.161
    48   6 C    3.936 --    23 C    1.302    47 C    1.266    49 S    1.133
    49  16 S    2.560 --    48 C    1.133    19 C    1.063
    50   6 C    3.950 --    51 C    1.007    46 N    0.970    84 H    0.963
                            83 H    0.960
    51   6 C    3.981 --    50 C    1.007    85 H    0.980    86 H    0.978
                            87 H    0.978
    52   6 C    3.946 --    53 C    1.005    43 N    0.969    89 H    0.963
                            88 H    0.951
    53   6 C    3.985 --    52 C    1.005    90 H    0.986    91 H    0.983
                            92 H    0.980
    54   6 C    3.945 --    55 C    1.534    39 C    1.261    93 H    0.942
    55   6 C    3.954 --    54 C    1.534    64 C    1.141    56 C    1.021
    56   6 C    3.911 --    57 O    1.734    58 C    1.023    55 C    1.021
    57   8 O    2.010 --    56 C    1.734
    58   6 C    3.973 --    59 C    1.420    63 C    1.286    56 C    1.023
    59   6 C    3.980 --    58 C    1.420    60 C    1.420    94 H    0.965
    60   6 C    3.966 --    61 C    1.437    59 C    1.420    95 H    0.966
    61   6 C    3.975 --    60 C    1.437    62 C    1.424    96 H    0.966
    62   6 C    3.977 --    61 C    1.424    63 C    1.409    97 H    0.963
    63   6 C    3.980 --    62 C    1.409    58 C    1.286    64 C    1.078
    64   6 C    3.970 --    65 C    1.467    55 C    1.141    63 C    1.078
    65   6 C    3.968 --    64 C    1.467    68 C    1.106    66 C    1.101
    66   6 C    3.943 --    67 N    2.751    65 C    1.101
    67   7 N    2.965 --    66 C    2.751
    68   6 C    3.942 --    69 N    2.753    65 C    1.106
    69   7 N    2.959 --    68 C    2.753
    70   1 H    0.989 --     1 C    0.940
    71   1 H    0.987 --     6 C    0.956
    72   1 H    0.989 --    11 C    0.953
    73   1 H    0.993 --    21 C    0.963
    74   1 H    0.996 --    21 C    0.970
    75   1 H    0.997 --    22 C    0.987
    76   1 H    0.998 --    22 C    0.987
    77   1 H    0.994 --    22 C    0.982
    78   1 H    0.996 --    37 C    0.971
    79   1 H    0.994 --    37 C    0.963
    80   1 H    0.998 --    38 C    0.987
    81   1 H    0.994 --    38 C    0.982
    82   1 H    0.997 --    38 C    0.987
    83   1 H    0.993 --    50 C    0.960
    84   1 H    0.992 --    50 C    0.963
    85   1 H    0.994 --    51 C    0.980
    86   1 H    0.995 --    51 C    0.978
    87   1 H    0.996 --    51 C    0.978
    88   1 H    0.990 --    52 C    0.951
    89   1 H    0.993 --    52 C    0.963
    90   1 H    0.997 --    53 C    0.986
    91   1 H    0.997 --    53 C    0.983
    92   1 H    0.994 --    53 C    0.980
    93   1 H    0.991 --    54 C    0.942
    94   1 H    0.995 --    59 C    0.965
    95   1 H    0.994 --    60 C    0.966
    96   1 H    0.994 --    61 C    0.966
    97   1 H    0.996 --    62 C    0.963
 ---------------------------------------------------------------------------

Topologies differ in bond orders
Writing corrected topology to xtbtopo.mol

molecular dipole:
                 x           y           z       tot (Debye)
 q only:       -2.430      -2.295      -1.951
   full:       -2.740      -1.882      -2.308      10.287
molecular quadrupole (traceless):
                xx          xy          yy          xz          yz          zz
 q only:       44.037     -49.721     -19.061      30.983      34.184     -24.976
  q+dip:       43.117     -38.053     -24.855      17.135      12.139     -18.262
   full:       44.734     -33.640     -29.703      20.845      16.572     -15.031


           -------------------------------------------------
          | TOTAL ENERGY             -182.636528432326 Eh   |
          | GRADIENT NORM               0.038572593813 Eh/α |
          | HOMO-LUMO GAP               0.990526365918 eV   |
           -------------------------------------------------

------------------------------------------------------------------------
 * finished run on 2022/02/01 at 23:57:17.930     
------------------------------------------------------------------------
 total:
 * wall-time:     0 d,  0 h,  0 min,  0.343 sec
 *  cpu-time:     0 d,  0 h,  0 min,  2.649 sec
 * ratio c/w:     7.722 speedup
 SCF:
 * wall-time:     0 d,  0 h,  0 min,  0.288 sec
 *  cpu-time:     0 d,  0 h,  0 min,  2.280 sec
 * ratio c/w:     7.910 speedup

