      -----------------------------------------------------------      
     |                   =====================                   |     
     |                           x T B                           |     
     |                   =====================                   |     
     |                         S. Grimme                         |     
     |          Mulliken Center for Theoretical Chemistry        |     
     |                    University of Bonn                     |     
      -----------------------------------------------------------      

   * xtb version 6.4.1 (unknown) compiled by 'oda6@login1.crc.pitt.edu' on 2021-06-25

   xtb is free software: you can redistribute it and/or modify it under
   the terms of the GNU Lesser General Public License as published by
   the Free Software Foundation, either version 3 of the License, or
   (at your option) any later version.
   
   xtb is distributed in the hope that it will be useful,
   but WITHOUT ANY WARRANTY; without even the implied warranty of
   MERCHANTABILITY or FITNESS FOR A PARTICULAR PURPOSE.  See the
   GNU Lesser General Public License for more details.
   
   Cite this work as:
   * C. Bannwarth, E. Caldeweyher, S. Ehlert, A. Hansen, P. Pracht,
     J. Seibert, S. Spicher, S. Grimme, WIREs Comput. Mol. Sci., 2020, 11,
     e01493. DOI: 10.1002/wcms.1493
   
   for GFN2-xTB:
   * C. Bannwarth, S. Ehlert and S. Grimme., J. Chem. Theory Comput., 2019,
     15, 1652-1671. DOI: 10.1021/acs.jctc.8b01176
   for GFN1-xTB:
   * S. Grimme, C. Bannwarth, P. Shushkov, J. Chem. Theory Comput., 2017,
     13, 1989-2009. DOI: 10.1021/acs.jctc.7b00118
   for GFN0-xTB:
   * P. Pracht, E. Caldeweyher, S. Ehlert, S. Grimme, ChemRxiv, 2019, preprint.
     DOI: 10.26434/chemrxiv.8326202.v1
   for GFN-FF:
   * S. Spicher and S. Grimme, Angew. Chem. Int. Ed., 2020, 59, 15665-15673.
     DOI: 10.1002/anie.202004239
   
   for DFT-D4:
   * E. Caldeweyher, C. Bannwarth and S. Grimme, J. Chem. Phys., 2017,
     147, 034112. DOI: 10.1063/1.4993215
   * E. Caldeweyher, S. Ehlert, A. Hansen, H. Neugebauer, S. Spicher,
     C. Bannwarth and S. Grimme, J. Chem. Phys., 2019, 150, 154122.
     DOI: 10.1063/1.5090222
   * E. Caldeweyher, J.-M. Mewes, S. Ehlert and S. Grimme, Phys. Chem. Chem. Phys.
     2020, 22, 8499-8512. DOI: 10.1039/D0CP00502A
   
   for sTDA-xTB:
   * S. Grimme and C. Bannwarth, J. Chem. Phys., 2016, 145, 054103.
     DOI: 10.1063/1.4959605
   
   in the mass-spec context:
   * V. Asgeirsson, C. Bauer and S. Grimme, Chem. Sci., 2017, 8, 4879.
     DOI: 10.1039/c7sc00601b
   * J. Koopman and S. Grimme, ACS Omega 2019, 4, 12, 15120-15133.
     DOI: 10.1021/acsomega.9b02011
   
   for metadynamics refer to:
   * S. Grimme, J. Chem. Theory Comput., 2019, 155, 2847-2862
     DOI: 10.1021/acs.jctc.9b00143
   
   for SPH calculations refer to:
   * S. Spicher and S. Grimme, J. Chem. Theory Comput., 2021, 17, 1701-1714
     DOI: 10.1021/acs.jctc.0c01306
   
   with help from (in alphabetical order)
   P. Atkinson, C. Bannwarth, F. Bohle, G. Brandenburg, E. Caldeweyher
   M. Checinski, S. Dohm, S. Ehlert, S. Ehrlich, I. Gerasimov, J. Koopman
   C. Lavigne, S. Lehtola, F. März, M. Müller, F. Musil, H. Neugebauer
   J. Pisarek, C. Plett, P. Pracht, J. Seibert, P. Shushkov, S. Spicher
   M. Stahn, M. Steiner, T. Strunk, J. Stückrath, T. Rose, and J. Unsleber
   
 * started run on 2022/02/10 at 19:36:04.146     

           -------------------------------------------------
          |                Calculation Setup                |
           -------------------------------------------------

          program call               : /ihome/ghutchison/oda6/xtb/xtb-641/bin/xtb ../../GFN2_output/65_100_40.mol --sp --alpb water
          hostname                   : smp-n32
          coordinate file            : ../../GFN2_output/65_100_40.mol
          omp threads                :                     8
          number of atoms            :                   116
          number of electrons        :                   396
          charge                     :                     0
          spin                       :                   0.0
          first test random number   :      0.75213414241159

   ID    Z sym.   atoms
    1    6 C      1-3, 5, 6, 8, 10, 12, 14-17, 19, 21-31, 33-36, 40, 41,
                  43-53, 55, 56, 58, 59, 61, 62, 64-69, 71-73, 75, 78-80
    2    8 O      4, 81
    3   17 Cl     7, 9, 11, 13
    4    7 N      18, 20, 37, 39, 57, 60, 74, 76, 77
    5   16 S      32, 38, 42, 54, 63, 70
    6    1 H      82-116

           -------------------------------------------------
          |                 G F N 2 - x T B                 |
           -------------------------------------------------

        Reference                      10.1021/acs.jctc.8b01176
      * Hamiltonian:
        H0-scaling (s, p, d)           1.850000    2.230000    2.230000
        zeta-weighting                 0.500000
      * Dispersion:
        s8                             2.700000
        a1                             0.520000
        a2                             5.000000
        s9                             5.000000
      * Repulsion:
        kExp                           1.500000    1.000000
        rExp                           1.000000
      * Coulomb:
        alpha                          2.000000
        third order                    shell-resolved
        anisotropic                    true
        a3                             3.000000
        a5                             4.000000
        cn-shift                       1.200000
        cn-exp                         4.000000
        max-rad                        5.000000

      * Solvation model:               ALPB
        Solvent                        water
        Parameter file                 internal GFN2-xTB/ALPB
        Dielectric constant                8.0200E+01
        Reference state                gsolv [1 M gas/solution]
        Free energy shift                  1.0808E-03 Eh       6.7819E-01 kcal/mol
        Temperature                        2.9815E+02 K
        Density                            1.0000E+00 kg/L
        Solvent mass                       1.8000E+01 g/mol
        Interaction kernel             P16
        Born radius scaling (c1)           1.4744E+00
        Born radii integrator          GBOBC
        Born offset                        0.0000E+00 a0       0.0000E+00 AA
        H-bond correction              true
        Ion screening                  false
        Surface tension                    1.0000E-05 Eh       1.5569E+01 dyn/cm
        Grid points                               230 per atom

          ...................................................
          :                      SETUP                      :
          :.................................................:
          :  # basis functions                 419          :
          :  # atomic orbitals                 409          :
          :  # shells                          207          :
          :  # electrons                       396          :
          :  max. iterations                   250          :
          :  Hamiltonian                  GFN2-xTB          :
          :  restarted?                      false          :
          :  GBSA solvation                   true          :
          :  PC potential                    false          :
          :  electronic temp.          300.0000000     K    :
          :  accuracy                    1.0000000          :
          :  -> integral cutoff          0.2500000E+02      :
          :  -> integral neglect         0.1000000E-07      :
          :  -> SCF convergence          0.1000000E-05 Eh   :
          :  -> wf. convergence          0.1000000E-03 e    :
          :  Broyden damping             0.4000000          :
          ...................................................

 iter      E             dE          RMSdq      gap      omega  full diag
   1   -221.3357027 -0.221336E+03  0.463E+00    0.99       0.0  T
   2   -221.5796335 -0.243931E+00  0.278E+00    0.79       1.0  T
   3   -221.5458333  0.338002E-01  0.149E+00    0.81       1.0  T
   4   -221.6602905 -0.114457E+00  0.518E-01    0.89       1.0  T
   5   -221.6775307 -0.172402E-01  0.183E-01    0.78       1.0  T
   6   -221.6790049 -0.147422E-02  0.998E-02    0.82       1.0  T
   7   -221.6793258 -0.320945E-03  0.454E-02    0.82       1.0  T
   8   -221.6793652 -0.393396E-04  0.299E-02    0.82       1.0  T
   9   -221.6793893 -0.240871E-04  0.196E-02    0.82       1.0  T
  10   -221.6794009 -0.116090E-04  0.126E-02    0.82       1.0  T
  11   -221.6794067 -0.585838E-05  0.758E-03    0.82       1.2  T
  12   -221.6794089 -0.217340E-05  0.403E-03    0.82       2.3  T
  13   -221.6794095 -0.634481E-06  0.260E-03    0.82       3.6  T
  14   -221.6794097 -0.216584E-06  0.172E-03    0.82       5.4  T
  15   -221.6794099 -0.127275E-06  0.108E-03    0.82       8.6  T
  16   -221.6794099 -0.489263E-07  0.711E-04    0.82      13.1  T
  17   -221.6794099 -0.237235E-07  0.445E-04    0.82      20.9  T

   *** convergence criteria satisfied after 17 iterations ***

         #    Occupation            Energy/Eh            Energy/eV
      -------------------------------------------------------------
         1        2.0000           -1.0911944             -29.6929
       ...           ...                  ...                  ...
       192        2.0000           -0.4023669             -10.9490
       193        2.0000           -0.4010357             -10.9127
       194        2.0000           -0.3975494             -10.8179
       195        2.0000           -0.3892434             -10.5919
       196        2.0000           -0.3848175             -10.4714
       197        2.0000           -0.3771548             -10.2629
       198        2.0000           -0.3715686             -10.1109 (HOMO)
       199        0.0000           -0.3413049              -9.2874 (LUMO)
       200                         -0.3314363              -9.0188
       201                         -0.3241781              -8.8213
       202                         -0.3027494              -8.2382
       203                         -0.2899086              -7.8888
       ...                                ...                  ...
       409                          1.1571115              31.4866
      -------------------------------------------------------------
                  HL-Gap            0.0302638 Eh            0.8235 eV
             Fermi-level           -0.3564354 Eh           -9.6991 eV

 SCC (total)                   0 d,  0 h,  0 min,  0.362 sec
 SCC setup                      ...        0 min,  0.003 sec (  0.755%)
 Dispersion                     ...        0 min,  0.005 sec (  1.374%)
 classical contributions        ...        0 min,  0.000 sec (  0.043%)
 integral evaluation            ...        0 min,  0.017 sec (  4.557%)
 iterations                     ...        0 min,  0.292 sec ( 80.493%)
 molecular gradient             ...        0 min,  0.045 sec ( 12.381%)
 printout                       ...        0 min,  0.001 sec (  0.374%)

         :::::::::::::::::::::::::::::::::::::::::::::::::::::
         ::                     SUMMARY                     ::
         :::::::::::::::::::::::::::::::::::::::::::::::::::::
         :: total energy            -218.493517284003 Eh    ::
         :: total w/o Gsasa/hb      -218.474245602879 Eh    ::
         :: gradient norm              0.035302324070 Eh/a0 ::
         :: HOMO-LUMO gap              0.823518951655 eV    ::
         ::.................................................::
         :: SCC energy              -221.679409945450 Eh    ::
         :: -> isotropic ES            0.166153370286 Eh    ::
         :: -> anisotropic ES          0.012914025290 Eh    ::
         :: -> anisotropic XC          0.129420906027 Eh    ::
         :: -> dispersion             -0.203287686752 Eh    ::
         :: -> Gsolv                  -0.054840701947 Eh    ::
         ::    -> Gelec               -0.035569020823 Eh    ::
         ::    -> Gsasa               -0.016003497648 Eh    ::
         ::    -> Ghb                 -0.004348943175 Eh    ::
         ::    -> Gshift               0.001080759698 Eh    ::
         :: repulsion energy           3.185450563898 Eh    ::
         :: add. restraining           0.000000000000 Eh    ::
         :: total charge               0.000000000671 e     ::
         :::::::::::::::::::::::::::::::::::::::::::::::::::::

           -------------------------------------------------
          |                Property Printout                |
           -------------------------------------------------

    * Orbital Energies and Occupations

         #    Occupation            Energy/Eh            Energy/eV
      -------------------------------------------------------------
         1        2.0000           -1.0911944             -29.6929
       ...           ...                  ...                  ...
       186        2.0000           -0.4188611             -11.3978
       187        2.0000           -0.4181226             -11.3777
       188        2.0000           -0.4167270             -11.3397
       189        2.0000           -0.4091570             -11.1337
       190        2.0000           -0.4073629             -11.0849
       191        2.0000           -0.4060651             -11.0496
       192        2.0000           -0.4023669             -10.9490
       193        2.0000           -0.4010357             -10.9127
       194        2.0000           -0.3975494             -10.8179
       195        2.0000           -0.3892434             -10.5919
       196        2.0000           -0.3848175             -10.4714
       197        2.0000           -0.3771548             -10.2629
       198        2.0000           -0.3715686             -10.1109 (HOMO)
       199        0.0000           -0.3413049              -9.2874 (LUMO)
       200                         -0.3314363              -9.0188
       201                         -0.3241781              -8.8213
       202                         -0.3027494              -8.2382
       203                         -0.2899086              -7.8888
       204                         -0.2857367              -7.7753
       205                         -0.2641942              -7.1891
       206                         -0.2590831              -7.0500
       207                         -0.2582660              -7.0278
       208                         -0.2554908              -6.9523
       209                         -0.2521585              -6.8616
       ...                                ...                  ...
       409                          1.1571115              31.4866
      -------------------------------------------------------------
                  HL-Gap            0.0302638 Eh            0.8235 eV
             Fermi-level           -0.3564354 Eh           -9.6991 eV

     #   Z          covCN         q      C6AA      α(0)
     1   6 C        2.919    -0.008    28.227     8.712
     2   6 C        3.014    -0.040    28.961     8.828
     3   6 C        2.873     0.238    23.039     7.868
     4   8 O        0.949    -0.383    21.295     6.189
     5   6 C        3.082    -0.026    28.569     8.762
     6   6 C        2.912     0.099    25.801     8.329
     7  17 Cl       0.993    -0.080   101.645    15.424
     8   6 C        2.961     0.083    26.143     8.387
     9  17 Cl       1.032    -0.082   101.720    15.430
    10   6 C        2.964     0.085    26.094     8.379
    11  17 Cl       1.055    -0.086   101.858    15.441
    12   6 C        2.914     0.092    25.962     8.355
    13  17 Cl       1.014    -0.102   102.342    15.477
    14   6 C        3.057     0.003    27.892     8.661
    15   6 C        3.023     0.044    26.989     8.522
    16   6 C        2.947     0.012    27.751     8.640
    17   6 C        1.953     0.133    27.835     8.520
    18   7 N        0.911    -0.262    26.802     7.488
    19   6 C        1.959     0.135    27.768     8.510
    20   7 N        0.911    -0.276    27.139     7.534
    21   6 C        2.993     0.020    27.548     8.610
    22   6 C        3.105     0.013    27.588     8.606
    23   6 C        2.979     0.003    27.963     8.674
    24   6 C        2.926    -0.038    28.935     8.821
    25   6 C        2.919    -0.037    28.911     8.817
    26   6 C        2.919    -0.031    28.769     8.796
    27   6 C        2.926    -0.036    28.888     8.814
    28   6 C        2.972     0.018    27.611     8.619
    29   6 C        3.806    -0.064    21.720     6.635
    30   6 C        3.753    -0.103    22.526     6.768
    31   6 C        3.167     0.018    27.263     8.532
    32  16 S        2.163    -0.034   142.459    20.089
    33   6 C        3.095     0.012    27.637     8.616
    34   6 C        3.080    -0.036    28.804     8.799
    35   6 C        3.339     0.069    24.054     7.759
    36   6 C        3.339     0.070    24.045     7.757
    37   7 N        1.854    -0.298    28.569     7.922
    38  16 S        2.684     0.307   129.155    19.127
    39   7 N        1.854    -0.297    28.536     7.918
    40   6 C        3.083    -0.038    28.842     8.804
    41   6 C        3.100     0.008    27.718     8.628
    42  16 S        2.163    -0.044   142.896    20.119
    43   6 C        3.180     0.016    27.222     8.518
    44   6 C        3.111     0.007    27.716     8.625
    45   6 C        2.979     0.003    27.959     8.673
    46   6 C        2.972     0.011    27.757     8.642
    47   6 C        3.806    -0.062    21.691     6.630
    48   6 C        3.754    -0.105    22.557     6.772
    49   6 C        2.926    -0.040    29.003     8.832
    50   6 C        2.918    -0.034    28.848     8.808
    51   6 C        2.919    -0.036    28.898     8.815
    52   6 C        2.926    -0.035    28.876     8.812
    53   6 C        2.994     0.017    27.615     8.620
    54  16 S        2.294     0.013   140.528    19.952
    55   6 C        3.108     0.005    27.772     8.634
    56   6 C        3.249     0.032    26.286     8.300
    57   7 N        2.799    -0.008    21.406     6.872
    58   6 C        3.080     0.033    27.166     8.545
    59   6 C        3.083     0.037    27.073     8.530
    60   7 N        2.794    -0.017    21.582     6.900
    61   6 C        3.257     0.034    26.128     8.263
    62   6 C        3.109     0.009    27.672     8.618
    63  16 S        2.293     0.025   140.035    19.917
    64   6 C        3.745    -0.019    20.979     6.534
    65   6 C        3.752    -0.126    22.975     6.835
    66   6 C        3.742    -0.015    20.913     6.524
    67   6 C        3.751    -0.132    23.092     6.853
    68   6 C        2.966    -0.018    28.446     8.748
    69   6 C        2.956    -0.014    28.355     8.734
    70  16 S        2.263    -0.038   142.628    20.100
    71   6 C        2.932     0.115    25.469     8.276
    72   6 C        2.999    -0.033    28.807     8.804
    73   6 C        1.923     0.129    27.943     8.537
    74   7 N        0.911    -0.296    27.628     7.602
    75   6 C        1.938     0.126    27.989     8.544
    76   7 N        0.911    -0.290    27.477     7.581
    77   7 N        2.849    -0.052    22.241     7.004
    78   6 C        3.744    -0.002    20.677     6.487
    79   6 C        3.752    -0.121    22.882     6.821
    80   6 C        2.902     0.271    22.441     7.767
    81   8 O        0.933    -0.437    22.406     6.348
    82   1 H        0.925     0.077     2.010     2.217
    83   1 H        0.925     0.036     2.497     2.471
    84   1 H        0.926     0.043     2.413     2.429
    85   1 H        0.926     0.045     2.379     2.412
    86   1 H        0.926     0.050     2.326     2.385
    87   1 H        0.924     0.050     2.319     2.382
    88   1 H        0.924     0.045     2.384     2.415
    89   1 H        0.925     0.047     2.352     2.398
    90   1 H        0.925     0.025     2.660     2.551
    91   1 H        0.925     0.042     2.417     2.431
    92   1 H        0.924     0.035     2.516     2.480
    93   1 H        0.924     0.046     2.367     2.406
    94   1 H        0.925     0.045     2.387     2.416
    95   1 H        0.925     0.043     2.414     2.430
    96   1 H        0.925     0.034     2.526     2.485
    97   1 H        0.926     0.045     2.386     2.415
    98   1 H        0.926     0.044     2.395     2.420
    99   1 H        0.926     0.045     2.385     2.415
   100   1 H        0.926     0.040     2.445     2.445
   101   1 H        0.924     0.083     1.950     2.184
   102   1 H        0.925     0.096     1.825     2.112
   103   1 H        0.925     0.050     2.319     2.381
   104   1 H        0.925     0.071     2.072     2.251
   105   1 H        0.925     0.052     2.291     2.367
   106   1 H        0.924     0.084     1.935     2.175
   107   1 H        0.924     0.078     1.997     2.210
   108   1 H        0.925     0.074     2.037     2.232
   109   1 H        0.925     0.062     2.174     2.306
   110   1 H        0.925     0.063     2.169     2.303
   111   1 H        0.925     0.085     1.933     2.174
   112   1 H        0.924     0.097     1.814     2.107
   113   1 H        0.924     0.066     2.127     2.281
   114   1 H        0.925     0.076     2.017     2.221
   115   1 H        0.925     0.045     2.382     2.414
   116   1 H        0.925     0.063     2.168     2.303

 Mol. C6AA /au·bohr⁶  :     277164.053607
 Mol. C8AA /au·bohr⁸  :    8127277.746609
 Mol. α(0) /au        :        837.089778


Wiberg/Mayer (AO) data.
largest (>0.10) Wiberg bond orders for each atom

 ---------------------------------------------------------------------------
     #   Z sym  total        # sym  WBO       # sym  WBO       # sym  WBO
 ---------------------------------------------------------------------------
     1   6 C    3.937 --     2 C    1.441    21 C    1.353    82 H    0.933
     2   6 C    3.950 --     1 C    1.441    15 C    1.144     3 C    1.089
     3   6 C    3.923 --     4 O    1.681     2 C    1.089     5 C    1.016
     4   8 O    2.084 --     3 C    1.681    63 S    0.115
     5   6 C    3.970 --     6 C    1.385    14 C    1.272     3 C    1.016
     6   6 C    3.928 --     5 C    1.385     8 C    1.310     7 Cl   1.035
     7  17 Cl   1.202 --     6 C    1.035
     8   6 C    3.923 --    10 C    1.371     6 C    1.310     9 Cl   1.029
     9  17 Cl   1.189 --     8 C    1.029
    10   6 C    3.927 --     8 C    1.371    12 C    1.315    11 Cl   1.028
    11  17 Cl   1.186 --    10 C    1.028
    12   6 C    3.915 --    14 C    1.372    10 C    1.315    13 Cl   1.018
    13  17 Cl   1.191 --    12 C    1.018
    14   6 C    3.978 --    12 C    1.372     5 C    1.272    15 C    1.082
    15   6 C    3.961 --    16 C    1.471     2 C    1.144    14 C    1.082
    16   6 C    3.949 --    15 C    1.471    19 C    1.099    17 C    1.096
    17   6 C    3.942 --    18 N    2.748    16 C    1.096
    18   7 N    2.964 --    17 C    2.748
    19   6 C    3.940 --    20 N    2.751    16 C    1.099
    20   7 N    2.957 --    19 C    2.751
    21   6 C    3.931 --     1 C    1.353    22 C    1.291    63 S    1.076
    22   6 C    3.964 --    31 C    1.373    21 C    1.291    23 C    1.025
    23   6 C    3.984 --    24 C    1.387    28 C    1.366    22 C    1.025
                            26 C    0.104
    24   6 C    3.987 --    25 C    1.447    23 C    1.387    83 H    0.970
                            27 C    0.108
    25   6 C    3.989 --    24 C    1.447    26 C    1.430    84 H    0.969
                            28 C    0.106
    26   6 C    3.986 --    27 C    1.446    25 C    1.430    85 H    0.970
                            23 C    0.104
    27   6 C    3.989 --    26 C    1.446    28 C    1.413    86 H    0.966
                            24 C    0.108
    28   6 C    3.983 --    27 C    1.413    23 C    1.366    29 C    1.014
                            25 C    0.106
    29   6 C    3.995 --    28 C    1.014    30 C    1.000    87 H    0.974
                            88 H    0.967
    30   6 C    3.995 --    29 C    1.000    90 H    0.987    91 H    0.987
                            89 H    0.985
    31   6 C    3.927 --    22 C    1.373    62 C    1.270    32 S    1.078
    32  16 S    2.506 --    33 C    1.114    31 C    1.078
    33   6 C    3.912 --    61 C    1.291    34 C    1.283    32 S    1.114
    34   6 C    3.952 --    33 C    1.283    59 C    1.259    35 C    1.171
    35   6 C    3.970 --    39 N    1.426    34 C    1.171    36 C    1.164
                            38 S    0.106
    36   6 C    3.969 --    37 N    1.427    40 C    1.170    35 C    1.164
                            38 S    0.106
    37   7 N    3.060 --    36 C    1.427    38 S    1.380    39 N    0.143
    38  16 S    3.095 --    39 N    1.381    37 N    1.380    35 C    0.106
                            36 C    0.106
    39   7 N    3.060 --    35 C    1.426    38 S    1.381    37 N    0.143
    40   6 C    3.951 --    41 C    1.286    58 C    1.257    36 C    1.170
    41   6 C    3.914 --    56 C    1.293    40 C    1.286    42 S    1.110
    42  16 S    2.501 --    41 C    1.110    43 C    1.081
    43   6 C    3.927 --    44 C    1.346    55 C    1.292    42 S    1.081
    44   6 C    3.964 --    43 C    1.346    53 C    1.332    45 C    1.017
    45   6 C    3.985 --    52 C    1.398    46 C    1.367    44 C    1.017
                            50 C    0.106
    46   6 C    3.984 --    49 C    1.415    45 C    1.367    47 C    1.013
                            51 C    0.107
    47   6 C    3.996 --    46 C    1.013    48 C    0.999    93 H    0.974
                            92 H    0.970
    48   6 C    3.995 --    47 C    0.999    95 H    0.988    96 H    0.986
                            94 H    0.985
    49   6 C    3.990 --    50 C    1.445    46 C    1.415    97 H    0.967
                            52 C    0.109
    50   6 C    3.988 --    49 C    1.445    51 C    1.433    98 H    0.970
                            45 C    0.106
    51   6 C    3.989 --    52 C    1.444    50 C    1.433    99 H    0.969
                            46 C    0.107
    52   6 C    3.988 --    51 C    1.444    45 C    1.398   100 H    0.970
                            49 C    0.109
    53   6 C    3.931 --    44 C    1.332    68 C    1.297    54 S    1.082
    54  16 S    2.702 --    55 C    1.156    53 C    1.082    81 O    0.105
    55   6 C    3.944 --    43 C    1.292    56 C    1.252    54 S    1.156
    56   6 C    3.939 --    41 C    1.293    55 C    1.252    57 N    1.168
    57   7 N    3.579 --    58 C    1.192    56 C    1.168    66 C    0.972
    58   6 C    3.932 --    40 C    1.257    59 C    1.221    57 N    1.192
    59   6 C    3.928 --    34 C    1.259    58 C    1.221    60 N    1.187
    60   7 N    3.556 --    59 C    1.187    61 C    1.155    64 C    0.966
    61   6 C    3.941 --    33 C    1.291    62 C    1.268    60 N    1.155
    62   6 C    3.939 --    31 C    1.270    61 C    1.268    63 S    1.162
    63  16 S    2.708 --    62 C    1.162    21 C    1.076     4 O    0.115
    64   6 C    3.944 --    65 C    1.004    60 N    0.966   101 H    0.963
                           102 H    0.955
    65   6 C    3.985 --    64 C    1.004   105 H    0.986   103 H    0.984
                           104 H    0.980
    66   6 C    3.948 --    67 C    1.006    57 N    0.972   106 H    0.963
                           107 H    0.960
    67   6 C    3.982 --    66 C    1.006   108 H    0.980   109 H    0.978
                           110 H    0.977
    68   6 C    3.952 --    69 C    1.510    53 C    1.297   111 H    0.946
    69   6 C    3.908 --    68 C    1.510    80 C    1.111    70 S    1.049
    70  16 S    2.505 --    71 C    1.122    69 C    1.049
    71   6 C    3.949 --    72 C    1.400    77 N    1.211    70 S    1.122
    72   6 C    3.930 --    71 C    1.400    73 C    1.120    75 C    1.107
    73   6 C    3.946 --    74 N    2.732    72 C    1.120
    74   7 N    2.968 --    73 C    2.732
    75   6 C    3.944 --    76 N    2.751    72 C    1.107
    76   7 N    2.973 --    75 C    2.751
    77   7 N    3.598 --    71 C    1.211    80 C    1.109    78 C    0.958
                            81 O    0.117
    78   6 C    3.943 --    79 C    1.007   113 H    0.961   112 H    0.959
                            77 N    0.958
    79   6 C    3.987 --    78 C    1.007   116 H    0.985   115 H    0.985
                           114 H    0.978
    80   6 C    3.932 --    81 O    1.590    69 C    1.111    77 N    1.109
    81   8 O    2.038 --    80 C    1.590    77 N    0.117    54 S    0.105
    82   1 H    0.993 --     1 C    0.933
    83   1 H    0.998 --    24 C    0.970
    84   1 H    0.996 --    25 C    0.969
    85   1 H    0.997 --    26 C    0.970
    86   1 H    0.996 --    27 C    0.966
    87   1 H    0.997 --    29 C    0.974
    88   1 H    0.998 --    29 C    0.967
    89   1 H    0.997 --    30 C    0.985
    90   1 H    0.999 --    30 C    0.987
    91   1 H    0.998 --    30 C    0.987
    92   1 H    0.999 --    47 C    0.970
    93   1 H    0.997 --    47 C    0.974
    94   1 H    0.997 --    48 C    0.985
    95   1 H    0.998 --    48 C    0.988
    96   1 H    0.999 --    48 C    0.986
    97   1 H    0.997 --    49 C    0.967
    98   1 H    0.997 --    50 C    0.970
    99   1 H    0.996 --    51 C    0.969
   100   1 H    0.998 --    52 C    0.970
   101   1 H    0.991 --    64 C    0.963
   102   1 H    0.990 --    64 C    0.955
   103   1 H    0.997 --    65 C    0.984
   104   1 H    0.994 --    65 C    0.980
   105   1 H    0.997 --    65 C    0.986
   106   1 H    0.992 --    66 C    0.963
   107   1 H    0.991 --    66 C    0.960
   108   1 H    0.994 --    67 C    0.980
   109   1 H    0.996 --    67 C    0.978
   110   1 H    0.996 --    67 C    0.977
   111   1 H    0.992 --    68 C    0.946
   112   1 H    0.990 --    78 C    0.959
   113   1 H    0.995 --    78 C    0.961
   114   1 H    0.993 --    79 C    0.978
   115   1 H    0.998 --    79 C    0.985
   116   1 H    0.996 --    79 C    0.985
 ---------------------------------------------------------------------------

Topologies differ in bond orders
Writing corrected topology to xtbtopo.mol

molecular dipole:
                 x           y           z       tot (Debye)
 q only:       -0.809       2.220       1.665
   full:       -0.793       1.494       1.286       5.401
molecular quadrupole (traceless):
                xx          xy          yy          xz          yz          zz
 q only:     -138.358       4.388      96.456    -110.814     -41.077      41.901
  q+dip:     -163.123      22.024     114.216    -105.393     -29.613      48.907
   full:     -165.353      23.903     115.412    -108.102     -36.695      49.942


           -------------------------------------------------
          | TOTAL ENERGY             -218.493517284003 Eh   |
          | GRADIENT NORM               0.035302324070 Eh/α |
          | HOMO-LUMO GAP               0.823518951655 eV   |
           -------------------------------------------------

------------------------------------------------------------------------
 * finished run on 2022/02/10 at 19:36:04.570     
------------------------------------------------------------------------
 total:
 * wall-time:     0 d,  0 h,  0 min,  0.424 sec
 *  cpu-time:     0 d,  0 h,  0 min,  3.292 sec
 * ratio c/w:     7.767 speedup
 SCF:
 * wall-time:     0 d,  0 h,  0 min,  0.364 sec
 *  cpu-time:     0 d,  0 h,  0 min,  2.903 sec
 * ratio c/w:     7.965 speedup

