      -----------------------------------------------------------      
     |                   =====================                   |     
     |                           x T B                           |     
     |                   =====================                   |     
     |                         S. Grimme                         |     
     |          Mulliken Center for Theoretical Chemistry        |     
     |                    University of Bonn                     |     
      -----------------------------------------------------------      

   * xtb version 6.4.1 (unknown) compiled by 'oda6@login1.crc.pitt.edu' on 2021-06-25

   xtb is free software: you can redistribute it and/or modify it under
   the terms of the GNU Lesser General Public License as published by
   the Free Software Foundation, either version 3 of the License, or
   (at your option) any later version.
   
   xtb is distributed in the hope that it will be useful,
   but WITHOUT ANY WARRANTY; without even the implied warranty of
   MERCHANTABILITY or FITNESS FOR A PARTICULAR PURPOSE.  See the
   GNU Lesser General Public License for more details.
   
   Cite this work as:
   * C. Bannwarth, E. Caldeweyher, S. Ehlert, A. Hansen, P. Pracht,
     J. Seibert, S. Spicher, S. Grimme, WIREs Comput. Mol. Sci., 2020, 11,
     e01493. DOI: 10.1002/wcms.1493
   
   for GFN2-xTB:
   * C. Bannwarth, S. Ehlert and S. Grimme., J. Chem. Theory Comput., 2019,
     15, 1652-1671. DOI: 10.1021/acs.jctc.8b01176
   for GFN1-xTB:
   * S. Grimme, C. Bannwarth, P. Shushkov, J. Chem. Theory Comput., 2017,
     13, 1989-2009. DOI: 10.1021/acs.jctc.7b00118
   for GFN0-xTB:
   * P. Pracht, E. Caldeweyher, S. Ehlert, S. Grimme, ChemRxiv, 2019, preprint.
     DOI: 10.26434/chemrxiv.8326202.v1
   for GFN-FF:
   * S. Spicher and S. Grimme, Angew. Chem. Int. Ed., 2020, 59, 15665-15673.
     DOI: 10.1002/anie.202004239
   
   for DFT-D4:
   * E. Caldeweyher, C. Bannwarth and S. Grimme, J. Chem. Phys., 2017,
     147, 034112. DOI: 10.1063/1.4993215
   * E. Caldeweyher, S. Ehlert, A. Hansen, H. Neugebauer, S. Spicher,
     C. Bannwarth and S. Grimme, J. Chem. Phys., 2019, 150, 154122.
     DOI: 10.1063/1.5090222
   * E. Caldeweyher, J.-M. Mewes, S. Ehlert and S. Grimme, Phys. Chem. Chem. Phys.
     2020, 22, 8499-8512. DOI: 10.1039/D0CP00502A
   
   for sTDA-xTB:
   * S. Grimme and C. Bannwarth, J. Chem. Phys., 2016, 145, 054103.
     DOI: 10.1063/1.4959605
   
   in the mass-spec context:
   * V. Asgeirsson, C. Bauer and S. Grimme, Chem. Sci., 2017, 8, 4879.
     DOI: 10.1039/c7sc00601b
   * J. Koopman and S. Grimme, ACS Omega 2019, 4, 12, 15120-15133.
     DOI: 10.1021/acsomega.9b02011
   
   for metadynamics refer to:
   * S. Grimme, J. Chem. Theory Comput., 2019, 155, 2847-2862
     DOI: 10.1021/acs.jctc.9b00143
   
   for SPH calculations refer to:
   * S. Spicher and S. Grimme, J. Chem. Theory Comput., 2021, 17, 1701-1714
     DOI: 10.1021/acs.jctc.0c01306
   
   with help from (in alphabetical order)
   P. Atkinson, C. Bannwarth, F. Bohle, G. Brandenburg, E. Caldeweyher
   M. Checinski, S. Dohm, S. Ehlert, S. Ehrlich, I. Gerasimov, J. Koopman
   C. Lavigne, S. Lehtola, F. März, M. Müller, F. Musil, H. Neugebauer
   J. Pisarek, C. Plett, P. Pracht, J. Seibert, P. Shushkov, S. Spicher
   M. Stahn, M. Steiner, T. Strunk, J. Stückrath, T. Rose, and J. Unsleber
   
 * started run on 2022/02/01 at 18:39:31.893     

           -------------------------------------------------
          |                Calculation Setup                |
           -------------------------------------------------

          program call               : /ihome/ghutchison/oda6/xtb/xtb-641/bin/xtb ../../GFN2_output/66_39_39.mol --sp --alpb water
          hostname                   : smp-n66
          coordinate file            : ../../GFN2_output/66_39_39.mol
          omp threads                :                     8
          number of atoms            :                   197
          number of electrons        :                   590
          charge                     :                     0
          spin                       :                   0.0
          first test random number   :      0.10014979891141

   ID    Z sym.   atoms
    1    6 C      1-3, 5-9, 11, 13-19, 21, 23-26, 28-30, 32-39, 42-84, 86-90,
                  92-94, 96, 97, 99-101, 103-111, 113, 115-121
    2    8 O      4, 27, 41, 85, 91, 102
    3    9 F      10, 12
    4    7 N      20, 22, 112, 114
    5   16 S      31, 40, 95, 98
    6    1 H      122-197

           -------------------------------------------------
          |                 G F N 2 - x T B                 |
           -------------------------------------------------

        Reference                      10.1021/acs.jctc.8b01176
      * Hamiltonian:
        H0-scaling (s, p, d)           1.850000    2.230000    2.230000
        zeta-weighting                 0.500000
      * Dispersion:
        s8                             2.700000
        a1                             0.520000
        a2                             5.000000
        s9                             5.000000
      * Repulsion:
        kExp                           1.500000    1.000000
        rExp                           1.000000
      * Coulomb:
        alpha                          2.000000
        third order                    shell-resolved
        anisotropic                    true
        a3                             3.000000
        a5                             4.000000
        cn-shift                       1.200000
        cn-exp                         4.000000
        max-rad                        5.000000

      * Solvation model:               ALPB
        Solvent                        water
        Parameter file                 internal GFN2-xTB/ALPB
        Dielectric constant                8.0200E+01
        Reference state                gsolv [1 M gas/solution]
        Free energy shift                  1.0808E-03 Eh       6.7819E-01 kcal/mol
        Temperature                        2.9815E+02 K
        Density                            1.0000E+00 kg/L
        Solvent mass                       1.8000E+01 g/mol
        Interaction kernel             P16
        Born radius scaling (c1)           1.4744E+00
        Born radii integrator          GBOBC
        Born offset                        0.0000E+00 a0       0.0000E+00 AA
        H-bond correction              true
        Ion screening                  false
        Surface tension                    1.0000E-05 Eh       1.5569E+01 dyn/cm
        Grid points                               230 per atom

          ...................................................
          :                      SETUP                      :
          :.................................................:
          :  # basis functions                 584          :
          :  # atomic orbitals                 580          :
          :  # shells                          322          :
          :  # electrons                       590          :
          :  max. iterations                   250          :
          :  Hamiltonian                  GFN2-xTB          :
          :  restarted?                      false          :
          :  GBSA solvation                   true          :
          :  PC potential                    false          :
          :  electronic temp.          300.0000000     K    :
          :  accuracy                    1.0000000          :
          :  -> integral cutoff          0.2500000E+02      :
          :  -> integral neglect         0.1000000E-07      :
          :  -> SCF convergence          0.1000000E-05 Eh   :
          :  -> wf. convergence          0.1000000E-03 e    :
          :  Broyden damping             0.4000000          :
          ...................................................

 iter      E             dE          RMSdq      gap      omega  full diag
   1   -327.0765138 -0.327077E+03  0.449E+00    0.62       0.0  T
   2   -327.2554112 -0.178897E+00  0.261E+00    0.68       1.0  T
   3   -327.0776887  0.177722E+00  0.127E+00    0.49       1.0  T
   4   -327.3023550 -0.224666E+00  0.390E-01    0.55       1.0  T
   5   -327.3178446 -0.154896E-01  0.129E-01    0.54       1.0  T
   6   -327.3188744 -0.102986E-02  0.648E-02    0.57       1.0  T
   7   -327.3190806 -0.206200E-03  0.303E-02    0.55       1.0  T
   8   -327.3191815 -0.100890E-03  0.125E-02    0.57       1.0  T
   9   -327.3191892 -0.771170E-05  0.630E-03    0.56       1.1  T
  10   -327.3191916 -0.239354E-05  0.319E-03    0.56       2.2  T
  11   -327.3191921 -0.474001E-06  0.184E-03    0.56       3.9  T
  12   -327.3191922 -0.145929E-06  0.108E-03    0.56       6.6  T
  13   -327.3191923 -0.658553E-07  0.510E-04    0.56      14.0  T
  14   -327.3191923 -0.151649E-07  0.250E-04    0.56      28.5  T

   *** convergence criteria satisfied after 14 iterations ***

         #    Occupation            Energy/Eh            Energy/eV
      -------------------------------------------------------------
         1        2.0000           -0.8497242             -23.1222
       ...           ...                  ...                  ...
       289        2.0000           -0.3909360             -10.6379
       290        2.0000           -0.3899526             -10.6112
       291        2.0000           -0.3867311             -10.5235
       292        2.0000           -0.3839561             -10.4480
       293        2.0000           -0.3819551             -10.3935
       294        2.0000           -0.3611609              -9.8277
       295        2.0000           -0.3558939              -9.6844 (HOMO)
       296        0.0000           -0.3351594              -9.1202 (LUMO)
       297        0.0000           -0.3337845              -9.0827
       298                         -0.3197091              -8.6997
       299                         -0.3185991              -8.6695
       300                         -0.2960232              -8.0552
       ...                                ...                  ...
       580                          1.1520010              31.3475
      -------------------------------------------------------------
                  HL-Gap            0.0207345 Eh            0.5642 eV
             Fermi-level           -0.3456252 Eh           -9.4049 eV

 SCC (total)                   0 d,  0 h,  0 min,  0.619 sec
 SCC setup                      ...        0 min,  0.006 sec (  0.992%)
 Dispersion                     ...        0 min,  0.010 sec (  1.568%)
 classical contributions        ...        0 min,  0.000 sec (  0.059%)
 integral evaluation            ...        0 min,  0.032 sec (  5.128%)
 iterations                     ...        0 min,  0.461 sec ( 74.360%)
 molecular gradient             ...        0 min,  0.108 sec ( 17.440%)
 printout                       ...        0 min,  0.003 sec (  0.440%)

         :::::::::::::::::::::::::::::::::::::::::::::::::::::
         ::                     SUMMARY                     ::
         :::::::::::::::::::::::::::::::::::::::::::::::::::::
         :: total energy            -322.107143083037 Eh    ::
         :: total w/o Gsasa/hb      -322.085652092022 Eh    ::
         :: gradient norm              0.038115326674 Eh/a0 ::
         :: HOMO-LUMO gap              0.564214939972 eV    ::
         ::.................................................::
         :: SCC energy              -327.319192313384 Eh    ::
         :: -> isotropic ES            0.215977267766 Eh    ::
         :: -> anisotropic ES          0.017248584887 Eh    ::
         :: -> anisotropic XC          0.172202013561 Eh    ::
         :: -> dispersion             -0.312494104308 Eh    ::
         :: -> Gsolv                  -0.057202025426 Eh    ::
         ::    -> Gelec               -0.035711034411 Eh    ::
         ::    -> Gsasa               -0.014140811859 Eh    ::
         ::    -> Ghb                 -0.008430938854 Eh    ::
         ::    -> Gshift               0.001080759698 Eh    ::
         :: repulsion energy           5.205182301651 Eh    ::
         :: add. restraining           0.000000000000 Eh    ::
         :: total charge              -0.000000000000 e     ::
         :::::::::::::::::::::::::::::::::::::::::::::::::::::

           -------------------------------------------------
          |                Property Printout                |
           -------------------------------------------------

    * Orbital Energies and Occupations

         #    Occupation            Energy/Eh            Energy/eV
      -------------------------------------------------------------
         1        2.0000           -0.8497242             -23.1222
       ...           ...                  ...                  ...
       283        2.0000           -0.4016713             -10.9300
       284        2.0000           -0.4003867             -10.8951
       285        2.0000           -0.4000941             -10.8871
       286        2.0000           -0.3992576             -10.8644
       287        2.0000           -0.3981474             -10.8341
       288        2.0000           -0.3926829             -10.6854
       289        2.0000           -0.3909360             -10.6379
       290        2.0000           -0.3899526             -10.6112
       291        2.0000           -0.3867311             -10.5235
       292        2.0000           -0.3839561             -10.4480
       293        2.0000           -0.3819551             -10.3935
       294        2.0000           -0.3611609              -9.8277
       295        2.0000           -0.3558939              -9.6844 (HOMO)
       296        0.0000           -0.3351594              -9.1202 (LUMO)
       297        0.0000           -0.3337845              -9.0827
       298                         -0.3197091              -8.6997
       299                         -0.3185991              -8.6695
       300                         -0.2960232              -8.0552
       301                         -0.2847374              -7.7481
       302                         -0.2666723              -7.2565
       303                         -0.2548463              -6.9347
       304                         -0.2528126              -6.8794
       305                         -0.2503934              -6.8136
       306                         -0.2470497              -6.7226
       ...                                ...                  ...
       580                          1.1520010              31.3475
      -------------------------------------------------------------
                  HL-Gap            0.0207345 Eh            0.5642 eV
             Fermi-level           -0.3456252 Eh           -9.4049 eV

     #   Z          covCN         q      C6AA      α(0)
     1   6 C        2.959    -0.012    28.317     8.728
     2   6 C        3.000    -0.037    28.900     8.819
     3   6 C        2.863     0.232    23.153     7.887
     4   8 O        0.856    -0.425    22.186     6.315
     5   6 C        3.037    -0.016    28.384     8.738
     6   6 C        2.913    -0.018    28.457     8.747
     7   6 C        2.989     0.023    27.492     8.601
     8   6 C        2.919    -0.055    29.379     8.888
     9   6 C        2.775     0.165    24.430     8.095
    10   9 F        0.787    -0.230    11.551     4.015
    11   6 C        2.775     0.165    24.423     8.094
    12   9 F        0.787    -0.230    11.554     4.015
    13   6 C        2.920    -0.055    29.374     8.888
    14   6 C        2.988     0.023    27.479     8.599
    15   6 C        2.916    -0.027    28.675     8.781
    16   6 C        3.022     0.010    27.769     8.644
    17   6 C        3.017     0.036    27.182     8.552
    18   6 C        2.947    -0.000    28.030     8.683
    19   6 C        1.946     0.131    27.878     8.527
    20   7 N        0.911    -0.287    27.401     7.571
    21   6 C        1.949     0.133    27.823     8.518
    22   7 N        0.911    -0.285    27.350     7.564
    23   6 C        2.977     0.034    27.235     8.560
    24   6 C        3.061    -0.029    28.672     8.781
    25   6 C        3.150    -0.017    28.159     8.680
    26   6 C        2.861     0.139    24.957     8.188
    27   8 O        1.706    -0.261    18.333     5.781
    28   6 C        3.685     0.066    19.661     6.348
    29   6 C        3.750    -0.129    23.034     6.845
    30   6 C        2.998    -0.013    28.323     8.730
    31  16 S        2.207    -0.040   142.719    20.107
    32   6 C        3.080     0.022    27.427     8.586
    33   6 C        3.045     0.000    27.982     8.676
    34   6 C        3.089     0.005    27.808     8.644
    35   6 C        3.954     0.019    20.191     6.385
    36   6 C        3.195    -0.004    27.603     8.566
    37   6 C        3.109    -0.016    28.263     8.710
    38   6 C        2.860     0.129    25.173     8.224
    39   6 C        2.988    -0.002    28.077     8.692
    40  16 S        2.310    -0.067   143.839    20.186
    41   8 O        1.705    -0.270    18.471     5.803
    42   6 C        3.688     0.072    19.560     6.331
    43   6 C        3.750    -0.122    22.911     6.826
    44   6 C        2.975     0.014    27.707     8.634
    45   6 C        2.924    -0.040    29.000     8.831
    46   6 C        2.925    -0.043    29.080     8.843
    47   6 C        2.970     0.012    27.754     8.641
    48   6 C        3.806    -0.064    21.717     6.634
    49   6 C        3.754    -0.106    22.586     6.777
    50   6 C        2.926    -0.042    29.052     8.839
    51   6 C        2.923    -0.036    28.908     8.817
    52   6 C        2.977     0.017    27.636     8.623
    53   6 C        2.924    -0.037    28.924     8.820
    54   6 C        2.924    -0.043    29.070     8.842
    55   6 C        2.970     0.011    27.762     8.643
    56   6 C        3.806    -0.064    21.722     6.635
    57   6 C        3.753    -0.107    22.604     6.780
    58   6 C        2.926    -0.041    29.029     8.836
    59   6 C        2.921    -0.036    28.885     8.814
    60   6 C        2.909    -0.037    28.919     8.818
    61   6 C        3.044     0.002    27.941     8.670
    62   6 C        3.080     0.020    27.484     8.595
    63   6 C        3.191    -0.004    27.631     8.574
    64   6 C        3.955     0.019    20.186     6.384
    65   6 C        3.085     0.005    27.826     8.647
    66   6 C        2.909    -0.038    28.955     8.823
    67   6 C        2.979     0.013    27.721     8.637
    68   6 C        2.922    -0.036    28.894     8.815
    69   6 C        2.926    -0.043    29.067     8.841
    70   6 C        2.970     0.011    27.770     8.644
    71   6 C        3.806    -0.063    21.712     6.633
    72   6 C        3.754    -0.107    22.598     6.779
    73   6 C        2.925    -0.043    29.077     8.843
    74   6 C        2.924    -0.041    29.013     8.833
    75   6 C        2.978     0.015    27.681     8.630
    76   6 C        2.923    -0.034    28.840     8.807
    77   6 C        2.925    -0.041    29.028     8.835
    78   6 C        2.971     0.011    27.771     8.644
    79   6 C        3.806    -0.064    21.719     6.634
    80   6 C        3.754    -0.106    22.588     6.777
    81   6 C        2.925    -0.043    29.067     8.841
    82   6 C        2.923    -0.038    28.954     8.824
    83   6 C        3.105    -0.022    28.417     8.735
    84   6 C        2.860     0.132    25.119     8.215
    85   8 O        1.705    -0.265    18.396     5.791
    86   6 C        3.688     0.073    19.543     6.327
    87   6 C        3.750    -0.125    22.958     6.833
    88   6 C        2.991    -0.005    28.149     8.703
    89   6 C        3.154    -0.021    28.229     8.689
    90   6 C        2.866     0.126    25.240     8.235
    91   8 O        1.705    -0.292    18.862     5.864
    92   6 C        3.687     0.071    19.575     6.334
    93   6 C        3.750    -0.117    22.813     6.812
    94   6 C        3.004    -0.010    28.256     8.720
    95  16 S        2.205    -0.063   143.655    20.173
    96   6 C        3.079    -0.038    28.848     8.806
    97   6 C        2.984     0.028    27.369     8.582
    98  16 S        2.291    -0.037   142.604    20.099
    99   6 C        2.931    -0.010    28.262     8.719
   100   6 C        3.009    -0.033    28.815     8.805
   101   6 C        2.869     0.234    23.115     7.881
   102   8 O        0.856    -0.425    22.189     6.316
   103   6 C        3.057    -0.021    28.473     8.751
   104   6 C        2.904    -0.024    28.596     8.768
   105   6 C        3.258     0.016    26.513     8.323
   106   6 C        3.258     0.017    26.506     8.323
   107   6 C        2.904    -0.032    28.800     8.800
   108   6 C        3.049     0.007    27.821     8.651
   109   6 C        3.017     0.043    27.023     8.527
   110   6 C        2.947     0.002    27.982     8.676
   111   6 C        1.942     0.132    27.850     8.522
   112   7 N        0.911    -0.285    27.347     7.563
   113   6 C        1.942     0.134    27.818     8.518
   114   7 N        0.911    -0.279    27.208     7.544
   115   6 C        4.162    -0.028    20.982     6.506
   116   6 C        4.011    -0.016    20.790     6.477
   117   6 C        2.987    -0.043    29.058     8.843
   118   6 C        2.987    -0.043    29.059     8.843
   119   6 C        4.011    -0.016    20.788     6.477
   120   6 C        3.927    -0.066    21.701     6.621
   121   6 C        4.162    -0.028    20.980     6.505
   122   1 H        0.925     0.068     2.110     2.271
   123   1 H        0.926     0.085     1.928     2.171
   124   1 H        0.926     0.107     1.726     2.055
   125   1 H        0.926     0.103     1.761     2.075
   126   1 H        0.926     0.070     2.084     2.257
   127   1 H        0.926     0.100     1.786     2.090
   128   1 H        0.924     0.060     2.201     2.320
   129   1 H        0.924     0.079     1.985     2.204
   130   1 H        0.925     0.052     2.300     2.372
   131   1 H        0.925     0.070     2.083     2.257
   132   1 H        0.925     0.060     2.204     2.322
   133   1 H        0.924     0.070     2.084     2.257
   134   1 H        0.924     0.052     2.299     2.371
   135   1 H        0.925     0.062     2.170     2.304
   136   1 H        0.925     0.056     2.248     2.345
   137   1 H        0.925     0.046     2.372     2.409
   138   1 H        0.926     0.039     2.458     2.452
   139   1 H        0.926     0.038     2.474     2.460
   140   1 H        0.924     0.042     2.425     2.435
   141   1 H        0.924     0.042     2.422     2.434
   142   1 H        0.925     0.043     2.406     2.426
   143   1 H        0.925     0.038     2.475     2.460
   144   1 H        0.925     0.038     2.471     2.458
   145   1 H        0.926     0.034     2.525     2.485
   146   1 H        0.926     0.029     2.604     2.523
   147   1 H        0.925     0.018     2.760     2.598
   148   1 H        0.926     0.033     2.543     2.494
   149   1 H        0.924     0.044     2.399     2.422
   150   1 H        0.924     0.040     2.452     2.449
   151   1 H        0.925     0.043     2.413     2.429
   152   1 H        0.925     0.042     2.427     2.436
   153   1 H        0.925     0.038     2.481     2.463
   154   1 H        0.926     0.041     2.441     2.443
   155   1 H        0.926     0.037     2.486     2.466
   156   1 H        0.926     0.047     2.359     2.402
   157   1 H        0.926     0.054     2.269     2.356
   158   1 H        0.926     0.047     2.357     2.401
   159   1 H        0.926     0.039     2.456     2.451
   160   1 H        0.924     0.042     2.424     2.435
   161   1 H        0.924     0.040     2.452     2.449
   162   1 H        0.925     0.039     2.467     2.456
   163   1 H        0.925     0.040     2.446     2.446
   164   1 H        0.925     0.043     2.408     2.427
   165   1 H        0.926     0.034     2.526     2.485
   166   1 H        0.926     0.024     2.680     2.560
   167   1 H        0.926     0.018     2.768     2.602
   168   1 H        0.926     0.032     2.563     2.503
   169   1 H        0.924     0.040     2.448     2.447
   170   1 H        0.924     0.044     2.394     2.420
   171   1 H        0.925     0.040     2.448     2.447
   172   1 H        0.925     0.043     2.412     2.429
   173   1 H        0.925     0.036     2.505     2.475
   174   1 H        0.926     0.041     2.431     2.438
   175   1 H        0.926     0.040     2.447     2.446
   176   1 H        0.924     0.053     2.283     2.363
   177   1 H        0.924     0.070     2.083     2.257
   178   1 H        0.925     0.064     2.156     2.296
   179   1 H        0.925     0.054     2.270     2.356
   180   1 H        0.925     0.053     2.285     2.364
   181   1 H        0.924     0.056     2.250     2.346
   182   1 H        0.924     0.074     2.042     2.235
   183   1 H        0.925     0.071     2.073     2.252
   184   1 H        0.925     0.043     2.407     2.426
   185   1 H        0.925     0.041     2.430     2.438
   186   1 H        0.926     0.054     2.269     2.356
   187   1 H        0.925     0.087     1.910     2.161
   188   1 H        0.926     0.069     2.096     2.264
   189   1 H        0.926     0.059     2.209     2.324
   190   1 H        0.925     0.063     2.162     2.299
   191   1 H        0.925     0.046     2.370     2.408
   192   1 H        0.926     0.031     2.567     2.505
   193   1 H        0.926     0.031     2.567     2.505
   194   1 H        0.925     0.046     2.372     2.408
   195   1 H        0.925     0.051     2.309     2.376
   196   1 H        0.925     0.050     2.319     2.381
   197   1 H        0.925     0.064     2.156     2.296

 Mol. C6AA /au·bohr⁶  :     571481.848491
 Mol. C8AA /au·bohr⁸  :   15033383.675974
 Mol. α(0) /au        :       1196.429904


Wiberg/Mayer (AO) data.
largest (>0.10) Wiberg bond orders for each atom

 ---------------------------------------------------------------------------
     #   Z sym  total        # sym  WBO       # sym  WBO       # sym  WBO
 ---------------------------------------------------------------------------
     1   6 C    3.934 --     2 C    1.488    23 C    1.287   122 H    0.943
     2   6 C    3.941 --     1 C    1.488    17 C    1.150     3 C    1.053
     3   6 C    3.911 --     4 O    1.718     2 C    1.053     5 C    1.021
     4   8 O    2.009 --     3 C    1.718
     5   6 C    3.979 --     6 C    1.525    16 C    1.205     3 C    1.021
     6   6 C    3.970 --     5 C    1.525     7 C    1.268   123 H    0.960
     7   6 C    3.979 --     8 C    1.289     6 C    1.268    14 C    1.242
     8   6 C    3.970 --     9 C    1.495     7 C    1.289   124 H    0.956
                            13 C    0.108
     9   6 C    3.866 --     8 C    1.495    11 C    1.252    10 F    0.956
    10   9 F    1.083 --     9 C    0.956
    11   6 C    3.870 --    13 C    1.497     9 C    1.252    12 F    0.956
    12   9 F    1.083 --    11 C    0.956
    13   6 C    3.969 --    11 C    1.497    14 C    1.285   125 H    0.957
                             8 C    0.108
    14   6 C    3.984 --    13 C    1.285    15 C    1.274     7 C    1.242
    15   6 C    3.963 --    16 C    1.501    14 C    1.274   126 H    0.956
    16   6 C    3.981 --    15 C    1.501     5 C    1.205    17 C    1.086
    17   6 C    3.957 --    18 C    1.460     2 C    1.150    16 C    1.086
    18   6 C    3.925 --    17 C    1.460    19 C    1.103    21 C    1.103
    19   6 C    3.940 --    20 N    2.735    18 C    1.103
    20   7 N    2.947 --    19 C    2.735
    21   6 C    3.939 --    22 N    2.744    18 C    1.103
    22   7 N    2.953 --    21 C    2.744
    23   6 C    3.935 --    24 C    1.433     1 C    1.287    40 S    1.055
    24   6 C    3.932 --    23 C    1.433    25 C    1.319   127 H    0.939
    25   6 C    3.961 --    24 C    1.319    39 C    1.216    26 C    1.202
    26   6 C    3.911 --    30 C    1.383    25 C    1.202    27 O    1.105
    27   8 O    2.259 --    26 C    1.105    28 C    0.944
    28   6 C    3.920 --    29 C    1.009   129 H    0.965   128 H    0.954
                            27 O    0.944
    29   6 C    3.985 --    28 C    1.009   132 H    0.985   130 H    0.983
                           131 H    0.981
    30   6 C    3.939 --    26 C    1.383    37 C    1.232    31 S    1.075
    31  16 S    2.516 --    32 C    1.121    30 C    1.075
    32   6 C    3.909 --    36 C    1.461    33 C    1.141    31 S    1.121
    33   6 C    3.960 --    66 C    1.349    34 C    1.286    32 C    1.141
    34   6 C    3.965 --    60 C    1.465    33 C    1.286    35 C    0.963
    35   6 C    3.986 --    36 C    0.978    34 C    0.963    52 C    0.957
                            44 C    0.949
    36   6 C    3.939 --    32 C    1.461    37 C    1.246    35 C    0.978
    37   6 C    3.955 --    36 C    1.246    30 C    1.232    38 C    1.231
    38   6 C    3.922 --    39 C    1.381    37 C    1.231    41 O    1.081
    39   6 C    3.945 --    38 C    1.381    25 C    1.216    40 S    1.099
    40  16 S    2.483 --    39 C    1.099    23 C    1.055
    41   8 O    2.237 --    38 C    1.081    42 C    0.951
    42   6 C    3.929 --    43 C    1.011   133 H    0.965   134 H    0.954
                            41 O    0.951
    43   6 C    3.988 --    42 C    1.011   137 H    0.983   135 H    0.982
                           136 H    0.980
    44   6 C    3.982 --    51 C    1.414    45 C    1.401    35 C    0.949
                            47 C    0.106
    45   6 C    3.989 --    46 C    1.452    44 C    1.401   138 H    0.963
                            50 C    0.109
    46   6 C    3.989 --    45 C    1.452    47 C    1.406   139 H    0.968
                            51 C    0.107
    47   6 C    3.986 --    50 C    1.413    46 C    1.406    48 C    1.013
                            44 C    0.106
    48   6 C    3.996 --    47 C    1.013    49 C    1.000   141 H    0.974
                           140 H    0.973
    49   6 C    3.995 --    48 C    1.000   144 H    0.988   143 H    0.988
                           142 H    0.986
    50   6 C    3.990 --    51 C    1.444    47 C    1.413   145 H    0.969
                            45 C    0.109
    51   6 C    3.990 --    50 C    1.444    44 C    1.414   146 H    0.964
                            46 C    0.107
    52   6 C    3.983 --    59 C    1.413    53 C    1.403    35 C    0.957
                            55 C    0.106
    53   6 C    3.991 --    54 C    1.453    52 C    1.403   147 H    0.969
                            58 C    0.110
    54   6 C    3.990 --    53 C    1.453    55 C    1.403   148 H    0.969
                            59 C    0.107
    55   6 C    3.986 --    58 C    1.411    54 C    1.403    56 C    1.013
                            52 C    0.106
    56   6 C    3.997 --    55 C    1.013    57 C    1.001   150 H    0.975
                           149 H    0.972
    57   6 C    3.995 --    56 C    1.001   153 H    0.988   152 H    0.987
                           151 H    0.986
    58   6 C    3.990 --    59 C    1.444    55 C    1.411   154 H    0.968
                            53 C    0.110
    59   6 C    3.989 --    58 C    1.444    52 C    1.413   155 H    0.964
                            54 C    0.107
    60   6 C    3.972 --    34 C    1.465    61 C    1.348   156 H    0.961
    61   6 C    3.958 --    60 C    1.348    65 C    1.285    62 C    1.140
    62   6 C    3.915 --    63 C    1.479    61 C    1.140    95 S    1.104
    63   6 C    3.947 --    62 C    1.479    83 C    1.227    64 C    0.972
    64   6 C    3.986 --    63 C    0.972    75 C    0.967    65 C    0.962
                            67 C    0.944
    65   6 C    3.968 --    66 C    1.467    61 C    1.285    64 C    0.962
    66   6 C    3.970 --    65 C    1.467    33 C    1.349   157 H    0.961
    67   6 C    3.981 --    68 C    1.411    74 C    1.406    64 C    0.944
                            70 C    0.106
    68   6 C    3.988 --    69 C    1.443    67 C    1.411   158 H    0.960
                            73 C    0.107
    69   6 C    3.989 --    68 C    1.443    70 C    1.412   159 H    0.968
                            74 C    0.109
    70   6 C    3.985 --    69 C    1.412    73 C    1.406    71 C    1.013
                            67 C    0.106
    71   6 C    3.997 --    70 C    1.013    72 C    1.000   161 H    0.974
                           160 H    0.973
    72   6 C    3.995 --    71 C    1.000   162 H    0.988   163 H    0.988
                           164 H    0.986
    73   6 C    3.990 --    74 C    1.453    70 C    1.406   165 H    0.969
                            68 C    0.107
    74   6 C    3.991 --    73 C    1.453    67 C    1.406   166 H    0.967
                            69 C    0.109
    75   6 C    3.984 --    76 C    1.413    82 C    1.399    64 C    0.967
                            78 C    0.105
    76   6 C    3.991 --    77 C    1.443    75 C    1.413   167 H    0.967
                            81 C    0.107
    77   6 C    3.991 --    76 C    1.443    78 C    1.410   168 H    0.969
                            82 C    0.108
    78   6 C    3.986 --    77 C    1.410    81 C    1.406    79 C    1.013
                            75 C    0.105
    79   6 C    3.997 --    78 C    1.013    80 C    1.000   169 H    0.974
                           170 H    0.974
    80   6 C    3.995 --    79 C    1.000   173 H    0.988   171 H    0.988
                           172 H    0.986
    81   6 C    3.989 --    82 C    1.451    78 C    1.406   174 H    0.968
                            76 C    0.107
    82   6 C    3.989 --    81 C    1.451    75 C    1.399   175 H    0.965
                            77 C    0.108
    83   6 C    3.963 --    84 C    1.247    94 C    1.238    63 C    1.227
    84   6 C    3.928 --    88 C    1.365    83 C    1.247    85 O    1.088
    85   8 O    2.248 --    84 C    1.088    86 C    0.949
    86   6 C    3.927 --    87 C    1.011   177 H    0.963   176 H    0.951
                            85 O    0.949
    87   6 C    3.987 --    86 C    1.011   178 H    0.982   180 H    0.981
                           179 H    0.980
    88   6 C    3.944 --    84 C    1.365    89 C    1.237    98 S    1.091
    89   6 C    3.968 --    96 C    1.263    90 C    1.241    88 C    1.237
    90   6 C    3.922 --    94 C    1.380    89 C    1.241    91 O    1.066
    91   8 O    2.206 --    90 C    1.066    92 C    0.946
    92   6 C    3.926 --    93 C    1.012   182 H    0.966   181 H    0.956
                            91 O    0.946
    93   6 C    3.990 --    92 C    1.012   185 H    0.986   184 H    0.984
                           183 H    0.981
    94   6 C    3.940 --    90 C    1.380    83 C    1.238    95 S    1.081
    95  16 S    2.504 --    62 C    1.104    94 C    1.081
    96   6 C    3.976 --    97 C    1.506    89 C    1.263   186 H    0.960
    97   6 C    3.939 --    96 C    1.506    99 C    1.191    98 S    1.072
    98  16 S    2.506 --    88 C    1.091    97 C    1.072
    99   6 C    3.941 --   100 C    1.589    97 C    1.191   187 H    0.949
   100   6 C    3.953 --    99 C    1.589   109 C    1.118   101 C    1.014
   101   6 C    3.913 --   102 O    1.738   103 C    1.033   100 C    1.014
   102   8 O    2.012 --   101 C    1.738
   103   6 C    3.971 --   104 C    1.378   108 C    1.295   101 C    1.033
   104   6 C    3.980 --   105 C    1.442   103 C    1.378   188 H    0.962
   105   6 C    3.951 --   104 C    1.442   106 C    1.318   121 C    0.998
   106   6 C    3.963 --   107 C    1.451   105 C    1.318   115 C    0.999
   107   6 C    3.978 --   106 C    1.451   108 C    1.363   189 H    0.959
   108   6 C    3.980 --   107 C    1.363   103 C    1.295   109 C    1.096
   109   6 C    3.971 --   110 C    1.477   100 C    1.118   108 C    1.096
   110   6 C    3.969 --   109 C    1.477   113 C    1.105   111 C    1.098
   111   6 C    3.941 --   112 N    2.746   110 C    1.098
   112   7 N    2.965 --   111 C    2.746
   113   6 C    3.942 --   114 N    2.746   110 C    1.105
   114   7 N    2.961 --   113 C    2.746
   115   6 C    3.983 --   106 C    0.999   121 C    0.977   190 H    0.956
                           116 C    0.945
   116   6 C    3.988 --   117 C    1.010   120 C    0.985   191 H    0.971
                           115 C    0.945
   117   6 C    3.987 --   118 C    1.924   116 C    1.010   192 H    0.971
   118   6 C    3.987 --   117 C    1.924   119 C    1.010   193 H    0.971
   119   6 C    3.987 --   118 C    1.010   120 C    0.985   194 H    0.971
                           121 C    0.945
   120   6 C    3.991 --   116 C    0.985   119 C    0.985   195 H    0.977
                           196 H    0.975
   121   6 C    3.981 --   105 C    0.998   115 C    0.977   197 H    0.956
                           119 C    0.945
   122   1 H    0.994 --     1 C    0.943
   123   1 H    0.992 --     6 C    0.960
   124   1 H    0.988 --     8 C    0.956
   125   1 H    0.989 --    13 C    0.957
   126   1 H    0.994 --    15 C    0.956
   127   1 H    0.989 --    24 C    0.939
   128   1 H    0.994 --    28 C    0.954
   129   1 H    0.993 --    28 C    0.965
   130   1 H    0.997 --    29 C    0.983
   131   1 H    0.994 --    29 C    0.981
   132   1 H    0.996 --    29 C    0.985
   133   1 H    0.994 --    42 C    0.965
   134   1 H    0.997 --    42 C    0.954
   135   1 H    0.996 --    43 C    0.982
   136   1 H    0.997 --    43 C    0.980
   137   1 H    0.998 --    43 C    0.983
   138   1 H    0.998 --    45 C    0.963
   139   1 H    0.998 --    46 C    0.968
   140   1 H    0.998 --    48 C    0.973
   141   1 H    0.998 --    48 C    0.974
   142   1 H    0.997 --    49 C    0.986
   143   1 H    0.999 --    49 C    0.988
   144   1 H    0.999 --    49 C    0.988
   145   1 H    0.998 --    50 C    0.969
   146   1 H    0.999 --    51 C    0.964
   147   1 H    0.999 --    53 C    0.969
   148   1 H    0.998 --    54 C    0.969
   149   1 H    0.998 --    56 C    0.972
   150   1 H    0.998 --    56 C    0.975
   151   1 H    0.997 --    57 C    0.986
   152   1 H    0.998 --    57 C    0.987
   153   1 H    0.999 --    57 C    0.988
   154   1 H    0.998 --    58 C    0.968
   155   1 H    0.998 --    59 C    0.964
   156   1 H    0.996 --    60 C    0.961
   157   1 H    0.996 --    66 C    0.961
   158   1 H    0.997 --    68 C    0.960
   159   1 H    0.998 --    69 C    0.968
   160   1 H    0.998 --    71 C    0.973
   161   1 H    0.998 --    71 C    0.974
   162   1 H    0.999 --    72 C    0.988
   163   1 H    0.998 --    72 C    0.988
   164   1 H    0.997 --    72 C    0.986
   165   1 H    0.998 --    73 C    0.969
   166   1 H    0.999 --    74 C    0.967
   167   1 H    0.999 --    76 C    0.967
   168   1 H    0.998 --    77 C    0.969
   169   1 H    0.998 --    79 C    0.974
   170   1 H    0.998 --    79 C    0.974
   171   1 H    0.998 --    80 C    0.988
   172   1 H    0.997 --    80 C    0.986
   173   1 H    0.999 --    80 C    0.988
   174   1 H    0.998 --    81 C    0.968
   175   1 H    0.998 --    82 C    0.965
   176   1 H    0.996 --    86 C    0.951
   177   1 H    0.994 --    86 C    0.963
   178   1 H    0.996 --    87 C    0.982
   179   1 H    0.997 --    87 C    0.980
   180   1 H    0.997 --    87 C    0.981
   181   1 H    0.996 --    92 C    0.956
   182   1 H    0.993 --    92 C    0.966
   183   1 H    0.995 --    93 C    0.981
   184   1 H    0.998 --    93 C    0.984
   185   1 H    0.998 --    93 C    0.986
   186   1 H    0.996 --    96 C    0.960
   187   1 H    0.989 --    99 C    0.949
   188   1 H    0.994 --   104 C    0.962
   189   1 H    0.996 --   107 C    0.959
   190   1 H    0.994 --   115 C    0.956
   191   1 H    0.998 --   116 C    0.971
   192   1 H    0.999 --   117 C    0.971
   193   1 H    0.999 --   118 C    0.971
   194   1 H    0.998 --   119 C    0.971
   195   1 H    0.997 --   120 C    0.977
   196   1 H    0.995 --   120 C    0.975
   197   1 H    0.994 --   121 C    0.956
 ---------------------------------------------------------------------------

Topologies differ in bond orders
Writing corrected topology to xtbtopo.mol

molecular dipole:
                 x           y           z       tot (Debye)
 q only:        5.652      -0.437       1.305
   full:        6.038      -0.374       1.000      15.585
molecular quadrupole (traceless):
                xx          xy          yy          xz          yz          zz
 q only:     -222.180      96.701     156.578      -2.237      43.978      65.603
  q+dip:     -204.220     106.128     142.245      16.465      34.933      61.975
   full:     -208.430     107.503     148.215      15.968      28.853      60.215


           -------------------------------------------------
          | TOTAL ENERGY             -322.107143083037 Eh   |
          | GRADIENT NORM               0.038115326674 Eh/α |
          | HOMO-LUMO GAP               0.564214939972 eV   |
           -------------------------------------------------

------------------------------------------------------------------------
 * finished run on 2022/02/01 at 18:39:32.605     
------------------------------------------------------------------------
 total:
 * wall-time:     0 d,  0 h,  0 min,  0.712 sec
 *  cpu-time:     0 d,  0 h,  0 min,  5.593 sec
 * ratio c/w:     7.856 speedup
 SCF:
 * wall-time:     0 d,  0 h,  0 min,  0.622 sec
 *  cpu-time:     0 d,  0 h,  0 min,  4.960 sec
 * ratio c/w:     7.976 speedup

