      -----------------------------------------------------------      
     |                   =====================                   |     
     |                           x T B                           |     
     |                   =====================                   |     
     |                         S. Grimme                         |     
     |          Mulliken Center for Theoretical Chemistry        |     
     |                    University of Bonn                     |     
      -----------------------------------------------------------      

   * xtb version 6.4.1 (unknown) compiled by 'oda6@login1.crc.pitt.edu' on 2021-06-25

   xtb is free software: you can redistribute it and/or modify it under
   the terms of the GNU Lesser General Public License as published by
   the Free Software Foundation, either version 3 of the License, or
   (at your option) any later version.
   
   xtb is distributed in the hope that it will be useful,
   but WITHOUT ANY WARRANTY; without even the implied warranty of
   MERCHANTABILITY or FITNESS FOR A PARTICULAR PURPOSE.  See the
   GNU Lesser General Public License for more details.
   
   Cite this work as:
   * C. Bannwarth, E. Caldeweyher, S. Ehlert, A. Hansen, P. Pracht,
     J. Seibert, S. Spicher, S. Grimme, WIREs Comput. Mol. Sci., 2020, 11,
     e01493. DOI: 10.1002/wcms.1493
   
   for GFN2-xTB:
   * C. Bannwarth, S. Ehlert and S. Grimme., J. Chem. Theory Comput., 2019,
     15, 1652-1671. DOI: 10.1021/acs.jctc.8b01176
   for GFN1-xTB:
   * S. Grimme, C. Bannwarth, P. Shushkov, J. Chem. Theory Comput., 2017,
     13, 1989-2009. DOI: 10.1021/acs.jctc.7b00118
   for GFN0-xTB:
   * P. Pracht, E. Caldeweyher, S. Ehlert, S. Grimme, ChemRxiv, 2019, preprint.
     DOI: 10.26434/chemrxiv.8326202.v1
   for GFN-FF:
   * S. Spicher and S. Grimme, Angew. Chem. Int. Ed., 2020, 59, 15665-15673.
     DOI: 10.1002/anie.202004239
   
   for DFT-D4:
   * E. Caldeweyher, C. Bannwarth and S. Grimme, J. Chem. Phys., 2017,
     147, 034112. DOI: 10.1063/1.4993215
   * E. Caldeweyher, S. Ehlert, A. Hansen, H. Neugebauer, S. Spicher,
     C. Bannwarth and S. Grimme, J. Chem. Phys., 2019, 150, 154122.
     DOI: 10.1063/1.5090222
   * E. Caldeweyher, J.-M. Mewes, S. Ehlert and S. Grimme, Phys. Chem. Chem. Phys.
     2020, 22, 8499-8512. DOI: 10.1039/D0CP00502A
   
   for sTDA-xTB:
   * S. Grimme and C. Bannwarth, J. Chem. Phys., 2016, 145, 054103.
     DOI: 10.1063/1.4959605
   
   in the mass-spec context:
   * V. Asgeirsson, C. Bauer and S. Grimme, Chem. Sci., 2017, 8, 4879.
     DOI: 10.1039/c7sc00601b
   * J. Koopman and S. Grimme, ACS Omega 2019, 4, 12, 15120-15133.
     DOI: 10.1021/acsomega.9b02011
   
   for metadynamics refer to:
   * S. Grimme, J. Chem. Theory Comput., 2019, 155, 2847-2862
     DOI: 10.1021/acs.jctc.9b00143
   
   for SPH calculations refer to:
   * S. Spicher and S. Grimme, J. Chem. Theory Comput., 2021, 17, 1701-1714
     DOI: 10.1021/acs.jctc.0c01306
   
   with help from (in alphabetical order)
   P. Atkinson, C. Bannwarth, F. Bohle, G. Brandenburg, E. Caldeweyher
   M. Checinski, S. Dohm, S. Ehlert, S. Ehrlich, I. Gerasimov, J. Koopman
   C. Lavigne, S. Lehtola, F. März, M. Müller, F. Musil, H. Neugebauer
   J. Pisarek, C. Plett, P. Pracht, J. Seibert, P. Shushkov, S. Spicher
   M. Stahn, M. Steiner, T. Strunk, J. Stückrath, T. Rose, and J. Unsleber
   
 * started run on 2022/02/02 at 19:29:41.947     

           -------------------------------------------------
          |                Calculation Setup                |
           -------------------------------------------------

          program call               : /ihome/ghutchison/oda6/xtb/xtb-641/bin/xtb ../../GFN2_output/6_130_39.mol --sp --alpb water
          hostname                   : smp-n39
          coordinate file            : ../../GFN2_output/6_130_39.mol
          omp threads                :                     8
          number of atoms            :                   108
          number of electrons        :                   346
          charge                     :                     0
          spin                       :                   0.0
          first test random number   :      0.60254344587037

   ID    Z sym.   atoms
    1    6 C      1-3, 5-8, 10-14, 16, 18-21, 23-27, 31, 32, 34-38, 40, 41,
                  43, 44, 46-52, 54-62, 64, 66-72
    2    8 O      4, 53
    3   17 Cl     9
    4    7 N      15, 17, 22, 28, 30, 42, 45, 63, 65
    5   16 S      29, 33, 39
    6    1 H      73-108

           -------------------------------------------------
          |                 G F N 2 - x T B                 |
           -------------------------------------------------

        Reference                      10.1021/acs.jctc.8b01176
      * Hamiltonian:
        H0-scaling (s, p, d)           1.850000    2.230000    2.230000
        zeta-weighting                 0.500000
      * Dispersion:
        s8                             2.700000
        a1                             0.520000
        a2                             5.000000
        s9                             5.000000
      * Repulsion:
        kExp                           1.500000    1.000000
        rExp                           1.000000
      * Coulomb:
        alpha                          2.000000
        third order                    shell-resolved
        anisotropic                    true
        a3                             3.000000
        a5                             4.000000
        cn-shift                       1.200000
        cn-exp                         4.000000
        max-rad                        5.000000

      * Solvation model:               ALPB
        Solvent                        water
        Parameter file                 internal GFN2-xTB/ALPB
        Dielectric constant                8.0200E+01
        Reference state                gsolv [1 M gas/solution]
        Free energy shift                  1.0808E-03 Eh       6.7819E-01 kcal/mol
        Temperature                        2.9815E+02 K
        Density                            1.0000E+00 kg/L
        Solvent mass                       1.8000E+01 g/mol
        Interaction kernel             P16
        Born radius scaling (c1)           1.4744E+00
        Born radii integrator          GBOBC
        Born offset                        0.0000E+00 a0       0.0000E+00 AA
        H-bond correction              true
        Ion screening                  false
        Surface tension                    1.0000E-05 Eh       1.5569E+01 dyn/cm
        Grid points                               230 per atom

          ...................................................
          :                      SETUP                      :
          :.................................................:
          :  # basis functions                 348          :
          :  # atomic orbitals                 344          :
          :  # shells                          184          :
          :  # electrons                       346          :
          :  max. iterations                   250          :
          :  Hamiltonian                  GFN2-xTB          :
          :  restarted?                      false          :
          :  GBSA solvation                   true          :
          :  PC potential                    false          :
          :  electronic temp.          300.0000000     K    :
          :  accuracy                    1.0000000          :
          :  -> integral cutoff          0.2500000E+02      :
          :  -> integral neglect         0.1000000E-07      :
          :  -> SCF convergence          0.1000000E-05 Eh   :
          :  -> wf. convergence          0.1000000E-03 e    :
          :  Broyden damping             0.4000000          :
          ...................................................

 iter      E             dE          RMSdq      gap      omega  full diag
   1   -191.8103852 -0.191810E+03  0.451E+00    1.01       0.0  T
   2   -192.0325698 -0.222185E+00  0.279E+00    1.00       1.0  T
   3   -192.0179547  0.146151E-01  0.147E+00    1.11       1.0  T
   4   -192.1085858 -0.906311E-01  0.478E-01    1.05       1.0  T
   5   -192.1232645 -0.146787E-01  0.154E-01    1.00       1.0  T
   6   -192.1243837 -0.111924E-02  0.854E-02    1.04       1.0  T
   7   -192.1246462 -0.262487E-03  0.358E-02    1.03       1.0  T
   8   -192.1246693 -0.231064E-04  0.198E-02    1.03       1.0  T
   9   -192.1246799 -0.106001E-04  0.144E-02    1.03       1.0  T
  10   -192.1246860 -0.606591E-05  0.970E-03    1.03       1.0  T
  11   -192.1246895 -0.352041E-05  0.657E-03    1.03       1.5  T
  12   -192.1246914 -0.189909E-05  0.380E-03    1.03       2.5  T
  13   -192.1246921 -0.662310E-06  0.215E-03    1.03       4.5  T
  14   -192.1246922 -0.144256E-06  0.126E-03    1.03       7.6  T
  15   -192.1246923 -0.462713E-07  0.632E-04    1.03      15.2  T
  16   -192.1246923 -0.158950E-07  0.360E-04    1.03      26.7  T

   *** convergence criteria satisfied after 16 iterations ***

         #    Occupation            Energy/Eh            Energy/eV
      -------------------------------------------------------------
         1        2.0000           -1.0740440             -29.2262
       ...           ...                  ...                  ...
       167        2.0000           -0.4049774             -11.0200
       168        2.0000           -0.4028920             -10.9632
       169        2.0000           -0.3925172             -10.6809
       170        2.0000           -0.3883778             -10.5683
       171        2.0000           -0.3832731             -10.4294
       172        2.0000           -0.3741898             -10.1822
       173        2.0000           -0.3690834             -10.0433 (HOMO)
       174                         -0.3313803              -9.0173 (LUMO)
       175                         -0.3268154              -8.8931
       176                         -0.3191278              -8.6839
       177                         -0.3123951              -8.5007
       178                         -0.2978666              -8.1054
       ...                                ...                  ...
       344                          1.1532879              31.3826
      -------------------------------------------------------------
                  HL-Gap            0.0377031 Eh            1.0260 eV
             Fermi-level           -0.3502335 Eh           -9.5303 eV

 SCC (total)                   0 d,  0 h,  0 min,  0.578 sec
 SCC setup                      ...        0 min,  0.003 sec (  0.554%)
 Dispersion                     ...        0 min,  0.006 sec (  1.005%)
 classical contributions        ...        0 min,  0.000 sec (  0.045%)
 integral evaluation            ...        0 min,  0.022 sec (  3.852%)
 iterations                     ...        0 min,  0.512 sec ( 88.699%)
 molecular gradient             ...        0 min,  0.033 sec (  5.628%)
 printout                       ...        0 min,  0.001 sec (  0.200%)

         :::::::::::::::::::::::::::::::::::::::::::::::::::::
         ::                     SUMMARY                     ::
         :::::::::::::::::::::::::::::::::::::::::::::::::::::
         :: total energy            -189.118768371130 Eh    ::
         :: total w/o Gsasa/hb      -189.098026364204 Eh    ::
         :: gradient norm              0.033305216650 Eh/a0 ::
         :: HOMO-LUMO gap              1.025954641213 eV    ::
         ::.................................................::
         :: SCC energy              -192.124692289496 Eh    ::
         :: -> isotropic ES            0.153978069403 Eh    ::
         :: -> anisotropic ES          0.001131793899 Eh    ::
         :: -> anisotropic XC          0.128960221159 Eh    ::
         :: -> dispersion             -0.168367921902 Eh    ::
         :: -> Gsolv                  -0.055060112732 Eh    ::
         ::    -> Gelec               -0.034318105807 Eh    ::
         ::    -> Gsasa               -0.016777312009 Eh    ::
         ::    -> Ghb                 -0.005045454614 Eh    ::
         ::    -> Gshift               0.001080759698 Eh    ::
         :: repulsion energy           3.007087450218 Eh    ::
         :: add. restraining           0.000000000000 Eh    ::
         :: total charge              -0.000000000017 e     ::
         :::::::::::::::::::::::::::::::::::::::::::::::::::::

           -------------------------------------------------
          |                Property Printout                |
           -------------------------------------------------

    * Orbital Energies and Occupations

         #    Occupation            Energy/Eh            Energy/eV
      -------------------------------------------------------------
         1        2.0000           -1.0740440             -29.2262
       ...           ...                  ...                  ...
       161        2.0000           -0.4194702             -11.4144
       162        2.0000           -0.4163354             -11.3291
       163        2.0000           -0.4156176             -11.3095
       164        2.0000           -0.4152369             -11.2992
       165        2.0000           -0.4119077             -11.2086
       166        2.0000           -0.4076318             -11.0922
       167        2.0000           -0.4049774             -11.0200
       168        2.0000           -0.4028920             -10.9632
       169        2.0000           -0.3925172             -10.6809
       170        2.0000           -0.3883778             -10.5683
       171        2.0000           -0.3832731             -10.4294
       172        2.0000           -0.3741898             -10.1822
       173        2.0000           -0.3690834             -10.0433 (HOMO)
       174                         -0.3313803              -9.0173 (LUMO)
       175                         -0.3268154              -8.8931
       176                         -0.3191278              -8.6839
       177                         -0.3123951              -8.5007
       178                         -0.2978666              -8.1054
       179                         -0.2675897              -7.2815
       180                         -0.2577784              -7.0145
       181                         -0.2518396              -6.8529
       182                         -0.2490691              -6.7775
       183                         -0.2425578              -6.6003
       184                         -0.2291372              -6.2351
       ...                                ...                  ...
       344                          1.1532879              31.3826
      -------------------------------------------------------------
                  HL-Gap            0.0377031 Eh            1.0260 eV
             Fermi-level           -0.3502335 Eh           -9.5303 eV

     #   Z          covCN         q      C6AA      α(0)
     1   6 C        2.898    -0.016    28.412     8.740
     2   6 C        3.000    -0.044    29.070     8.844
     3   6 C        2.868     0.231    23.169     7.890
     4   8 O        0.856    -0.426    22.201     6.317
     5   6 C        3.046    -0.021    28.479     8.753
     6   6 C        2.915    -0.016    28.421     8.742
     7   6 C        2.959    -0.037    28.908     8.819
     8   6 C        2.890     0.111    25.546     8.287
     9  17 Cl       0.974    -0.179   104.772    15.660
    10   6 C        2.954    -0.037    28.919     8.820
    11   6 C        3.033     0.012    27.722     8.636
    12   6 C        3.023     0.036    27.178     8.551
    13   6 C        2.947    -0.002    28.082     8.691
    14   6 C        1.948     0.129    27.926     8.534
    15   7 N        0.911    -0.284    27.329     7.561
    16   6 C        1.950     0.133    27.835     8.520
    17   7 N        0.911    -0.294    27.572     7.594
    18   6 C        3.110     0.045    26.849     8.489
    19   6 C        2.998    -0.069    29.714     8.942
    20   6 C        3.229     0.026    26.625     8.380
    21   6 C        3.192     0.035    26.730     8.432
    22   7 N        2.807    -0.011    21.464     6.881
    23   6 C        3.739    -0.016    20.944     6.530
    24   6 C        3.752    -0.120    22.864     6.819
    25   6 C        3.062    -0.046    29.083     8.844
    26   6 C        3.326     0.069    24.320     7.837
    27   6 C        3.341     0.069    24.017     7.749
    28   7 N        1.854    -0.302    28.670     7.936
    29  16 S        2.672     0.295   129.592    19.160
    30   7 N        1.855    -0.297    28.556     7.920
    31   6 C        3.088    -0.038    28.834     8.802
    32   6 C        3.095     0.008    27.729     8.630
    33  16 S        2.165    -0.048   143.024    20.128
    34   6 C        3.183     0.013    27.286     8.526
    35   6 C        3.095     0.008    27.717     8.628
    36   6 C        3.804    -0.060    21.643     6.623
    37   6 C        3.754    -0.108    22.615     6.781
    38   6 C        2.993     0.016    27.634     8.623
    39  16 S        2.331    -0.003   141.175    19.998
    40   6 C        3.107     0.002    27.835     8.644
    41   6 C        3.252     0.031    26.276     8.295
    42   7 N        2.799    -0.010    21.449     6.879
    43   6 C        3.070     0.037    27.108     8.537
    44   6 C        3.074     0.043    26.966     8.514
    45   7 N        2.785    -0.023    21.698     6.918
    46   6 C        3.743    -0.015    20.917     6.525
    47   6 C        3.752    -0.125    22.956     6.833
    48   6 C        3.743    -0.016    20.927     6.526
    49   6 C        3.752    -0.126    22.976     6.836
    50   6 C        2.920    -0.015    28.379     8.736
    51   6 C        3.005    -0.044    29.080     8.846
    52   6 C        2.875     0.227    23.237     7.902
    53   8 O        0.971    -0.410    21.831     6.267
    54   6 C        3.060    -0.023    28.507     8.756
    55   6 C        2.904    -0.025    28.634     8.774
    56   6 C        3.260     0.015    26.535     8.324
    57   6 C        3.256     0.014    26.588     8.338
    58   6 C        2.904    -0.034    28.836     8.805
    59   6 C        3.049     0.003    27.912     8.665
    60   6 C        3.020     0.035    27.186     8.553
    61   6 C        2.947    -0.003    28.088     8.692
    62   6 C        1.950     0.134    27.804     8.515
    63   7 N        0.911    -0.290    27.469     7.580
    64   6 C        1.949     0.130    27.888     8.528
    65   7 N        0.911    -0.289    27.454     7.578
    66   6 C        4.162    -0.025    20.928     6.497
    67   6 C        4.013    -0.016    20.783     6.476
    68   6 C        2.995    -0.044    29.075     8.845
    69   6 C        2.995    -0.044    29.090     8.847
    70   6 C        4.013    -0.016    20.788     6.477
    71   6 C        3.915    -0.062    21.632     6.611
    72   6 C        4.161    -0.025    20.927     6.497
    73   1 H        0.925     0.074     2.046     2.237
    74   1 H        0.926     0.090     1.879     2.143
    75   1 H        0.926     0.094     1.843     2.123
    76   1 H        0.926     0.069     2.092     2.262
    77   1 H        0.927     0.088     1.896     2.153
    78   1 H        0.924     0.089     1.894     2.152
    79   1 H        0.924     0.063     2.162     2.299
    80   1 H        0.925     0.066     2.130     2.282
    81   1 H        0.925     0.050     2.315     2.379
    82   1 H        0.925     0.051     2.310     2.377
    83   1 H        0.924     0.056     2.247     2.344
    84   1 H        0.924     0.065     2.137     2.286
    85   1 H        0.925     0.058     2.217     2.329
    86   1 H        0.925     0.038     2.479     2.462
    87   1 H        0.925     0.050     2.322     2.383
    88   1 H        0.924     0.083     1.948     2.183
    89   1 H        0.924     0.082     1.960     2.189
    90   1 H        0.925     0.052     2.293     2.368
    91   1 H        0.925     0.067     2.117     2.275
    92   1 H        0.925     0.050     2.317     2.381
    93   1 H        0.924     0.082     1.953     2.186
    94   1 H        0.925     0.089     1.884     2.147
    95   1 H        0.925     0.071     2.078     2.254
    96   1 H        0.925     0.051     2.305     2.374
    97   1 H        0.925     0.059     2.211     2.325
    98   1 H        0.925     0.072     2.067     2.248
    99   1 H        0.926     0.069     2.093     2.262
   100   1 H        0.926     0.053     2.284     2.363
   101   1 H        0.925     0.053     2.284     2.363
   102   1 H        0.925     0.041     2.436     2.441
   103   1 H        0.926     0.043     2.410     2.428
   104   1 H        0.926     0.045     2.386     2.416
   105   1 H        0.925     0.045     2.380     2.413
   106   1 H        0.925     0.045     2.384     2.415
   107   1 H        0.925     0.034     2.526     2.485
   108   1 H        0.925     0.056     2.247     2.344

 Mol. C6AA /au·bohr⁶  :     197166.586601
 Mol. C8AA /au·bohr⁸  :    5363505.066984
 Mol. α(0) /au        :        700.305026


Wiberg/Mayer (AO) data.
largest (>0.10) Wiberg bond orders for each atom

 ---------------------------------------------------------------------------
     #   Z sym  total        # sym  WBO       # sym  WBO       # sym  WBO
 ---------------------------------------------------------------------------
     1   6 C    3.936 --     2 C    1.455    18 C    1.316    73 H    0.935
     2   6 C    3.950 --     1 C    1.455    12 C    1.168     3 C    1.060
     3   6 C    3.909 --     4 O    1.711     2 C    1.060     5 C    1.020
     4   8 O    2.005 --     3 C    1.711
     5   6 C    3.977 --     6 C    1.417    11 C    1.296     3 C    1.020
     6   6 C    3.975 --     7 C    1.424     5 C    1.417    74 H    0.961
     7   6 C    3.963 --     6 C    1.424     8 C    1.400    75 H    0.962
     8   6 C    3.903 --     7 C    1.400    10 C    1.386     9 Cl   0.978
     9  17 Cl   1.112 --     8 C    0.978
    10   6 C    3.973 --    11 C    1.412     8 C    1.386    76 H    0.958
    11   6 C    3.982 --    10 C    1.412     5 C    1.296    12 C    1.076
    12   6 C    3.961 --    13 C    1.455     2 C    1.168    11 C    1.076
    13   6 C    3.943 --    12 C    1.455    14 C    1.105    16 C    1.104
    14   6 C    3.941 --    15 N    2.730    13 C    1.105
    15   7 N    2.949 --    14 C    2.730
    16   6 C    3.938 --    17 N    2.741    13 C    1.104
    17   7 N    2.951 --    16 C    2.741
    18   6 C    3.927 --     1 C    1.316    19 C    1.294    22 N    1.122
    19   6 C    3.940 --    20 C    1.414    18 C    1.294    77 H    0.952
    20   6 C    3.938 --    19 C    1.414    21 C    1.193    45 N    1.141
    21   6 C    3.930 --    22 N    1.247    25 C    1.242    20 C    1.193
    22   7 N    3.613 --    21 C    1.247    18 C    1.122    23 C    0.981
    23   6 C    3.956 --    24 C    1.004    22 N    0.981    79 H    0.964
                            78 H    0.954
    24   6 C    3.989 --    23 C    1.004    82 H    0.986    81 H    0.983
                            80 H    0.981
    25   6 C    3.950 --    44 C    1.260    21 C    1.242    26 C    1.183
    26   6 C    3.969 --    30 N    1.417    25 C    1.183    27 C    1.162
                            29 S    0.103
    27   6 C    3.970 --    28 N    1.425    31 C    1.173    26 C    1.162
                            29 S    0.108
    28   7 N    3.059 --    27 C    1.425    29 S    1.381    30 N    0.143
    29  16 S    3.081 --    28 N    1.381    30 N    1.367    27 C    0.108
                            26 C    0.103
    30   7 N    3.061 --    26 C    1.417    29 S    1.367    28 N    0.143
    31   6 C    3.948 --    32 C    1.289    43 C    1.252    27 C    1.173
    32   6 C    3.913 --    41 C    1.290    31 C    1.289    33 S    1.109
    33  16 S    2.494 --    32 C    1.109    34 C    1.075
    34   6 C    3.926 --    35 C    1.365    40 C    1.289    33 S    1.075
    35   6 C    3.953 --    34 C    1.365    38 C    1.327    36 C    1.019
    36   6 C    3.991 --    35 C    1.019    37 C    0.990    84 H    0.967
                            83 H    0.962
    37   6 C    3.988 --    36 C    0.990    87 H    0.988    86 H    0.987
                            85 H    0.983
    38   6 C    3.930 --    35 C    1.327    50 C    1.326    39 S    1.072
    39  16 S    2.719 --    40 C    1.156    38 C    1.072    53 O    0.131
    40   6 C    3.940 --    34 C    1.289    41 C    1.253    39 S    1.156
    41   6 C    3.939 --    32 C    1.290    40 C    1.253    42 N    1.171
    42   7 N    3.575 --    43 C    1.185    41 C    1.171    48 C    0.972
    43   6 C    3.931 --    31 C    1.252    44 C    1.230    42 N    1.185
    44   6 C    3.915 --    25 C    1.260    43 C    1.230    45 N    1.182
    45   7 N    3.546 --    44 C    1.182    20 C    1.141    46 C    0.973
    46   6 C    3.950 --    47 C    1.008    45 N    0.973    89 H    0.967
                            88 H    0.952
    47   6 C    3.986 --    46 C    1.008    92 H    0.986    90 H    0.982
                            91 H    0.981
    48   6 C    3.947 --    49 C    1.007    42 N    0.972    93 H    0.960
                            94 H    0.949
    49   6 C    3.984 --    48 C    1.007    96 H    0.986    97 H    0.982
                            95 H    0.980
    50   6 C    3.940 --    51 C    1.473    38 C    1.326    98 H    0.931
    51   6 C    3.952 --    50 C    1.473    60 C    1.148    52 C    1.073
    52   6 C    3.908 --    53 O    1.670    51 C    1.073    54 C    1.034
    53   8 O    2.075 --    52 C    1.670    39 S    0.131
    54   6 C    3.969 --    55 C    1.380    59 C    1.306    52 C    1.034
    55   6 C    3.977 --    56 C    1.439    54 C    1.380    99 H    0.962
    56   6 C    3.952 --    55 C    1.439    57 C    1.323    72 C    0.994
    57   6 C    3.963 --    58 C    1.446    56 C    1.323    66 C    0.995
    58   6 C    3.976 --    57 C    1.446    59 C    1.366   100 H    0.958
    59   6 C    3.975 --    58 C    1.366    54 C    1.306    60 C    1.089
    60   6 C    3.964 --    61 C    1.460    51 C    1.148    59 C    1.089
    61   6 C    3.943 --    60 C    1.460    64 C    1.105    62 C    1.103
    62   6 C    3.939 --    63 N    2.743    61 C    1.103
    63   7 N    2.953 --    62 C    2.743
    64   6 C    3.940 --    65 N    2.731    61 C    1.105
    65   7 N    2.950 --    64 C    2.731
    66   6 C    3.983 --    57 C    0.995    72 C    0.975   101 H    0.960
                            67 C    0.950
    67   6 C    3.988 --    68 C    1.004    71 C    0.989   102 H    0.971
                            66 C    0.950
    68   6 C    3.981 --    69 C    1.923    67 C    1.004   103 H    0.970
    69   6 C    3.981 --    68 C    1.923    70 C    1.004   104 H    0.970
    70   6 C    3.987 --    69 C    1.004    71 C    0.989   105 H    0.970
                            72 C    0.949
    71   6 C    3.994 --    67 C    0.989    70 C    0.989   106 H    0.978
                           107 H    0.974
    72   6 C    3.982 --    56 C    0.994    66 C    0.975   108 H    0.959
                            70 C    0.949
    73   1 H    0.993 --     1 C    0.935
    74   1 H    0.991 --     6 C    0.961
    75   1 H    0.990 --     7 C    0.962
    76   1 H    0.995 --    10 C    0.958
    77   1 H    0.991 --    19 C    0.952
    78   1 H    0.991 --    23 C    0.954
    79   1 H    0.995 --    23 C    0.964
    80   1 H    0.995 --    24 C    0.981
    81   1 H    0.997 --    24 C    0.983
    82   1 H    0.997 --    24 C    0.986
    83   1 H    0.996 --    36 C    0.962
    84   1 H    0.995 --    36 C    0.967
    85   1 H    0.995 --    37 C    0.983
    86   1 H    0.999 --    37 C    0.987
    87   1 H    0.997 --    37 C    0.988
    88   1 H    0.990 --    46 C    0.952
    89   1 H    0.993 --    46 C    0.967
    90   1 H    0.997 --    47 C    0.982
    91   1 H    0.995 --    47 C    0.981
    92   1 H    0.997 --    47 C    0.986
    93   1 H    0.993 --    48 C    0.960
    94   1 H    0.989 --    48 C    0.949
    95   1 H    0.994 --    49 C    0.980
    96   1 H    0.997 --    49 C    0.986
    97   1 H    0.996 --    49 C    0.982
    98   1 H    0.994 --    50 C    0.931
    99   1 H    0.995 --    55 C    0.962
   100   1 H    0.997 --    58 C    0.958
   101   1 H    0.995 --    66 C    0.960
   102   1 H    0.998 --    67 C    0.971
   103   1 H    0.998 --    68 C    0.970
   104   1 H    0.998 --    69 C    0.970
   105   1 H    0.998 --    70 C    0.970
   106   1 H    0.998 --    71 C    0.978
   107   1 H    0.999 --    71 C    0.974
   108   1 H    0.995 --    72 C    0.959
 ---------------------------------------------------------------------------

Topologies differ in bond orders
Writing corrected topology to xtbtopo.mol

molecular dipole:
                 x           y           z       tot (Debye)
 q only:        2.530      -1.763       2.843
   full:        3.208      -1.646       2.927      11.805
molecular quadrupole (traceless):
                xx          xy          yy          xz          yz          zz
 q only:       74.143     -69.968    -174.760      22.911      61.900     100.617
  q+dip:       72.737     -54.487    -164.820      14.050      55.661      92.083
   full:       71.449     -60.792    -168.958       6.163      63.955      97.509


           -------------------------------------------------
          | TOTAL ENERGY             -189.118768371130 Eh   |
          | GRADIENT NORM               0.033305216650 Eh/α |
          | HOMO-LUMO GAP               1.025954641213 eV   |
           -------------------------------------------------

------------------------------------------------------------------------
 * finished run on 2022/02/02 at 19:29:42.593     
------------------------------------------------------------------------
 total:
 * wall-time:     0 d,  0 h,  0 min,  0.646 sec
 *  cpu-time:     0 d,  0 h,  0 min,  4.095 sec
 * ratio c/w:     6.342 speedup
 SCF:
 * wall-time:     0 d,  0 h,  0 min,  0.580 sec
 *  cpu-time:     0 d,  0 h,  0 min,  3.677 sec
 * ratio c/w:     6.335 speedup

