      -----------------------------------------------------------      
     |                   =====================                   |     
     |                           x T B                           |     
     |                   =====================                   |     
     |                         S. Grimme                         |     
     |          Mulliken Center for Theoretical Chemistry        |     
     |                    University of Bonn                     |     
      -----------------------------------------------------------      

   * xtb version 6.4.1 (unknown) compiled by 'oda6@login1.crc.pitt.edu' on 2021-06-25

   xtb is free software: you can redistribute it and/or modify it under
   the terms of the GNU Lesser General Public License as published by
   the Free Software Foundation, either version 3 of the License, or
   (at your option) any later version.
   
   xtb is distributed in the hope that it will be useful,
   but WITHOUT ANY WARRANTY; without even the implied warranty of
   MERCHANTABILITY or FITNESS FOR A PARTICULAR PURPOSE.  See the
   GNU Lesser General Public License for more details.
   
   Cite this work as:
   * C. Bannwarth, E. Caldeweyher, S. Ehlert, A. Hansen, P. Pracht,
     J. Seibert, S. Spicher, S. Grimme, WIREs Comput. Mol. Sci., 2020, 11,
     e01493. DOI: 10.1002/wcms.1493
   
   for GFN2-xTB:
   * C. Bannwarth, S. Ehlert and S. Grimme., J. Chem. Theory Comput., 2019,
     15, 1652-1671. DOI: 10.1021/acs.jctc.8b01176
   for GFN1-xTB:
   * S. Grimme, C. Bannwarth, P. Shushkov, J. Chem. Theory Comput., 2017,
     13, 1989-2009. DOI: 10.1021/acs.jctc.7b00118
   for GFN0-xTB:
   * P. Pracht, E. Caldeweyher, S. Ehlert, S. Grimme, ChemRxiv, 2019, preprint.
     DOI: 10.26434/chemrxiv.8326202.v1
   for GFN-FF:
   * S. Spicher and S. Grimme, Angew. Chem. Int. Ed., 2020, 59, 15665-15673.
     DOI: 10.1002/anie.202004239
   
   for DFT-D4:
   * E. Caldeweyher, C. Bannwarth and S. Grimme, J. Chem. Phys., 2017,
     147, 034112. DOI: 10.1063/1.4993215
   * E. Caldeweyher, S. Ehlert, A. Hansen, H. Neugebauer, S. Spicher,
     C. Bannwarth and S. Grimme, J. Chem. Phys., 2019, 150, 154122.
     DOI: 10.1063/1.5090222
   * E. Caldeweyher, J.-M. Mewes, S. Ehlert and S. Grimme, Phys. Chem. Chem. Phys.
     2020, 22, 8499-8512. DOI: 10.1039/D0CP00502A
   
   for sTDA-xTB:
   * S. Grimme and C. Bannwarth, J. Chem. Phys., 2016, 145, 054103.
     DOI: 10.1063/1.4959605
   
   in the mass-spec context:
   * V. Asgeirsson, C. Bauer and S. Grimme, Chem. Sci., 2017, 8, 4879.
     DOI: 10.1039/c7sc00601b
   * J. Koopman and S. Grimme, ACS Omega 2019, 4, 12, 15120-15133.
     DOI: 10.1021/acsomega.9b02011
   
   for metadynamics refer to:
   * S. Grimme, J. Chem. Theory Comput., 2019, 155, 2847-2862
     DOI: 10.1021/acs.jctc.9b00143
   
   for SPH calculations refer to:
   * S. Spicher and S. Grimme, J. Chem. Theory Comput., 2021, 17, 1701-1714
     DOI: 10.1021/acs.jctc.0c01306
   
   with help from (in alphabetical order)
   P. Atkinson, C. Bannwarth, F. Bohle, G. Brandenburg, E. Caldeweyher
   M. Checinski, S. Dohm, S. Ehlert, S. Ehrlich, I. Gerasimov, J. Koopman
   C. Lavigne, S. Lehtola, F. März, M. Müller, F. Musil, H. Neugebauer
   J. Pisarek, C. Plett, P. Pracht, J. Seibert, P. Shushkov, S. Spicher
   M. Stahn, M. Steiner, T. Strunk, J. Stückrath, T. Rose, and J. Unsleber
   
 * started run on 2022/02/02 at 02:33:44.298     

           -------------------------------------------------
          |                Calculation Setup                |
           -------------------------------------------------

          program call               : /ihome/ghutchison/oda6/xtb/xtb-641/bin/xtb ../../GFN2_output/0_51_68.mol --sp --alpb hexane
          hostname                   : smp-n66
          coordinate file            : ../../GFN2_output/0_51_68.mol
          omp threads                :                     8
          number of atoms            :                   100
          number of electrons        :                   352
          charge                     :                     0
          spin                       :                   0.0
          first test random number   :      0.46924288891519

   ID    Z sym.   atoms
    1    6 C      1-3, 5-7, 9, 11-15, 17, 19-23, 25-28, 32, 33, 35-39, 41,
                  42, 44, 45, 47, 48, 50-56, 58-62, 65-70, 72
    2    8 O      4, 57
    3    9 F      8, 10
    4    7 N      16, 18, 29, 31, 43, 46, 71, 73
    5   16 S      24, 30, 34, 40, 49, 64
    6   35 Br     63
    7    1 H      74-100

           -------------------------------------------------
          |                 G F N 2 - x T B                 |
           -------------------------------------------------

        Reference                      10.1021/acs.jctc.8b01176
      * Hamiltonian:
        H0-scaling (s, p, d)           1.850000    2.230000    2.230000
        zeta-weighting                 0.500000
      * Dispersion:
        s8                             2.700000
        a1                             0.520000
        a2                             5.000000
        s9                             5.000000
      * Repulsion:
        kExp                           1.500000    1.000000
        rExp                           1.000000
      * Coulomb:
        alpha                          2.000000
        third order                    shell-resolved
        anisotropic                    true
        a3                             3.000000
        a5                             4.000000
        cn-shift                       1.200000
        cn-exp                         4.000000
        max-rad                        5.000000

      * Solvation model:               ALPB
        Solvent                        hexane
        Parameter file                 internal GFN2-xTB/ALPB
        Dielectric constant                1.8800E+00
        Reference state                gsolv [1 M gas/solution]
        Free energy shift                  4.8134E-03 Eh       3.0204E+00 kcal/mol
        Temperature                        2.9815E+02 K
        Density                            6.6000E-01 kg/L
        Solvent mass                       8.6180E+01 g/mol
        Interaction kernel             P16
        Born radius scaling (c1)           1.1040E+00
        Born radii integrator          GBOBC
        Born offset                        0.0000E+00 a0       0.0000E+00 AA
        H-bond correction              false
        Ion screening                  false
        Surface tension                    1.0000E-05 Eh       1.5569E+01 dyn/cm
        Grid points                               230 per atom

          ...................................................
          :                      SETUP                      :
          :.................................................:
          :  # basis functions                 361          :
          :  # atomic orbitals                 354          :
          :  # shells                          180          :
          :  # electrons                       352          :
          :  max. iterations                   250          :
          :  Hamiltonian                  GFN2-xTB          :
          :  restarted?                      false          :
          :  GBSA solvation                   true          :
          :  PC potential                    false          :
          :  electronic temp.          300.0000000     K    :
          :  accuracy                    1.0000000          :
          :  -> integral cutoff          0.2500000E+02      :
          :  -> integral neglect         0.1000000E-07      :
          :  -> SCF convergence          0.1000000E-05 Eh   :
          :  -> wf. convergence          0.1000000E-03 e    :
          :  Broyden damping             0.4000000          :
          ...................................................

 iter      E             dE          RMSdq      gap      omega  full diag
   1   -196.5814968 -0.196581E+03  0.487E+00    1.31       0.0  T
   2   -196.7672557 -0.185759E+00  0.297E+00    1.01       1.0  T
   3   -196.7047396  0.625161E-01  0.158E+00    1.04       1.0  T
   4   -196.8336064 -0.128867E+00  0.555E-01    1.07       1.0  T
   5   -196.8504728 -0.168664E-01  0.191E-01    0.98       1.0  T
   6   -196.8515904 -0.111764E-02  0.104E-01    1.04       1.0  T
   7   -196.8519125 -0.322056E-03  0.522E-02    1.03       1.0  T
   8   -196.8519849 -0.724285E-04  0.355E-02    1.03       1.0  T
   9   -196.8519995 -0.145903E-04  0.262E-02    1.03       1.0  T
  10   -196.8520102 -0.106500E-04  0.167E-02    1.03       1.0  T
  11   -196.8520167 -0.648755E-05  0.960E-03    1.03       1.0  T
  12   -196.8520186 -0.195376E-05  0.466E-03    1.03       2.1  T
  13   -196.8520194 -0.798226E-06  0.227E-03    1.03       4.4  T
  14   -196.8520196 -0.154677E-06  0.109E-03    1.03       9.2  T
  15   -196.8520196 -0.210024E-07  0.543E-04    1.03      18.4  T
  16   -196.8520196 -0.593911E-08  0.274E-04    1.03      36.5  T

   *** convergence criteria satisfied after 16 iterations ***

         #    Occupation            Energy/Eh            Energy/eV
      -------------------------------------------------------------
         1        2.0000           -0.8629554             -23.4822
       ...           ...                  ...                  ...
       170        2.0000           -0.4131142             -11.2414
       171        2.0000           -0.4112289             -11.1901
       172        2.0000           -0.4080961             -11.1049
       173        2.0000           -0.3989762             -10.8567
       174        2.0000           -0.3929470             -10.6926
       175        2.0000           -0.3844118             -10.4604
       176        2.0000           -0.3793924             -10.3238 (HOMO)
       177                         -0.3416067              -9.2956 (LUMO)
       178                         -0.3370641              -9.1720
       179                         -0.3304639              -8.9924
       180                         -0.3218769              -8.7587
       181                         -0.3058204              -8.3218
       ...                                ...                  ...
       354                          1.1546073              31.4185
      -------------------------------------------------------------
                  HL-Gap            0.0377857 Eh            1.0282 eV
             Fermi-level           -0.3605011 Eh           -9.8097 eV

 SCC (total)                   0 d,  0 h,  0 min,  0.299 sec
 SCC setup                      ...        0 min,  0.003 sec (  0.997%)
 Dispersion                     ...        0 min,  0.004 sec (  1.374%)
 classical contributions        ...        0 min,  0.000 sec (  0.042%)
 integral evaluation            ...        0 min,  0.015 sec (  4.962%)
 iterations                     ...        0 min,  0.242 sec ( 80.963%)
 molecular gradient             ...        0 min,  0.034 sec ( 11.272%)
 printout                       ...        0 min,  0.001 sec (  0.358%)

         :::::::::::::::::::::::::::::::::::::::::::::::::::::
         ::                     SUMMARY                     ::
         :::::::::::::::::::::::::::::::::::::::::::::::::::::
         :: total energy            -193.976374514264 Eh    ::
         :: total w/o Gsasa/hb      -193.912167006895 Eh    ::
         :: gradient norm              0.022195374212 Eh/a0 ::
         :: HOMO-LUMO gap              1.028200002638 eV    ::
         ::.................................................::
         :: SCC energy              -196.852019585314 Eh    ::
         :: -> isotropic ES            0.162047744944 Eh    ::
         :: -> anisotropic ES          0.008465635989 Eh    ::
         :: -> anisotropic XC          0.110905490793 Eh    ::
         :: -> dispersion             -0.170163606712 Eh    ::
         :: -> Gsolv                  -0.089344112186 Eh    ::
         ::    -> Gelec               -0.025136604817 Eh    ::
         ::    -> Gsasa               -0.069020863189 Eh    ::
         ::    -> Ghb                  0.000000000000 Eh    ::
         ::    -> Gshift               0.004813355820 Eh    ::
         :: repulsion energy           2.876364063214 Eh    ::
         :: add. restraining           0.000000000000 Eh    ::
         :: total charge              -0.000000000015 e     ::
         :::::::::::::::::::::::::::::::::::::::::::::::::::::

           -------------------------------------------------
          |                Property Printout                |
           -------------------------------------------------

    * Orbital Energies and Occupations

         #    Occupation            Energy/Eh            Energy/eV
      -------------------------------------------------------------
         1        2.0000           -0.8629554             -23.4822
       ...           ...                  ...                  ...
       164        2.0000           -0.4276400             -11.6367
       165        2.0000           -0.4249786             -11.5643
       166        2.0000           -0.4209532             -11.4547
       167        2.0000           -0.4204298             -11.4405
       168        2.0000           -0.4188443             -11.3973
       169        2.0000           -0.4180540             -11.3758
       170        2.0000           -0.4131142             -11.2414
       171        2.0000           -0.4112289             -11.1901
       172        2.0000           -0.4080961             -11.1049
       173        2.0000           -0.3989762             -10.8567
       174        2.0000           -0.3929470             -10.6926
       175        2.0000           -0.3844118             -10.4604
       176        2.0000           -0.3793924             -10.3238 (HOMO)
       177                         -0.3416067              -9.2956 (LUMO)
       178                         -0.3370641              -9.1720
       179                         -0.3304639              -8.9924
       180                         -0.3218769              -8.7587
       181                         -0.3058204              -8.3218
       182                         -0.2881219              -7.8402
       183                         -0.2839624              -7.7270
       184                         -0.2725113              -7.4154
       185                         -0.2595176              -7.0618
       186                         -0.2544773              -6.9247
       187                         -0.2529073              -6.8820
       ...                                ...                  ...
       354                          1.1546073              31.4185
      -------------------------------------------------------------
                  HL-Gap            0.0377857 Eh            1.0282 eV
             Fermi-level           -0.3605011 Eh           -9.8097 eV

     #   Z          covCN         q      C6AA      α(0)
     1   6 C        2.920    -0.013    28.329     8.728
     2   6 C        3.008    -0.041    28.993     8.833
     3   6 C        2.873     0.234    23.106     7.880
     4   8 O        0.960    -0.391    21.457     6.213
     5   6 C        3.049    -0.017    28.378     8.737
     6   6 C        2.913    -0.033    28.832     8.805
     7   6 C        2.783     0.168    24.366     8.085
     8   9 F        0.787    -0.204    11.277     3.967
     9   6 C        2.782     0.170    24.324     8.078
    10   9 F        0.787    -0.202    11.259     3.964
    11   6 C        2.914    -0.045    29.116     8.848
    12   6 C        3.037     0.010    27.752     8.641
    13   6 C        3.020     0.038    27.131     8.544
    14   6 C        2.947     0.012    27.742     8.639
    15   6 C        1.944     0.133    27.841     8.521
    16   7 N        0.911    -0.262    26.783     7.485
    17   6 C        1.946     0.132    27.846     8.522
    18   7 N        0.911    -0.256    26.641     7.465
    19   6 C        2.992     0.020    27.554     8.611
    20   6 C        3.093     0.010    27.682     8.623
    21   6 C        3.804    -0.059    21.624     6.620
    22   6 C        3.754    -0.103    22.522     6.767
    23   6 C        3.181     0.012    27.320     8.532
    24  16 S        2.163    -0.028   142.190    20.070
    25   6 C        3.097     0.009    27.701     8.626
    26   6 C        3.087    -0.036    28.789     8.795
    27   6 C        3.342     0.070    23.980     7.739
    28   6 C        3.342     0.070    23.979     7.739
    29   7 N        1.855    -0.295    28.504     7.913
    30  16 S        2.688     0.355   127.401    18.997
    31   7 N        1.855    -0.295    28.499     7.912
    32   6 C        3.087    -0.035    28.766     8.792
    33   6 C        3.101     0.006    27.768     8.635
    34  16 S        2.174    -0.013   141.608    20.028
    35   6 C        3.196     0.011    27.244     8.510
    36   6 C        3.102     0.014    27.582     8.606
    37   6 C        3.804    -0.056    21.571     6.612
    38   6 C        3.755    -0.103    22.516     6.766
    39   6 C        2.995     0.022    27.511     8.604
    40  16 S        2.253    -0.063   143.668    20.174
    41   6 C        3.116     0.013    27.556     8.598
    42   6 C        3.247     0.029    26.359     8.315
    43   7 N        2.799    -0.026    21.741     6.925
    44   6 C        3.071     0.035    27.149     8.543
    45   6 C        3.072     0.036    27.126     8.540
    46   7 N        2.798    -0.023    21.688     6.917
    47   6 C        3.249     0.028    26.357     8.311
    48   6 C        3.105    -0.000    27.894     8.654
    49  16 S        2.316     0.004   140.883    19.977
    50   6 C        3.743    -0.010    20.825     6.510
    51   6 C        3.752    -0.115    22.754     6.802
    52   6 C        3.743    -0.007    20.768     6.501
    53   6 C        3.752    -0.115    22.759     6.803
    54   6 C        2.927    -0.009    28.231     8.714
    55   6 C        3.011    -0.036    28.869     8.814
    56   6 C        2.871     0.234    23.109     7.880
    57   8 O        0.856    -0.410    21.887     6.272
    58   6 C        3.041    -0.021    28.487     8.754
    59   6 C        2.910    -0.017    28.441     8.745
    60   6 C        3.148     0.010    27.519     8.582
    61   6 C        3.102    -0.055    29.227     8.859
    62   6 C        2.933     0.096    25.875     8.342
    63  35 Br       1.140    -0.126   188.536    22.139
    64  16 S        2.396     0.020   140.251    19.932
    65   6 C        3.008     0.033    27.244     8.562
    66   6 C        2.932    -0.033    28.821     8.804
    67   6 C        3.040     0.008    27.809     8.649
    68   6 C        3.020     0.040    27.076     8.535
    69   6 C        2.948     0.008    27.848     8.655
    70   6 C        1.927     0.131    27.897     8.530
    71   7 N        0.911    -0.268    26.927     7.505
    72   6 C        1.933     0.133    27.831     8.520
    73   7 N        0.911    -0.273    27.049     7.522
    74   1 H        0.925     0.084     1.933     2.174
    75   1 H        0.926     0.100     1.785     2.089
    76   1 H        0.926     0.097     1.811     2.104
    77   1 H        0.924     0.060     2.204     2.322
    78   1 H        0.924     0.063     2.168     2.303
    79   1 H        0.925     0.041     2.434     2.440
    80   1 H        0.925     0.045     2.386     2.416
    81   1 H        0.925     0.057     2.232     2.336
    82   1 H        0.924     0.056     2.244     2.343
    83   1 H        0.924     0.060     2.196     2.317
    84   1 H        0.925     0.051     2.305     2.374
    85   1 H        0.925     0.044     2.392     2.419
    86   1 H        0.925     0.050     2.321     2.382
    87   1 H        0.924     0.072     2.064     2.247
    88   1 H        0.924     0.082     1.958     2.188
    89   1 H        0.925     0.050     2.318     2.381
    90   1 H        0.925     0.059     2.213     2.326
    91   1 H        0.925     0.051     2.307     2.375
    92   1 H        0.924     0.073     2.051     2.240
    93   1 H        0.924     0.074     2.047     2.237
    94   1 H        0.925     0.050     2.317     2.381
    95   1 H        0.925     0.058     2.226     2.333
    96   1 H        0.925     0.052     2.293     2.368
    97   1 H        0.925     0.086     1.914     2.164
    98   1 H        0.926     0.074     2.044     2.236
    99   1 H        0.926     0.077     2.010     2.217
   100   1 H        0.926     0.068     2.102     2.267

 Mol. C6AA /au·bohr⁶  :     209522.296106
 Mol. C8AA /au·bohr⁸  :    6212055.401118
 Mol. α(0) /au        :        729.316619


Wiberg/Mayer (AO) data.
largest (>0.10) Wiberg bond orders for each atom

 ---------------------------------------------------------------------------
     #   Z sym  total        # sym  WBO       # sym  WBO       # sym  WBO
 ---------------------------------------------------------------------------
     1   6 C    3.939 --     2 C    1.449    19 C    1.347    74 H    0.929
     2   6 C    3.952 --     1 C    1.449    13 C    1.153     3 C    1.085
     3   6 C    3.912 --     4 O    1.684     2 C    1.085     5 C    1.018
     4   8 O    2.086 --     3 C    1.684    49 S    0.127
     5   6 C    3.975 --     6 C    1.419    12 C    1.300     3 C    1.018
     6   6 C    3.973 --     5 C    1.419     7 C    1.383    75 H    0.958
     7   6 C    3.874 --     6 C    1.383     9 C    1.338     8 F    0.976
     8   9 F    1.110 --     7 C    0.976
     9   6 C    3.880 --    11 C    1.387     7 C    1.338    10 F    0.979
    10   9 F    1.114 --     9 C    0.979
    11   6 C    3.969 --    12 C    1.405     9 C    1.387    76 H    0.953
    12   6 C    3.981 --    11 C    1.405     5 C    1.300    13 C    1.077
    13   6 C    3.969 --    14 C    1.477     2 C    1.153    12 C    1.077
    14   6 C    3.944 --    13 C    1.477    15 C    1.101    17 C    1.097
    15   6 C    3.943 --    16 N    2.744    14 C    1.101
    16   7 N    2.959 --    15 C    2.744
    17   6 C    3.943 --    18 N    2.760    14 C    1.097
    18   7 N    2.963 --    17 C    2.760
    19   6 C    3.930 --     1 C    1.347    20 C    1.311    49 S    1.069
    20   6 C    3.954 --    23 C    1.377    19 C    1.311    21 C    1.019
    21   6 C    3.991 --    20 C    1.019    22 C    0.989    78 H    0.967
                            77 H    0.962
    22   6 C    3.988 --    21 C    0.989    80 H    0.988    79 H    0.987
                            81 H    0.983
    23   6 C    3.928 --    20 C    1.377    48 C    1.278    24 S    1.077
    24  16 S    2.503 --    25 C    1.114    23 C    1.077
    25   6 C    3.914 --    47 C    1.290    26 C    1.287    24 S    1.114
    26   6 C    3.954 --    25 C    1.287    45 C    1.259    27 C    1.170
    27   6 C    3.972 --    31 N    1.423    28 C    1.171    26 C    1.170
                            30 S    0.103
    28   6 C    3.972 --    29 N    1.423    27 C    1.171    32 C    1.170
                            30 S    0.103
    29   7 N    3.062 --    28 C    1.423    30 S    1.390    31 N    0.143
    30  16 S    3.108 --    29 N    1.390    31 N    1.390    28 C    0.103
                            27 C    0.103
    31   7 N    3.062 --    27 C    1.423    30 S    1.390    29 N    0.143
    32   6 C    3.954 --    33 C    1.280    44 C    1.267    28 C    1.170
    33   6 C    3.917 --    42 C    1.291    32 C    1.280    34 S    1.118
    34  16 S    2.521 --    33 C    1.118    35 C    1.090
    35   6 C    3.928 --    36 C    1.319    41 C    1.314    34 S    1.090
    36   6 C    3.965 --    39 C    1.385    35 C    1.319    37 C    1.019
    37   6 C    3.991 --    36 C    1.019    38 C    0.990    83 H    0.969
                            82 H    0.961
    38   6 C    3.987 --    37 C    0.990    86 H    0.988    85 H    0.987
                            84 H    0.984
    39   6 C    3.922 --    36 C    1.385    54 C    1.267    40 S    1.062
    40  16 S    2.546 --    41 C    1.125    39 C    1.062
    41   6 C    3.934 --    35 C    1.314    42 C    1.258    40 S    1.125
    42   6 C    3.938 --    33 C    1.291    41 C    1.258    43 N    1.163
    43   7 N    3.563 --    44 C    1.171    42 C    1.163    52 C    0.978
    44   6 C    3.927 --    32 C    1.267    45 C    1.224    43 N    1.171
    45   6 C    3.926 --    26 C    1.259    44 C    1.224    46 N    1.180
    46   7 N    3.565 --    45 C    1.180    47 C    1.160    50 C    0.977
    47   6 C    3.938 --    25 C    1.290    48 C    1.261    46 N    1.160
    48   6 C    3.941 --    23 C    1.278    47 C    1.261    49 S    1.160
    49  16 S    2.716 --    48 C    1.160    19 C    1.069     4 O    0.127
    50   6 C    3.955 --    51 C    1.007    46 N    0.977    88 H    0.961
                            87 H    0.953
    51   6 C    3.987 --    50 C    1.007    91 H    0.986    89 H    0.983
                            90 H    0.982
    52   6 C    3.957 --    53 C    1.007    43 N    0.978    93 H    0.963
                            92 H    0.953
    53   6 C    3.987 --    52 C    1.007    94 H    0.986    96 H    0.982
                            95 H    0.982
    54   6 C    3.944 --    55 C    1.527    39 C    1.267    97 H    0.938
    55   6 C    3.953 --    54 C    1.527    68 C    1.141    56 C    1.024
    56   6 C    3.913 --    57 O    1.745    55 C    1.024    58 C    1.020
    57   8 O    2.015 --    56 C    1.745
    58   6 C    3.976 --    59 C    1.473    67 C    1.242    56 C    1.020
    59   6 C    3.970 --    58 C    1.473    60 C    1.314    98 H    0.961
    60   6 C    3.974 --    59 C    1.314    65 C    1.268    61 C    1.204
    61   6 C    3.974 --    62 C    1.611    60 C    1.204    99 H    0.958
    62   6 C    3.897 --    61 C    1.611    64 S    1.132    63 Br   1.025
    63  35 Br   1.163 --    62 C    1.025
    64  16 S    2.560 --    62 C    1.132    65 C    1.122
    65   6 C    3.949 --    66 C    1.374    60 C    1.268    64 S    1.122
    66   6 C    3.971 --    67 C    1.432    65 C    1.374   100 H    0.959
    67   6 C    3.976 --    66 C    1.432    58 C    1.242    68 C    1.086
    68   6 C    3.966 --    69 C    1.465    55 C    1.141    67 C    1.086
    69   6 C    3.956 --    68 C    1.465    70 C    1.107    72 C    1.101
    70   6 C    3.943 --    71 N    2.755    69 C    1.107
    71   7 N    2.959 --    70 C    2.755
    72   6 C    3.944 --    73 N    2.756    69 C    1.101
    73   7 N    2.968 --    72 C    2.756
    74   1 H    0.992 --     1 C    0.929
    75   1 H    0.989 --     6 C    0.958
    76   1 H    0.990 --    11 C    0.953
    77   1 H    0.995 --    21 C    0.962
    78   1 H    0.995 --    21 C    0.967
    79   1 H    0.998 --    22 C    0.987
    80   1 H    0.998 --    22 C    0.988
    81   1 H    0.995 --    22 C    0.983
    82   1 H    0.995 --    37 C    0.961
    83   1 H    0.995 --    37 C    0.969
    84   1 H    0.996 --    38 C    0.984
    85   1 H    0.998 --    38 C    0.987
    86   1 H    0.997 --    38 C    0.988
    87   1 H    0.992 --    50 C    0.953
    88   1 H    0.993 --    50 C    0.961
    89   1 H    0.997 --    51 C    0.983
    90   1 H    0.995 --    51 C    0.982
    91   1 H    0.997 --    51 C    0.986
    92   1 H    0.992 --    52 C    0.953
    93   1 H    0.994 --    52 C    0.963
    94   1 H    0.997 --    53 C    0.986
    95   1 H    0.996 --    53 C    0.982
    96   1 H    0.997 --    53 C    0.982
    97   1 H    0.990 --    54 C    0.938
    98   1 H    0.994 --    59 C    0.961
    99   1 H    0.994 --    61 C    0.958
   100   1 H    0.994 --    66 C    0.959
 ---------------------------------------------------------------------------

Topologies differ in bond orders
Writing corrected topology to xtbtopo.mol

molecular dipole:
                 x           y           z       tot (Debye)
 q only:        2.545      -0.729      -1.477
   full:        2.215      -1.040      -1.911       7.893
molecular quadrupole (traceless):
                xx          xy          yy          xz          yz          zz
 q only:       14.214      36.354     -50.635      24.319     -61.776      36.421
  q+dip:        5.280      24.615     -47.541       5.801     -60.092      42.261
   full:       -1.864      28.580     -43.695       4.393     -69.238      45.559


           -------------------------------------------------
          | TOTAL ENERGY             -193.976374514264 Eh   |
          | GRADIENT NORM               0.022195374212 Eh/α |
          | HOMO-LUMO GAP               1.028200002638 eV   |
           -------------------------------------------------

------------------------------------------------------------------------
 * finished run on 2022/02/02 at 02:33:44.658     
------------------------------------------------------------------------
 total:
 * wall-time:     0 d,  0 h,  0 min,  0.361 sec
 *  cpu-time:     0 d,  0 h,  0 min,  2.800 sec
 * ratio c/w:     7.764 speedup
 SCF:
 * wall-time:     0 d,  0 h,  0 min,  0.301 sec
 *  cpu-time:     0 d,  0 h,  0 min,  2.394 sec
 * ratio c/w:     7.964 speedup

