      -----------------------------------------------------------      
     |                   =====================                   |     
     |                           x T B                           |     
     |                   =====================                   |     
     |                         S. Grimme                         |     
     |          Mulliken Center for Theoretical Chemistry        |     
     |                    University of Bonn                     |     
      -----------------------------------------------------------      

   * xtb version 6.4.1 (unknown) compiled by 'oda6@login1.crc.pitt.edu' on 2021-06-25

   xtb is free software: you can redistribute it and/or modify it under
   the terms of the GNU Lesser General Public License as published by
   the Free Software Foundation, either version 3 of the License, or
   (at your option) any later version.
   
   xtb is distributed in the hope that it will be useful,
   but WITHOUT ANY WARRANTY; without even the implied warranty of
   MERCHANTABILITY or FITNESS FOR A PARTICULAR PURPOSE.  See the
   GNU Lesser General Public License for more details.
   
   Cite this work as:
   * C. Bannwarth, E. Caldeweyher, S. Ehlert, A. Hansen, P. Pracht,
     J. Seibert, S. Spicher, S. Grimme, WIREs Comput. Mol. Sci., 2020, 11,
     e01493. DOI: 10.1002/wcms.1493
   
   for GFN2-xTB:
   * C. Bannwarth, S. Ehlert and S. Grimme., J. Chem. Theory Comput., 2019,
     15, 1652-1671. DOI: 10.1021/acs.jctc.8b01176
   for GFN1-xTB:
   * S. Grimme, C. Bannwarth, P. Shushkov, J. Chem. Theory Comput., 2017,
     13, 1989-2009. DOI: 10.1021/acs.jctc.7b00118
   for GFN0-xTB:
   * P. Pracht, E. Caldeweyher, S. Ehlert, S. Grimme, ChemRxiv, 2019, preprint.
     DOI: 10.26434/chemrxiv.8326202.v1
   for GFN-FF:
   * S. Spicher and S. Grimme, Angew. Chem. Int. Ed., 2020, 59, 15665-15673.
     DOI: 10.1002/anie.202004239
   
   for DFT-D4:
   * E. Caldeweyher, C. Bannwarth and S. Grimme, J. Chem. Phys., 2017,
     147, 034112. DOI: 10.1063/1.4993215
   * E. Caldeweyher, S. Ehlert, A. Hansen, H. Neugebauer, S. Spicher,
     C. Bannwarth and S. Grimme, J. Chem. Phys., 2019, 150, 154122.
     DOI: 10.1063/1.5090222
   * E. Caldeweyher, J.-M. Mewes, S. Ehlert and S. Grimme, Phys. Chem. Chem. Phys.
     2020, 22, 8499-8512. DOI: 10.1039/D0CP00502A
   
   for sTDA-xTB:
   * S. Grimme and C. Bannwarth, J. Chem. Phys., 2016, 145, 054103.
     DOI: 10.1063/1.4959605
   
   in the mass-spec context:
   * V. Asgeirsson, C. Bauer and S. Grimme, Chem. Sci., 2017, 8, 4879.
     DOI: 10.1039/c7sc00601b
   * J. Koopman and S. Grimme, ACS Omega 2019, 4, 12, 15120-15133.
     DOI: 10.1021/acsomega.9b02011
   
   for metadynamics refer to:
   * S. Grimme, J. Chem. Theory Comput., 2019, 155, 2847-2862
     DOI: 10.1021/acs.jctc.9b00143
   
   for SPH calculations refer to:
   * S. Spicher and S. Grimme, J. Chem. Theory Comput., 2021, 17, 1701-1714
     DOI: 10.1021/acs.jctc.0c01306
   
   with help from (in alphabetical order)
   P. Atkinson, C. Bannwarth, F. Bohle, G. Brandenburg, E. Caldeweyher
   M. Checinski, S. Dohm, S. Ehlert, S. Ehrlich, I. Gerasimov, J. Koopman
   C. Lavigne, S. Lehtola, F. März, M. Müller, F. Musil, H. Neugebauer
   J. Pisarek, C. Plett, P. Pracht, J. Seibert, P. Shushkov, S. Spicher
   M. Stahn, M. Steiner, T. Strunk, J. Stückrath, T. Rose, and J. Unsleber
   
 * started run on 2022/02/01 at 16:47:47.387     

           -------------------------------------------------
          |                Calculation Setup                |
           -------------------------------------------------

          program call               : /ihome/ghutchison/oda6/xtb/xtb-641/bin/xtb ../../GFN2_output/26_4_4.mol --sp --alpb hexane
          hostname                   : smp-n66
          coordinate file            : ../../GFN2_output/26_4_4.mol
          omp threads                :                     8
          number of atoms            :                   131
          number of electrons        :                   420
          charge                     :                     0
          spin                       :                   0.0
          first test random number   :      0.32606740049819

   ID    Z sym.   atoms
    1    6 C      1-3, 5-8, 10-14, 16, 18, 20-22, 24-43, 45, 46, 48-67, 69,
                  70, 72-74, 76-78, 81-84, 86
    2    8 O      4, 23, 68, 75
    3   53 I      9
    4    7 N      15, 17, 85, 87
    5   16 S      19, 44, 47, 71, 80
    6   17 Cl     79
    7    1 H      88-131

           -------------------------------------------------
          |                 G F N 2 - x T B                 |
           -------------------------------------------------

        Reference                      10.1021/acs.jctc.8b01176
      * Hamiltonian:
        H0-scaling (s, p, d)           1.850000    2.230000    2.230000
        zeta-weighting                 0.500000
      * Dispersion:
        s8                             2.700000
        a1                             0.520000
        a2                             5.000000
        s9                             5.000000
      * Repulsion:
        kExp                           1.500000    1.000000
        rExp                           1.000000
      * Coulomb:
        alpha                          2.000000
        third order                    shell-resolved
        anisotropic                    true
        a3                             3.000000
        a5                             4.000000
        cn-shift                       1.200000
        cn-exp                         4.000000
        max-rad                        5.000000

      * Solvation model:               ALPB
        Solvent                        hexane
        Parameter file                 internal GFN2-xTB/ALPB
        Dielectric constant                1.8800E+00
        Reference state                gsolv [1 M gas/solution]
        Free energy shift                  4.8134E-03 Eh       3.0204E+00 kcal/mol
        Temperature                        2.9815E+02 K
        Density                            6.6000E-01 kg/L
        Solvent mass                       8.6180E+01 g/mol
        Interaction kernel             P16
        Born radius scaling (c1)           1.1040E+00
        Born radii integrator          GBOBC
        Born offset                        0.0000E+00 a0       0.0000E+00 AA
        H-bond correction              false
        Ion screening                  false
        Surface tension                    1.0000E-05 Eh       1.5569E+01 dyn/cm
        Grid points                               230 per atom

          ...................................................
          :                      SETUP                      :
          :.................................................:
          :  # basis functions                 434          :
          :  # atomic orbitals                 427          :
          :  # shells                          225          :
          :  # electrons                       420          :
          :  max. iterations                   250          :
          :  Hamiltonian                  GFN2-xTB          :
          :  restarted?                      false          :
          :  GBSA solvation                   true          :
          :  PC potential                    false          :
          :  electronic temp.          300.0000000     K    :
          :  accuracy                    1.0000000          :
          :  -> integral cutoff          0.2500000E+02      :
          :  -> integral neglect         0.1000000E-07      :
          :  -> SCF convergence          0.1000000E-05 Eh   :
          :  -> wf. convergence          0.1000000E-03 e    :
          :  Broyden damping             0.4000000          :
          ...................................................

 iter      E             dE          RMSdq      gap      omega  full diag
   1   -232.6357218 -0.232636E+03  0.481E+00    1.04       0.0  T
   2   -232.7543366 -0.118615E+00  0.287E+00    1.00       1.0  T
   3   -232.5833255  0.171011E+00  0.154E+00    0.70       1.0  T
   4   -232.8036925 -0.220367E+00  0.456E-01    0.93       1.0  T
   5   -232.8180571 -0.143646E-01  0.186E-01    0.83       1.0  T
   6   -232.8191298 -0.107269E-02  0.106E-01    0.89       1.0  T
   7   -232.8195351 -0.405370E-03  0.553E-02    0.86       1.0  T
   8   -232.8196468 -0.111653E-03  0.383E-02    0.87       1.0  T
   9   -232.8196732 -0.263960E-04  0.248E-02    0.87       1.0  T
  10   -232.8196982 -0.250435E-04  0.149E-02    0.87       1.0  T
  11   -232.8197068 -0.857340E-05  0.827E-03    0.87       1.1  T
  12   -232.8197094 -0.259696E-05  0.570E-03    0.87       1.5  T
  13   -232.8197107 -0.133154E-05  0.403E-03    0.87       2.2  T
  14   -232.8197115 -0.747470E-06  0.250E-03    0.87       3.5  T
  15   -232.8197117 -0.276414E-06  0.157E-03    0.87       5.6  T
  16   -232.8197119 -0.112073E-06  0.727E-04    0.87      12.0  T
  17   -232.8197119 -0.325245E-07  0.346E-04    0.87      25.2  T

   *** convergence criteria satisfied after 17 iterations ***

         #    Occupation            Energy/Eh            Energy/eV
      -------------------------------------------------------------
         1        2.0000           -1.0881656             -29.6105
       ...           ...                  ...                  ...
       204        2.0000           -0.4050681             -11.0225
       205        2.0000           -0.4044873             -11.0067
       206        2.0000           -0.4005829             -10.9004
       207        2.0000           -0.4000026             -10.8846
       208        2.0000           -0.3975165             -10.8170
       209        2.0000           -0.3923765             -10.6771
       210        2.0000           -0.3732965             -10.1579 (HOMO)
       211                         -0.3411729              -9.2838 (LUMO)
       212                         -0.3369741              -9.1695
       213                         -0.3288118              -8.9474
       214                         -0.3207761              -8.7288
       215                         -0.2944348              -8.0120
       ...                                ...                  ...
       427                          1.1548528              31.4251
      -------------------------------------------------------------
                  HL-Gap            0.0321236 Eh            0.8741 eV
             Fermi-level           -0.3572404 Eh           -9.7210 eV

 SCC (total)                   0 d,  0 h,  0 min,  0.391 sec
 SCC setup                      ...        0 min,  0.003 sec (  0.811%)
 Dispersion                     ...        0 min,  0.006 sec (  1.419%)
 classical contributions        ...        0 min,  0.000 sec (  0.051%)
 integral evaluation            ...        0 min,  0.016 sec (  4.073%)
 iterations                     ...        0 min,  0.311 sec ( 79.539%)
 molecular gradient             ...        0 min,  0.054 sec ( 13.720%)
 printout                       ...        0 min,  0.001 sec (  0.366%)

         :::::::::::::::::::::::::::::::::::::::::::::::::::::
         ::                     SUMMARY                     ::
         :::::::::::::::::::::::::::::::::::::::::::::::::::::
         :: total energy            -229.133888657125 Eh    ::
         :: total w/o Gsasa/hb      -229.046478006770 Eh    ::
         :: gradient norm              0.018680867491 Eh/a0 ::
         :: HOMO-LUMO gap              0.874128688585 eV    ::
         ::.................................................::
         :: SCC energy              -232.819711893106 Eh    ::
         :: -> isotropic ES            0.142991083404 Eh    ::
         :: -> anisotropic ES          0.017341853923 Eh    ::
         :: -> anisotropic XC          0.139116040250 Eh    ::
         :: -> dispersion             -0.206975024495 Eh    ::
         :: -> Gsolv                  -0.106374740908 Eh    ::
         ::    -> Gelec               -0.018964090553 Eh    ::
         ::    -> Gsasa               -0.092224006175 Eh    ::
         ::    -> Ghb                  0.000000000000 Eh    ::
         ::    -> Gshift               0.004813355820 Eh    ::
         :: repulsion energy           3.685041346052 Eh    ::
         :: add. restraining           0.000000000000 Eh    ::
         :: total charge              -0.000000001094 e     ::
         :::::::::::::::::::::::::::::::::::::::::::::::::::::

           -------------------------------------------------
          |                Property Printout                |
           -------------------------------------------------

    * Orbital Energies and Occupations

         #    Occupation            Energy/Eh            Energy/eV
      -------------------------------------------------------------
         1        2.0000           -1.0881656             -29.6105
       ...           ...                  ...                  ...
       198        2.0000           -0.4151143             -11.2958
       199        2.0000           -0.4144342             -11.2773
       200        2.0000           -0.4127489             -11.2315
       201        2.0000           -0.4125391             -11.2258
       202        2.0000           -0.4118597             -11.2073
       203        2.0000           -0.4109128             -11.1815
       204        2.0000           -0.4050681             -11.0225
       205        2.0000           -0.4044873             -11.0067
       206        2.0000           -0.4005829             -10.9004
       207        2.0000           -0.4000026             -10.8846
       208        2.0000           -0.3975165             -10.8170
       209        2.0000           -0.3923765             -10.6771
       210        2.0000           -0.3732965             -10.1579 (HOMO)
       211                         -0.3411729              -9.2838 (LUMO)
       212                         -0.3369741              -9.1695
       213                         -0.3288118              -8.9474
       214                         -0.3207761              -8.7288
       215                         -0.2944348              -8.0120
       216                         -0.2723233              -7.4103
       217                         -0.2635361              -7.1712
       218                         -0.2558018              -6.9607
       219                         -0.2504055              -6.8139
       220                         -0.2496657              -6.7937
       221                         -0.2484051              -6.7594
       ...                                ...                  ...
       427                          1.1548528              31.4251
      -------------------------------------------------------------
                  HL-Gap            0.0321236 Eh            0.8741 eV
             Fermi-level           -0.3572404 Eh           -9.7210 eV

     #   Z          covCN         q      C6AA      α(0)
     1   6 C        2.918    -0.014    28.354     8.732
     2   6 C        3.009    -0.039    28.957     8.827
     3   6 C        2.874     0.231    23.169     7.891
     4   8 O        0.967    -0.396    21.546     6.226
     5   6 C        3.044    -0.017    28.388     8.739
     6   6 C        2.915    -0.013    28.349     8.731
     7   6 C        3.058    -0.027    28.607     8.771
     8   6 C        2.959     0.069    26.456     8.437
     9  53 I        1.239    -0.114   380.364    33.667
    10   6 C        3.053    -0.031    28.714     8.788
    11   6 C        3.040     0.011    27.732     8.637
    12   6 C        3.019     0.035    27.185     8.553
    13   6 C        2.947     0.010    27.789     8.646
    14   6 C        1.944     0.132    27.849     8.522
    15   7 N        0.911    -0.266    26.897     7.501
    16   6 C        1.946     0.133    27.831     8.519
    17   7 N        0.911    -0.260    26.739     7.479
    18   6 C        2.983     0.025    27.437     8.592
    19  16 S        2.355     0.063   138.487    19.806
    20   6 C        3.029     0.019    27.548     8.609
    21   6 C        3.026    -0.013    28.302     8.726
    22   6 C        3.005     0.146    24.805     8.170
    23   8 O        1.702    -0.272    18.509     5.809
    24   6 C        3.808     0.141    18.297     6.089
    25   6 C        3.128    -0.014    28.151     8.687
    26   6 C        3.082    -0.044    29.006     8.829
    27   6 C        2.975    -0.010    28.250     8.718
    28   6 C        2.923    -0.032    28.788     8.799
    29   6 C        2.925    -0.038    28.936     8.822
    30   6 C        2.971     0.016    27.649     8.625
    31   6 C        3.807    -0.061    21.668     6.626
    32   6 C        3.754    -0.101    22.481     6.761
    33   6 C        2.926    -0.039    28.973     8.827
    34   6 C        2.919    -0.040    28.995     8.830
    35   6 C        2.980    -0.002    28.063     8.690
    36   6 C        2.922    -0.033    28.811     8.802
    37   6 C        2.926    -0.038    28.952     8.824
    38   6 C        2.971     0.016    27.642     8.624
    39   6 C        3.807    -0.061    21.673     6.627
    40   6 C        3.754    -0.101    22.488     6.762
    41   6 C        2.926    -0.038    28.945     8.823
    42   6 C        2.921    -0.038    28.948     8.823
    43   6 C        3.157    -0.008    27.906     8.637
    44  16 S        2.210     0.017   140.378    19.941
    45   6 C        3.025    -0.012    28.293     8.725
    46   6 C        3.028     0.018    27.574     8.613
    47  16 S        2.335     0.066   138.399    19.800
    48   6 C        2.984     0.024    27.466     8.597
    49   6 C        3.081    -0.045    29.014     8.831
    50   6 C        3.132    -0.015    28.166     8.688
    51   6 C        3.814     0.141    18.292     6.087
    52   6 C        2.978    -0.001    28.055     8.688
    53   6 C        2.922    -0.033    28.816     8.803
    54   6 C        2.926    -0.038    28.949     8.824
    55   6 C        2.971     0.016    27.646     8.625
    56   6 C        3.807    -0.061    21.674     6.627
    57   6 C        3.754    -0.101    22.487     6.762
    58   6 C        2.926    -0.038    28.954     8.824
    59   6 C        2.921    -0.039    28.964     8.826
    60   6 C        2.976    -0.011    28.284     8.724
    61   6 C        2.923    -0.033    28.821     8.804
    62   6 C        2.925    -0.038    28.955     8.824
    63   6 C        2.971     0.015    27.663     8.627
    64   6 C        3.806    -0.061    21.662     6.626
    65   6 C        3.754    -0.101    22.487     6.762
    66   6 C        2.926    -0.039    28.970     8.827
    67   6 C        2.920    -0.040    29.000     8.831
    68   8 O        1.702    -0.274    18.546     5.814
    69   6 C        3.014     0.144    24.847     8.177
    70   6 C        3.158    -0.006    27.866     8.631
    71  16 S        2.209     0.014   140.473    19.948
    72   6 C        2.917    -0.013    28.329     8.728
    73   6 C        3.026    -0.040    28.967     8.828
    74   6 C        2.879     0.237    23.064     7.873
    75   8 O        0.944    -0.383    21.309     6.191
    76   6 C        3.233    -0.027    27.792     8.556
    77   6 C        3.067    -0.043    28.997     8.830
    78   6 C        2.924     0.101    25.756     8.323
    79  17 Cl       1.018    -0.122   102.983    15.526
    80  16 S        2.329     0.091   137.396    19.728
    81   6 C        3.079     0.010    27.703     8.629
    82   6 C        3.026     0.037    27.136     8.545
    83   6 C        2.947     0.010    27.783     8.645
    84   6 C        1.925     0.133    27.850     8.522
    85   7 N        0.911    -0.263    26.811     7.489
    86   6 C        1.933     0.129    27.923     8.534
    87   7 N        0.911    -0.250    26.504     7.446
    88   1 H        0.925     0.077     2.014     2.219
    89   1 H        0.926     0.073     2.054     2.241
    90   1 H        0.926     0.072     2.065     2.247
    91   1 H        0.926     0.073     2.056     2.242
    92   1 H        0.926     0.066     2.132     2.283
    93   1 H        0.926     0.044     2.400     2.423
    94   1 H        0.926     0.042     2.419     2.432
    95   1 H        0.924     0.042     2.427     2.436
    96   1 H        0.924     0.043     2.410     2.428
    97   1 H        0.925     0.037     2.492     2.468
    98   1 H        0.925     0.038     2.474     2.460
    99   1 H        0.925     0.041     2.436     2.441
   100   1 H        0.926     0.040     2.455     2.450
   101   1 H        0.926     0.030     2.585     2.514
   102   1 H        0.926     0.039     2.456     2.451
   103   1 H        0.926     0.041     2.438     2.442
   104   1 H        0.924     0.043     2.408     2.426
   105   1 H        0.924     0.042     2.427     2.436
   106   1 H        0.925     0.038     2.477     2.461
   107   1 H        0.925     0.038     2.473     2.459
   108   1 H        0.925     0.041     2.441     2.443
   109   1 H        0.926     0.043     2.407     2.426
   110   1 H        0.926     0.036     2.501     2.473
   111   1 H        0.926     0.066     2.130     2.282
   112   1 H        0.926     0.042     2.423     2.434
   113   1 H        0.926     0.041     2.438     2.442
   114   1 H        0.924     0.042     2.424     2.435
   115   1 H        0.924     0.043     2.411     2.428
   116   1 H        0.925     0.038     2.479     2.462
   117   1 H        0.925     0.040     2.443     2.444
   118   1 H        0.925     0.038     2.477     2.461
   119   1 H        0.926     0.042     2.417     2.431
   120   1 H        0.926     0.036     2.496     2.471
   121   1 H        0.926     0.042     2.416     2.431
   122   1 H        0.926     0.041     2.436     2.441
   123   1 H        0.924     0.041     2.431     2.438
   124   1 H        0.924     0.041     2.429     2.437
   125   1 H        0.925     0.038     2.474     2.460
   126   1 H        0.925     0.041     2.439     2.442
   127   1 H        0.925     0.038     2.472     2.459
   128   1 H        0.926     0.040     2.451     2.448
   129   1 H        0.926     0.031     2.572     2.508
   130   1 H        0.925     0.079     1.987     2.205
   131   1 H        0.926     0.092     1.857     2.131

 Mol. C6AA /au·bohr⁶  :     322552.777535
 Mol. C8AA /au·bohr⁸  :    9511434.167145
 Mol. α(0) /au        :        910.845270


Wiberg/Mayer (AO) data.
largest (>0.10) Wiberg bond orders for each atom

 ---------------------------------------------------------------------------
     #   Z sym  total        # sym  WBO       # sym  WBO       # sym  WBO
 ---------------------------------------------------------------------------
     1   6 C    3.940 --     2 C    1.457    18 C    1.332    88 H    0.938
     2   6 C    3.949 --     1 C    1.457    12 C    1.155     3 C    1.079
     3   6 C    3.907 --     4 O    1.681     2 C    1.079     5 C    1.023
     4   8 O    2.087 --     3 C    1.681    19 S    0.133
     5   6 C    3.976 --     6 C    1.418    11 C    1.294     3 C    1.023
     6   6 C    3.978 --     7 C    1.419     5 C    1.418    89 H    0.963
     7   6 C    3.969 --     8 C    1.420     6 C    1.419    90 H    0.966
     8   6 C    3.946 --     7 C    1.420    10 C    1.404     9 I    0.983
     9  53 I    1.099 --     8 C    0.983
    10   6 C    3.973 --    11 C    1.410     8 C    1.404    91 H    0.958
    11   6 C    3.981 --    10 C    1.410     5 C    1.294    12 C    1.073
    12   6 C    3.963 --    13 C    1.476     2 C    1.155    11 C    1.073
    13   6 C    3.942 --    12 C    1.476    14 C    1.101    16 C    1.098
    14   6 C    3.942 --    15 N    2.746    13 C    1.101
    15   7 N    2.956 --    14 C    2.746
    16   6 C    3.942 --    17 N    2.757    13 C    1.098
    17   7 N    2.961 --    16 C    2.757
    18   6 C    3.932 --     1 C    1.332    26 C    1.327    19 S    1.104
    19  16 S    2.762 --    20 C    1.200    18 C    1.104     4 O    0.133
    20   6 C    3.942 --    25 C    1.308    21 C    1.231    19 S    1.200
    21   6 C    3.910 --    22 C    1.333    20 C    1.231    71 S    1.105
    22   6 C    3.912 --    21 C    1.333    43 C    1.266    23 O    1.106
    23   8 O    2.247 --    22 C    1.106    24 C    0.899
    24   6 C    3.914 --    25 C    0.972    35 C    0.959    27 C    0.951
                            23 O    0.899
    25   6 C    3.951 --    26 C    1.449    20 C    1.308    24 C    0.972
    26   6 C    3.965 --    25 C    1.449    18 C    1.327    92 H    0.959
    27   6 C    3.974 --    34 C    1.420    28 C    1.402    24 C    0.951
                            30 C    0.106
    28   6 C    3.989 --    29 C    1.457    27 C    1.402    93 H    0.968
                            33 C    0.110
    29   6 C    3.990 --    28 C    1.457    30 C    1.403    94 H    0.968
                            34 C    0.107
    30   6 C    3.987 --    33 C    1.415    29 C    1.403    31 C    1.014
                            27 C    0.106
    31   6 C    3.997 --    30 C    1.014    32 C    1.000    95 H    0.974
                            96 H    0.973
    32   6 C    3.995 --    31 C    1.000    97 H    0.988    98 H    0.988
                            99 H    0.986
    33   6 C    3.990 --    34 C    1.440    30 C    1.415   100 H    0.968
                            28 C    0.110
    34   6 C    3.990 --    33 C    1.440    27 C    1.420   101 H    0.965
                            29 C    0.107
    35   6 C    3.979 --    36 C    1.413    42 C    1.408    24 C    0.959
                            38 C    0.106
    36   6 C    3.989 --    37 C    1.446    35 C    1.413   102 H    0.967
                            41 C    0.108
    37   6 C    3.990 --    36 C    1.446    38 C    1.411   103 H    0.968
                            42 C    0.109
    38   6 C    3.986 --    37 C    1.411    41 C    1.407    39 C    1.014
                            35 C    0.106
    39   6 C    3.997 --    38 C    1.014    40 C    1.000   105 H    0.974
                           104 H    0.973
    40   6 C    3.995 --    39 C    1.000   106 H    0.988   107 H    0.988
                           108 H    0.986
    41   6 C    3.990 --    42 C    1.450    38 C    1.407   109 H    0.968
                            36 C    0.108
    42   6 C    3.990 --    41 C    1.450    35 C    1.408   110 H    0.966
                            37 C    0.109
    43   6 C    3.929 --    70 C    1.314    22 C    1.266    44 S    1.115
    44  16 S    2.547 --    43 C    1.115    45 C    1.110
    45   6 C    3.909 --    69 C    1.340    46 C    1.220    44 S    1.110
    46   6 C    3.944 --    50 C    1.321    45 C    1.220    47 S    1.198
    47  16 S    2.753 --    46 C    1.198    48 C    1.111    75 O    0.119
    48   6 C    3.932 --    49 C    1.343    72 C    1.306    47 S    1.111
    49   6 C    3.965 --    50 C    1.436    48 C    1.343   111 H    0.959
    50   6 C    3.952 --    49 C    1.436    46 C    1.321    51 C    0.969
    51   6 C    3.915 --    50 C    0.969    52 C    0.962    60 C    0.952
                            68 O    0.902
    52   6 C    3.980 --    53 C    1.413    59 C    1.408    51 C    0.962
                            55 C    0.106
    53   6 C    3.989 --    54 C    1.446    52 C    1.413   112 H    0.967
                            58 C    0.108
    54   6 C    3.990 --    53 C    1.446    55 C    1.411   113 H    0.968
                            59 C    0.109
    55   6 C    3.986 --    54 C    1.411    58 C    1.408    56 C    1.014
                            52 C    0.106
    56   6 C    3.997 --    55 C    1.014    57 C    1.000   115 H    0.974
                           114 H    0.973
    57   6 C    3.995 --    56 C    1.000   116 H    0.988   118 H    0.988
                           117 H    0.986
    58   6 C    3.990 --    59 C    1.450    55 C    1.408   119 H    0.968
                            53 C    0.108
    59   6 C    3.990 --    58 C    1.450    52 C    1.408   120 H    0.966
                            54 C    0.109
    60   6 C    3.976 --    67 C    1.415    61 C    1.408    51 C    0.952
                            63 C    0.106
    61   6 C    3.990 --    62 C    1.452    60 C    1.408   121 H    0.968
                            66 C    0.109
    62   6 C    3.990 --    61 C    1.452    63 C    1.407   122 H    0.968
                            67 C    0.108
    63   6 C    3.987 --    66 C    1.412    62 C    1.407    64 C    1.014
                            60 C    0.106
    64   6 C    3.997 --    63 C    1.014    65 C    1.000   123 H    0.974
                           124 H    0.973
    65   6 C    3.995 --    64 C    1.000   127 H    0.988   125 H    0.988
                           126 H    0.986
    66   6 C    3.991 --    67 C    1.445    63 C    1.412   128 H    0.968
                            61 C    0.109
    67   6 C    3.990 --    66 C    1.445    60 C    1.415   129 H    0.966
                            62 C    0.108
    68   8 O    2.243 --    69 C    1.099    51 C    0.902
    69   6 C    3.915 --    45 C    1.340    70 C    1.268    68 O    1.099
    70   6 C    3.928 --    43 C    1.314    69 C    1.268    71 S    1.115
    71  16 S    2.543 --    70 C    1.115    21 C    1.105
    72   6 C    3.945 --    73 C    1.496    48 C    1.306   130 H    0.939
    73   6 C    3.944 --    72 C    1.496    82 C    1.124    74 C    1.060
    74   6 C    3.913 --    75 O    1.695    73 C    1.060    76 C    1.027
    75   8 O    2.095 --    74 C    1.695    47 S    0.119
    76   6 C    3.960 --    81 C    1.386    77 C    1.288    74 C    1.027
    77   6 C    3.973 --    78 C    1.533    76 C    1.288   131 H    0.955
    78   6 C    3.866 --    77 C    1.533    80 S    1.163    79 Cl   1.021
    79  17 Cl   1.171 --    78 C    1.021
    80  16 S    2.685 --    81 C    1.185    78 C    1.163
    81   6 C    3.937 --    76 C    1.386    80 S    1.185    82 C    1.138
    82   6 C    3.967 --    83 C    1.451    81 C    1.138    73 C    1.124
    83   6 C    3.947 --    82 C    1.451    84 C    1.110    86 C    1.100
    84   6 C    3.944 --    85 N    2.747    83 C    1.110
    85   7 N    2.947 --    84 C    2.747
    86   6 C    3.945 --    87 N    2.762    83 C    1.100
    87   7 N    2.970 --    86 C    2.762
    88   1 H    0.993 --     1 C    0.938
    89   1 H    0.994 --     6 C    0.963
    90   1 H    0.994 --     7 C    0.966
    91   1 H    0.994 --    10 C    0.958
    92   1 H    0.995 --    26 C    0.959
    93   1 H    0.998 --    28 C    0.968
    94   1 H    0.998 --    29 C    0.968
    95   1 H    0.998 --    31 C    0.974
    96   1 H    0.998 --    31 C    0.973
    97   1 H    0.999 --    32 C    0.988
    98   1 H    0.999 --    32 C    0.988
    99   1 H    0.997 --    32 C    0.986
   100   1 H    0.998 --    33 C    0.968
   101   1 H    0.999 --    34 C    0.965
   102   1 H    0.998 --    36 C    0.967
   103   1 H    0.998 --    37 C    0.968
   104   1 H    0.998 --    39 C    0.973
   105   1 H    0.998 --    39 C    0.974
   106   1 H    0.999 --    40 C    0.988
   107   1 H    0.999 --    40 C    0.988
   108   1 H    0.997 --    40 C    0.986
   109   1 H    0.998 --    41 C    0.968
   110   1 H    0.998 --    42 C    0.966
   111   1 H    0.995 --    49 C    0.959
   112   1 H    0.998 --    53 C    0.967
   113   1 H    0.998 --    54 C    0.968
   114   1 H    0.998 --    56 C    0.973
   115   1 H    0.998 --    56 C    0.974
   116   1 H    0.999 --    57 C    0.988
   117   1 H    0.997 --    57 C    0.986
   118   1 H    0.999 --    57 C    0.988
   119   1 H    0.998 --    58 C    0.968
   120   1 H    0.998 --    59 C    0.966
   121   1 H    0.998 --    61 C    0.968
   122   1 H    0.998 --    62 C    0.968
   123   1 H    0.998 --    64 C    0.974
   124   1 H    0.998 --    64 C    0.973
   125   1 H    0.999 --    65 C    0.988
   126   1 H    0.997 --    65 C    0.986
   127   1 H    0.999 --    65 C    0.988
   128   1 H    0.998 --    66 C    0.968
   129   1 H    0.999 --    67 C    0.966
   130   1 H    0.993 --    72 C    0.939
   131   1 H    0.991 --    77 C    0.955
 ---------------------------------------------------------------------------

Topologies differ in bond orders
Writing corrected topology to xtbtopo.mol

molecular dipole:
                 x           y           z       tot (Debye)
 q only:       -0.565       0.362       0.924
   full:       -1.049       1.083       0.821       4.365
molecular quadrupole (traceless):
                xx          xy          yy          xz          yz          zz
 q only:       63.298      50.340     -30.811      46.814    -123.698     -32.487
  q+dip:       80.094      56.290     -23.867      50.306    -149.350     -56.227
   full:       82.411      62.521     -23.233      49.497    -149.934     -59.178


           -------------------------------------------------
          | TOTAL ENERGY             -229.133888657125 Eh   |
          | GRADIENT NORM               0.018680867491 Eh/α |
          | HOMO-LUMO GAP               0.874128688585 eV   |
           -------------------------------------------------

------------------------------------------------------------------------
 * finished run on 2022/02/01 at 16:47:47.851     
------------------------------------------------------------------------
 total:
 * wall-time:     0 d,  0 h,  0 min,  0.464 sec
 *  cpu-time:     0 d,  0 h,  0 min,  3.621 sec
 * ratio c/w:     7.811 speedup
 SCF:
 * wall-time:     0 d,  0 h,  0 min,  0.393 sec
 *  cpu-time:     0 d,  0 h,  0 min,  3.137 sec
 * ratio c/w:     7.982 speedup

