      -----------------------------------------------------------      
     |                   =====================                   |     
     |                           x T B                           |     
     |                   =====================                   |     
     |                         S. Grimme                         |     
     |          Mulliken Center for Theoretical Chemistry        |     
     |                    University of Bonn                     |     
      -----------------------------------------------------------      

   * xtb version 6.4.1 (unknown) compiled by 'oda6@login1.crc.pitt.edu' on 2021-06-25

   xtb is free software: you can redistribute it and/or modify it under
   the terms of the GNU Lesser General Public License as published by
   the Free Software Foundation, either version 3 of the License, or
   (at your option) any later version.
   
   xtb is distributed in the hope that it will be useful,
   but WITHOUT ANY WARRANTY; without even the implied warranty of
   MERCHANTABILITY or FITNESS FOR A PARTICULAR PURPOSE.  See the
   GNU Lesser General Public License for more details.
   
   Cite this work as:
   * C. Bannwarth, E. Caldeweyher, S. Ehlert, A. Hansen, P. Pracht,
     J. Seibert, S. Spicher, S. Grimme, WIREs Comput. Mol. Sci., 2020, 11,
     e01493. DOI: 10.1002/wcms.1493
   
   for GFN2-xTB:
   * C. Bannwarth, S. Ehlert and S. Grimme., J. Chem. Theory Comput., 2019,
     15, 1652-1671. DOI: 10.1021/acs.jctc.8b01176
   for GFN1-xTB:
   * S. Grimme, C. Bannwarth, P. Shushkov, J. Chem. Theory Comput., 2017,
     13, 1989-2009. DOI: 10.1021/acs.jctc.7b00118
   for GFN0-xTB:
   * P. Pracht, E. Caldeweyher, S. Ehlert, S. Grimme, ChemRxiv, 2019, preprint.
     DOI: 10.26434/chemrxiv.8326202.v1
   for GFN-FF:
   * S. Spicher and S. Grimme, Angew. Chem. Int. Ed., 2020, 59, 15665-15673.
     DOI: 10.1002/anie.202004239
   
   for DFT-D4:
   * E. Caldeweyher, C. Bannwarth and S. Grimme, J. Chem. Phys., 2017,
     147, 034112. DOI: 10.1063/1.4993215
   * E. Caldeweyher, S. Ehlert, A. Hansen, H. Neugebauer, S. Spicher,
     C. Bannwarth and S. Grimme, J. Chem. Phys., 2019, 150, 154122.
     DOI: 10.1063/1.5090222
   * E. Caldeweyher, J.-M. Mewes, S. Ehlert and S. Grimme, Phys. Chem. Chem. Phys.
     2020, 22, 8499-8512. DOI: 10.1039/D0CP00502A
   
   for sTDA-xTB:
   * S. Grimme and C. Bannwarth, J. Chem. Phys., 2016, 145, 054103.
     DOI: 10.1063/1.4959605
   
   in the mass-spec context:
   * V. Asgeirsson, C. Bauer and S. Grimme, Chem. Sci., 2017, 8, 4879.
     DOI: 10.1039/c7sc00601b
   * J. Koopman and S. Grimme, ACS Omega 2019, 4, 12, 15120-15133.
     DOI: 10.1021/acsomega.9b02011
   
   for metadynamics refer to:
   * S. Grimme, J. Chem. Theory Comput., 2019, 155, 2847-2862
     DOI: 10.1021/acs.jctc.9b00143
   
   for SPH calculations refer to:
   * S. Spicher and S. Grimme, J. Chem. Theory Comput., 2021, 17, 1701-1714
     DOI: 10.1021/acs.jctc.0c01306
   
   with help from (in alphabetical order)
   P. Atkinson, C. Bannwarth, F. Bohle, G. Brandenburg, E. Caldeweyher
   M. Checinski, S. Dohm, S. Ehlert, S. Ehrlich, I. Gerasimov, J. Koopman
   C. Lavigne, S. Lehtola, F. März, M. Müller, F. Musil, H. Neugebauer
   J. Pisarek, C. Plett, P. Pracht, J. Seibert, P. Shushkov, S. Spicher
   M. Stahn, M. Steiner, T. Strunk, J. Stückrath, T. Rose, and J. Unsleber
   
 * started run on 2022/02/01 at 17:24:56.001     

           -------------------------------------------------
          |                Calculation Setup                |
           -------------------------------------------------

          program call               : /ihome/ghutchison/oda6/xtb/xtb-641/bin/xtb ../../GFN2_output/28_133_28.mol --sp --alpb hexane
          hostname                   : smp-n66
          coordinate file            : ../../GFN2_output/28_133_28.mol
          omp threads                :                     8
          number of atoms            :                    97
          number of electrons        :                   332
          charge                     :                     0
          spin                       :                   0.0
          first test random number   :      0.92161592624027

   ID    Z sym.   atoms
    1    6 C      1-3, 5-7, 9-14, 16, 18-22, 24-27, 31, 32, 34-38, 40, 41,
                  43, 44, 46, 47, 49-55, 57-59, 61-66, 68
    2    8 O      4, 56
    3    9 F      8, 60
    4    7 N      15, 17, 28, 30, 42, 45, 67, 69
    5   16 S      23, 33, 39, 48
    6   34 Se     29
    7    1 H      70-97

molecular fragmentation (1/2 indicates fragments):
111111111111111111111111111112111111111111111111111111111111111111111111
1111111111111111111111111
# atoms in fragment 1/2:    96     1
 fragment masses (1/2) :     1028.04       14.01
CMA distance (Bohr)    :   9.536
constraining FC (au)   :  0.0500

           -------------------------------------------------
          |                 G F N 2 - x T B                 |
           -------------------------------------------------

        Reference                      10.1021/acs.jctc.8b01176
      * Hamiltonian:
        H0-scaling (s, p, d)           1.850000    2.230000    2.230000
        zeta-weighting                 0.500000
      * Dispersion:
        s8                             2.700000
        a1                             0.520000
        a2                             5.000000
        s9                             5.000000
      * Repulsion:
        kExp                           1.500000    1.000000
        rExp                           1.000000
      * Coulomb:
        alpha                          2.000000
        third order                    shell-resolved
        anisotropic                    true
        a3                             3.000000
        a5                             4.000000
        cn-shift                       1.200000
        cn-exp                         4.000000
        max-rad                        5.000000

      * Solvation model:               ALPB
        Solvent                        hexane
        Parameter file                 internal GFN2-xTB/ALPB
        Dielectric constant                1.8800E+00
        Reference state                gsolv [1 M gas/solution]
        Free energy shift                  4.8134E-03 Eh       3.0204E+00 kcal/mol
        Temperature                        2.9815E+02 K
        Density                            6.6000E-01 kg/L
        Solvent mass                       8.6180E+01 g/mol
        Interaction kernel             P16
        Born radius scaling (c1)           1.1040E+00
        Born radii integrator          GBOBC
        Born offset                        0.0000E+00 a0       0.0000E+00 AA
        H-bond correction              false
        Ion screening                  false
        Surface tension                    1.0000E-05 Eh       1.5569E+01 dyn/cm
        Grid points                               230 per atom

          ...................................................
          :                      SETUP                      :
          :.................................................:
          :  # basis functions                 334          :
          :  # atomic orbitals                 329          :
          :  # shells                          171          :
          :  # electrons                       332          :
          :  max. iterations                   250          :
          :  Hamiltonian                  GFN2-xTB          :
          :  restarted?                      false          :
          :  GBSA solvation                   true          :
          :  PC potential                    false          :
          :  electronic temp.          300.0000000     K    :
          :  accuracy                    1.0000000          :
          :  -> integral cutoff          0.2500000E+02      :
          :  -> integral neglect         0.1000000E-07      :
          :  -> SCF convergence          0.1000000E-05 Eh   :
          :  -> wf. convergence          0.1000000E-03 e    :
          :  Broyden damping             0.4000000          :
          ...................................................

 iter      E             dE          RMSdq      gap      omega  full diag
   1   -185.3175642 -0.185318E+03  0.483E+00    1.34       0.0  T
   2   -185.4938800 -0.176316E+00  0.284E+00    1.03       1.0  T
   3   -185.4412232  0.526568E-01  0.154E+00    1.11       1.0  T
   4   -185.5524610 -0.111238E+00  0.553E-01    1.11       1.0  T
   5   -185.5687836 -0.163227E-01  0.188E-01    1.04       1.0  T
   6   -185.5698710 -0.108736E-02  0.105E-01    1.09       1.0  T
   7   -185.5701637 -0.292740E-03  0.376E-02    1.07       1.0  T
   8   -185.5701776 -0.139008E-04  0.207E-02    1.08       1.0  T
   9   -185.5701915 -0.138960E-04  0.966E-03    1.07       1.1  T
  10   -185.5701931 -0.153287E-05  0.502E-03    1.08       2.0  T
  11   -185.5701938 -0.750621E-06  0.237E-03    1.08       4.3  T
  12   -185.5701939 -0.238653E-07  0.119E-03    1.08       8.6  T
  13   -185.5701939 -0.597765E-07  0.480E-04    1.08      21.1  T
  14   -185.5701939 -0.671042E-08  0.217E-04    1.08      46.8  T

   *** convergence criteria satisfied after 14 iterations ***

         #    Occupation            Energy/Eh            Energy/eV
      -------------------------------------------------------------
         1        2.0000           -0.8431011             -22.9419
       ...           ...                  ...                  ...
       160        2.0000           -0.4140608             -11.2672
       161        2.0000           -0.4128649             -11.2346
       162        2.0000           -0.4069880             -11.0747
       163        2.0000           -0.3982511             -10.8370
       164        2.0000           -0.3909362             -10.6379
       165        2.0000           -0.3831494             -10.4260
       166        2.0000           -0.3780566             -10.2874 (HOMO)
       167                         -0.3385352              -9.2120 (LUMO)
       168                         -0.3350847              -9.1181
       169                         -0.3278182              -8.9204
       170                         -0.3242649              -8.8237
       171                         -0.3101586              -8.4398
       ...                                ...                  ...
       329                          1.1528085              31.3695
      -------------------------------------------------------------
                  HL-Gap            0.0395214 Eh            1.0754 eV
             Fermi-level           -0.3583061 Eh           -9.7500 eV

 SCC (total)                   0 d,  0 h,  0 min,  0.222 sec
 SCC setup                      ...        0 min,  0.010 sec (  4.540%)
 Dispersion                     ...        0 min,  0.004 sec (  1.690%)
 classical contributions        ...        0 min,  0.000 sec (  0.118%)
 integral evaluation            ...        0 min,  0.011 sec (  5.108%)
 iterations                     ...        0 min,  0.167 sec ( 75.311%)
 molecular gradient             ...        0 min,  0.029 sec ( 12.865%)
 printout                       ...        0 min,  0.001 sec (  0.336%)

         :::::::::::::::::::::::::::::::::::::::::::::::::::::
         ::                     SUMMARY                     ::
         :::::::::::::::::::::::::::::::::::::::::::::::::::::
         :: total energy            -182.786604111677 Eh    ::
         :: total w/o Gsasa/hb      -182.727378615317 Eh    ::
         :: gradient norm              0.021007864314 Eh/a0 ::
         :: HOMO-LUMO gap              1.075431525708 eV    ::
         ::.................................................::
         :: SCC energy              -185.570193919597 Eh    ::
         :: -> isotropic ES            0.158470662900 Eh    ::
         :: -> anisotropic ES          0.003654986580 Eh    ::
         :: -> anisotropic XC          0.111799484977 Eh    ::
         :: -> dispersion             -0.159265406465 Eh    ::
         :: -> Gsolv                  -0.082967806696 Eh    ::
         ::    -> Gelec               -0.023742310336 Eh    ::
         ::    -> Gsasa               -0.064038852180 Eh    ::
         ::    -> Ghb                  0.000000000000 Eh    ::
         ::    -> Gshift               0.004813355820 Eh    ::
         :: repulsion energy           2.784559402132 Eh    ::
         :: add. restraining           0.000000000000 Eh    ::
         :: total charge              -0.000000000040 e     ::
         :::::::::::::::::::::::::::::::::::::::::::::::::::::

           -------------------------------------------------
          |                Property Printout                |
           -------------------------------------------------

    * Orbital Energies and Occupations

         #    Occupation            Energy/Eh            Energy/eV
      -------------------------------------------------------------
         1        2.0000           -0.8431011             -22.9419
       ...           ...                  ...                  ...
       154        2.0000           -0.4268846             -11.6161
       155        2.0000           -0.4250354             -11.5658
       156        2.0000           -0.4238916             -11.5347
       157        2.0000           -0.4214031             -11.4670
       158        2.0000           -0.4184591             -11.3869
       159        2.0000           -0.4178523             -11.3703
       160        2.0000           -0.4140608             -11.2672
       161        2.0000           -0.4128649             -11.2346
       162        2.0000           -0.4069880             -11.0747
       163        2.0000           -0.3982511             -10.8370
       164        2.0000           -0.3909362             -10.6379
       165        2.0000           -0.3831494             -10.4260
       166        2.0000           -0.3780566             -10.2874 (HOMO)
       167                         -0.3385352              -9.2120 (LUMO)
       168                         -0.3350847              -9.1181
       169                         -0.3278182              -8.9204
       170                         -0.3242649              -8.8237
       171                         -0.3101586              -8.4398
       172                         -0.2815279              -7.6608
       173                         -0.2759447              -7.5088
       174                         -0.2588897              -7.0447
       175                         -0.2524839              -6.8704
       176                         -0.2516770              -6.8485
       177                         -0.2501004              -6.8056
       ...                                ...                  ...
       329                          1.1528085              31.3695
      -------------------------------------------------------------
                  HL-Gap            0.0395214 Eh            1.0754 eV
             Fermi-level           -0.3583061 Eh           -9.7500 eV

     #   Z          covCN         q      C6AA      α(0)
     1   6 C        2.967    -0.003    28.102     8.695
     2   6 C        3.006    -0.036    28.867     8.813
     3   6 C        2.867     0.234    23.105     7.879
     4   8 O        0.856    -0.412    21.922     6.277
     5   6 C        3.052    -0.014    28.302     8.725
     6   6 C        2.910    -0.032    28.806     8.801
     7   6 C        2.789     0.183    24.065     8.036
     8   9 F        0.787    -0.227    11.513     4.008
     9   6 C        2.919    -0.038    28.947     8.823
    10   6 C        2.916    -0.024    28.604     8.770
    11   6 C        3.030     0.006    27.860     8.658
    12   6 C        3.022     0.037    27.148     8.547
    13   6 C        2.947     0.011    27.769     8.643
    14   6 C        1.937     0.130    27.896     8.529
    15   7 N        0.911    -0.262    26.800     7.487
    16   6 C        1.938     0.133    27.839     8.521
    17   7 N        0.911    -0.260    26.734     7.478
    18   6 C        2.995     0.027    27.382     8.584
    19   6 C        3.085     0.022    27.410     8.582
    20   6 C        3.804    -0.060    21.643     6.623
    21   6 C        3.752    -0.100    22.478     6.761
    22   6 C        3.209     0.009    27.181     8.488
    23  16 S        2.176    -0.018   141.787    20.041
    24   6 C        3.099     0.008    27.728     8.629
    25   6 C        3.090    -0.036    28.784     8.794
    26   6 C        3.310     0.078    24.424     7.891
    27   6 C        3.309     0.078    24.431     7.894
    28   7 N        1.840    -0.266    27.755     7.807
    29  34 Se       2.632     0.247   227.659    26.291
    30   7 N        1.840    -0.266    27.761     7.808
    31   6 C        3.090    -0.036    28.797     8.796
    32   6 C        3.095     0.010    27.681     8.623
    33  16 S        2.165    -0.027   142.190    20.069
    34   6 C        3.181     0.011    27.328     8.533
    35   6 C        3.094     0.009    27.701     8.626
    36   6 C        3.804    -0.058    21.622     6.620
    37   6 C        3.754    -0.102    22.509     6.765
    38   6 C        2.992     0.020    27.562     8.612
    39  16 S        2.323     0.001   140.998    19.985
    40   6 C        3.106    -0.001    27.913     8.657
    41   6 C        3.252     0.028    26.337     8.304
    42   7 N        2.800    -0.020    21.637     6.909
    43   6 C        3.067     0.036    27.138     8.542
    44   6 C        3.067     0.035    27.155     8.545
    45   7 N        2.801    -0.021    21.654     6.911
    46   6 C        3.249     0.028    26.373     8.315
    47   6 C        3.111     0.012    27.601     8.607
    48  16 S        2.299    -0.045   142.926    20.121
    49   6 C        3.744    -0.010    20.829     6.510
    50   6 C        3.752    -0.115    22.765     6.804
    51   6 C        3.744    -0.012    20.860     6.515
    52   6 C        3.752    -0.115    22.755     6.803
    53   6 C        2.920    -0.013    28.338     8.730
    54   6 C        3.007    -0.041    28.996     8.833
    55   6 C        2.873     0.233    23.134     7.885
    56   8 O        0.966    -0.395    21.533     6.224
    57   6 C        3.052    -0.013    28.292     8.723
    58   6 C        2.910    -0.032    28.808     8.801
    59   6 C        2.789     0.183    24.075     8.037
    60   9 F        0.787    -0.227    11.520     4.009
    61   6 C        2.919    -0.038    28.945     8.823
    62   6 C        2.917    -0.024    28.613     8.772
    63   6 C        3.034     0.006    27.858     8.657
    64   6 C        3.020     0.037    27.157     8.548
    65   6 C        2.947     0.009    27.820     8.651
    66   6 C        1.945     0.132    27.855     8.523
    67   7 N        0.911    -0.267    26.913     7.503
    68   6 C        1.947     0.133    27.836     8.520
    69   7 N        0.911    -0.262    26.800     7.487
    70   1 H        0.925     0.073     2.054     2.241
    71   1 H        0.926     0.086     1.921     2.167
    72   1 H        0.926     0.081     1.967     2.193
    73   1 H        0.926     0.074     2.043     2.235
    74   1 H        0.924     0.060     2.203     2.321
    75   1 H        0.924     0.090     1.879     2.144
    76   1 H        0.925     0.048     2.347     2.396
    77   1 H        0.925     0.034     2.535     2.490
    78   1 H        0.925     0.043     2.405     2.425
    79   1 H        0.924     0.062     2.173     2.305
    80   1 H        0.924     0.060     2.203     2.321
    81   1 H        0.925     0.040     2.453     2.449
    82   1 H        0.925     0.045     2.388     2.417
    83   1 H        0.925     0.056     2.246     2.344
    84   1 H        0.924     0.078     2.005     2.214
    85   1 H        0.925     0.076     2.025     2.225
    86   1 H        0.925     0.051     2.306     2.375
    87   1 H        0.925     0.051     2.303     2.373
    88   1 H        0.925     0.058     2.223     2.332
    89   1 H        0.925     0.075     2.036     2.231
    90   1 H        0.924     0.083     1.947     2.182
    91   1 H        0.925     0.050     2.323     2.383
    92   1 H        0.925     0.058     2.217     2.328
    93   1 H        0.925     0.051     2.302     2.373
    94   1 H        0.926     0.083     1.953     2.185
    95   1 H        0.926     0.085     1.924     2.169
    96   1 H        0.926     0.081     1.966     2.193
    97   1 H        0.926     0.074     2.037     2.232

 Mol. C6AA /au·bohr⁶  :     182401.878639
 Mol. C8AA /au·bohr⁸  :    5280613.959998
 Mol. α(0) /au        :        680.029312


Wiberg/Mayer (AO) data.
largest (>0.10) Wiberg bond orders for each atom

 ---------------------------------------------------------------------------
     #   Z sym  total        # sym  WBO       # sym  WBO       # sym  WBO
 ---------------------------------------------------------------------------
     1   6 C    3.945 --     2 C    1.503    18 C    1.279    70 H    0.942
     2   6 C    3.957 --     1 C    1.503    12 C    1.141     3 C    1.054
     3   6 C    3.919 --     4 O    1.718     2 C    1.054     5 C    1.016
     4   8 O    2.025 --     3 C    1.718
     5   6 C    3.977 --     6 C    1.426    11 C    1.296     3 C    1.016
     6   6 C    3.978 --     5 C    1.426     7 C    1.377    71 H    0.961
     7   6 C    3.866 --     9 C    1.392     6 C    1.377     8 F    0.961
     8   9 F    1.088 --     7 C    0.961
     9   6 C    3.975 --    10 C    1.433     7 C    1.392    72 H    0.964
    10   6 C    3.975 --     9 C    1.433    11 C    1.400    73 H    0.959
    11   6 C    3.981 --    10 C    1.400     5 C    1.296    12 C    1.084
    12   6 C    3.972 --    13 C    1.482     2 C    1.141    11 C    1.084
    13   6 C    3.949 --    12 C    1.482    14 C    1.099    16 C    1.099
    14   6 C    3.944 --    15 N    2.754    13 C    1.099
    15   7 N    2.958 --    14 C    2.754
    16   6 C    3.943 --    17 N    2.760    13 C    1.099
    17   7 N    2.964 --    16 C    2.760
    18   6 C    3.923 --    19 C    1.386     1 C    1.279    48 S    1.052
    19   6 C    3.956 --    18 C    1.386    22 C    1.313    20 C    1.024
    20   6 C    3.987 --    19 C    1.024    21 C    1.001    74 H    0.968
                            75 H    0.923
    21   6 C    3.993 --    20 C    1.001    78 H    0.987    76 H    0.985
                            77 H    0.984
    22   6 C    3.927 --    47 C    1.317    19 C    1.313    23 S    1.088
    23  16 S    2.525 --    24 C    1.118    22 C    1.088
    24   6 C    3.920 --    46 C    1.295    25 C    1.281    23 S    1.118
    25   6 C    3.953 --    24 C    1.281    44 C    1.267    26 C    1.164
    26   6 C    3.974 --    30 N    1.459    25 C    1.164    27 C    1.140
                            29 Se   0.116
    27   6 C    3.973 --    28 N    1.459    31 C    1.164    26 C    1.140
                            29 Se   0.116
    28   7 N    3.131 --    27 C    1.459    29 Se   1.436    30 N    0.126
    29  34 Se   3.239 --    30 N    1.436    28 N    1.436    26 C    0.116
                            27 C    0.116
    30   7 N    3.130 --    26 C    1.459    29 Se   1.436    28 N    0.126
    31   6 C    3.954 --    32 C    1.286    43 C    1.261    27 C    1.164
    32   6 C    3.917 --    41 C    1.293    31 C    1.286    33 S    1.116
    33  16 S    2.504 --    32 C    1.116    34 C    1.077
    34   6 C    3.928 --    35 C    1.372    40 C    1.283    33 S    1.077
    35   6 C    3.955 --    34 C    1.372    38 C    1.319    36 C    1.019
    36   6 C    3.991 --    35 C    1.019    37 C    0.990    79 H    0.967
                            80 H    0.962
    37   6 C    3.988 --    36 C    0.990    82 H    0.988    81 H    0.987
                            83 H    0.983
    38   6 C    3.930 --    53 C    1.338    35 C    1.319    39 S    1.070
    39  16 S    2.721 --    40 C    1.159    38 C    1.070    56 O    0.131
    40   6 C    3.941 --    34 C    1.283    41 C    1.258    39 S    1.159
    41   6 C    3.938 --    32 C    1.293    40 C    1.258    42 N    1.160
    42   7 N    3.566 --    43 C    1.183    41 C    1.160    51 C    0.977
    43   6 C    3.927 --    31 C    1.261    44 C    1.217    42 N    1.183
    44   6 C    3.929 --    25 C    1.267    43 C    1.217    45 N    1.178
    45   7 N    3.566 --    44 C    1.178    46 C    1.162    49 C    0.978
    46   6 C    3.937 --    24 C    1.295    47 C    1.253    45 N    1.162
    47   6 C    3.932 --    22 C    1.317    46 C    1.253    48 S    1.135
    48  16 S    2.536 --    47 C    1.135    18 C    1.052
    49   6 C    3.956 --    50 C    1.006    45 N    0.978    84 H    0.962
                            85 H    0.953
    50   6 C    3.987 --    49 C    1.006    87 H    0.986    86 H    0.983
                            88 H    0.982
    51   6 C    3.954 --    52 C    1.006    42 N    0.977    90 H    0.960
                            89 H    0.953
    52   6 C    3.987 --    51 C    1.006    93 H    0.986    91 H    0.983
                            92 H    0.982
    53   6 C    3.942 --    54 C    1.460    38 C    1.338    94 H    0.929
    54   6 C    3.953 --    53 C    1.460    64 C    1.148    55 C    1.083
    55   6 C    3.911 --    56 O    1.682    54 C    1.083    57 C    1.019
    56   8 O    2.089 --    55 C    1.682    39 S    0.131
    57   6 C    3.975 --    58 C    1.425    63 C    1.296    55 C    1.019
    58   6 C    3.977 --    57 C    1.425    59 C    1.377    95 H    0.961
    59   6 C    3.866 --    61 C    1.393    58 C    1.377    60 F    0.960
    60   9 F    1.087 --    59 C    0.960
    61   6 C    3.975 --    62 C    1.431    59 C    1.393    96 H    0.964
    62   6 C    3.973 --    61 C    1.431    63 C    1.403    97 H    0.959
    63   6 C    3.980 --    62 C    1.403    57 C    1.296    64 C    1.081
    64   6 C    3.970 --    65 C    1.477    54 C    1.148    63 C    1.081
    65   6 C    3.945 --    64 C    1.477    66 C    1.101    68 C    1.097
    66   6 C    3.943 --    67 N    2.742    65 C    1.101
    67   7 N    2.958 --    66 C    2.742
    68   6 C    3.942 --    69 N    2.757    65 C    1.097
    69   7 N    2.962 --    68 C    2.757
    70   1 H    0.992 --     1 C    0.942
    71   1 H    0.992 --     6 C    0.961
    72   1 H    0.993 --     9 C    0.964
    73   1 H    0.994 --    10 C    0.959
    74   1 H    0.996 --    20 C    0.968
    75   1 H    0.990 --    20 C    0.923
    76   1 H    0.997 --    21 C    0.985
    77   1 H    0.999 --    21 C    0.984
    78   1 H    0.998 --    21 C    0.987
    79   1 H    0.995 --    36 C    0.967
    80   1 H    0.995 --    36 C    0.962
    81   1 H    0.998 --    37 C    0.987
    82   1 H    0.998 --    37 C    0.988
    83   1 H    0.995 --    37 C    0.983
    84   1 H    0.993 --    49 C    0.962
    85   1 H    0.992 --    49 C    0.953
    86   1 H    0.997 --    50 C    0.983
    87   1 H    0.997 --    50 C    0.986
    88   1 H    0.995 --    50 C    0.982
    89   1 H    0.992 --    51 C    0.953
    90   1 H    0.993 --    51 C    0.960
    91   1 H    0.997 --    52 C    0.983
    92   1 H    0.995 --    52 C    0.982
    93   1 H    0.997 --    52 C    0.986
    94   1 H    0.992 --    53 C    0.929
    95   1 H    0.992 --    58 C    0.961
    96   1 H    0.993 --    61 C    0.964
    97   1 H    0.994 --    62 C    0.959
 ---------------------------------------------------------------------------

Topologies differ in bond orders
Writing corrected topology to xtbtopo.mol

molecular dipole:
                 x           y           z       tot (Debye)
 q only:        0.045       0.064      -0.055
   full:       -0.391       0.022       0.167       1.081
molecular quadrupole (traceless):
                xx          xy          yy          xz          yz          zz
 q only:      -29.530      73.372     -11.252     -23.039      -3.889      40.782
  q+dip:      -18.562      83.769     -27.290     -12.273     -11.054      45.852
   full:      -21.134      92.615     -23.613     -14.798     -16.161      44.747


           -------------------------------------------------
          | TOTAL ENERGY             -182.786604111677 Eh   |
          | GRADIENT NORM               0.021007864314 Eh/α |
          | HOMO-LUMO GAP               1.075431525708 eV   |
           -------------------------------------------------

------------------------------------------------------------------------
 * finished run on 2022/02/01 at 17:24:56.279     
------------------------------------------------------------------------
 total:
 * wall-time:     0 d,  0 h,  0 min,  0.278 sec
 *  cpu-time:     0 d,  0 h,  0 min,  2.103 sec
 * ratio c/w:     7.566 speedup
 SCF:
 * wall-time:     0 d,  0 h,  0 min,  0.224 sec
 *  cpu-time:     0 d,  0 h,  0 min,  1.761 sec
 * ratio c/w:     7.867 speedup

