      -----------------------------------------------------------      
     |                   =====================                   |     
     |                           x T B                           |     
     |                   =====================                   |     
     |                         S. Grimme                         |     
     |          Mulliken Center for Theoretical Chemistry        |     
     |                    University of Bonn                     |     
      -----------------------------------------------------------      

   * xtb version 6.4.1 (unknown) compiled by 'oda6@login1.crc.pitt.edu' on 2021-06-25

   xtb is free software: you can redistribute it and/or modify it under
   the terms of the GNU Lesser General Public License as published by
   the Free Software Foundation, either version 3 of the License, or
   (at your option) any later version.
   
   xtb is distributed in the hope that it will be useful,
   but WITHOUT ANY WARRANTY; without even the implied warranty of
   MERCHANTABILITY or FITNESS FOR A PARTICULAR PURPOSE.  See the
   GNU Lesser General Public License for more details.
   
   Cite this work as:
   * C. Bannwarth, E. Caldeweyher, S. Ehlert, A. Hansen, P. Pracht,
     J. Seibert, S. Spicher, S. Grimme, WIREs Comput. Mol. Sci., 2020, 11,
     e01493. DOI: 10.1002/wcms.1493
   
   for GFN2-xTB:
   * C. Bannwarth, S. Ehlert and S. Grimme., J. Chem. Theory Comput., 2019,
     15, 1652-1671. DOI: 10.1021/acs.jctc.8b01176
   for GFN1-xTB:
   * S. Grimme, C. Bannwarth, P. Shushkov, J. Chem. Theory Comput., 2017,
     13, 1989-2009. DOI: 10.1021/acs.jctc.7b00118
   for GFN0-xTB:
   * P. Pracht, E. Caldeweyher, S. Ehlert, S. Grimme, ChemRxiv, 2019, preprint.
     DOI: 10.26434/chemrxiv.8326202.v1
   for GFN-FF:
   * S. Spicher and S. Grimme, Angew. Chem. Int. Ed., 2020, 59, 15665-15673.
     DOI: 10.1002/anie.202004239
   
   for DFT-D4:
   * E. Caldeweyher, C. Bannwarth and S. Grimme, J. Chem. Phys., 2017,
     147, 034112. DOI: 10.1063/1.4993215
   * E. Caldeweyher, S. Ehlert, A. Hansen, H. Neugebauer, S. Spicher,
     C. Bannwarth and S. Grimme, J. Chem. Phys., 2019, 150, 154122.
     DOI: 10.1063/1.5090222
   * E. Caldeweyher, J.-M. Mewes, S. Ehlert and S. Grimme, Phys. Chem. Chem. Phys.
     2020, 22, 8499-8512. DOI: 10.1039/D0CP00502A
   
   for sTDA-xTB:
   * S. Grimme and C. Bannwarth, J. Chem. Phys., 2016, 145, 054103.
     DOI: 10.1063/1.4959605
   
   in the mass-spec context:
   * V. Asgeirsson, C. Bauer and S. Grimme, Chem. Sci., 2017, 8, 4879.
     DOI: 10.1039/c7sc00601b
   * J. Koopman and S. Grimme, ACS Omega 2019, 4, 12, 15120-15133.
     DOI: 10.1021/acsomega.9b02011
   
   for metadynamics refer to:
   * S. Grimme, J. Chem. Theory Comput., 2019, 155, 2847-2862
     DOI: 10.1021/acs.jctc.9b00143
   
   for SPH calculations refer to:
   * S. Spicher and S. Grimme, J. Chem. Theory Comput., 2021, 17, 1701-1714
     DOI: 10.1021/acs.jctc.0c01306
   
   with help from (in alphabetical order)
   P. Atkinson, C. Bannwarth, F. Bohle, G. Brandenburg, E. Caldeweyher
   M. Checinski, S. Dohm, S. Ehlert, S. Ehrlich, I. Gerasimov, J. Koopman
   C. Lavigne, S. Lehtola, F. März, M. Müller, F. Musil, H. Neugebauer
   J. Pisarek, C. Plett, P. Pracht, J. Seibert, P. Shushkov, S. Spicher
   M. Stahn, M. Steiner, T. Strunk, J. Stückrath, T. Rose, and J. Unsleber
   
 * started run on 2022/02/02 at 20:27:13.416     

           -------------------------------------------------
          |                Calculation Setup                |
           -------------------------------------------------

          program call               : /ihome/ghutchison/oda6/xtb/xtb-641/bin/xtb ../../GFN2_output/2_130_39.mol --sp --alpb hexane
          hostname                   : smp-n39
          coordinate file            : ../../GFN2_output/2_130_39.mol
          omp threads                :                     8
          number of atoms            :                   105
          number of electrons        :                   336
          charge                     :                     0
          spin                       :                   0.0
          first test random number   :      0.67279749093008

   ID    Z sym.   atoms
    1    6 C      1-3, 5-7, 9-12, 14, 16-19, 21-25, 29, 30, 32-36, 38, 39,
                  41, 42, 44-50, 52-60, 62, 64-70
    2    8 O      4, 51
    3   16 S      8, 27, 31, 37
    4    7 N      13, 15, 20, 26, 28, 40, 43, 61, 63
    5    1 H      71-105

           -------------------------------------------------
          |                 G F N 2 - x T B                 |
           -------------------------------------------------

        Reference                      10.1021/acs.jctc.8b01176
      * Hamiltonian:
        H0-scaling (s, p, d)           1.850000    2.230000    2.230000
        zeta-weighting                 0.500000
      * Dispersion:
        s8                             2.700000
        a1                             0.520000
        a2                             5.000000
        s9                             5.000000
      * Repulsion:
        kExp                           1.500000    1.000000
        rExp                           1.000000
      * Coulomb:
        alpha                          2.000000
        third order                    shell-resolved
        anisotropic                    true
        a3                             3.000000
        a5                             4.000000
        cn-shift                       1.200000
        cn-exp                         4.000000
        max-rad                        5.000000

      * Solvation model:               ALPB
        Solvent                        hexane
        Parameter file                 internal GFN2-xTB/ALPB
        Dielectric constant                1.8800E+00
        Reference state                gsolv [1 M gas/solution]
        Free energy shift                  4.8134E-03 Eh       3.0204E+00 kcal/mol
        Temperature                        2.9815E+02 K
        Density                            6.6000E-01 kg/L
        Solvent mass                       8.6180E+01 g/mol
        Interaction kernel             P16
        Born radius scaling (c1)           1.1040E+00
        Born radii integrator          GBOBC
        Born offset                        0.0000E+00 a0       0.0000E+00 AA
        H-bond correction              false
        Ion screening                  false
        Surface tension                    1.0000E-05 Eh       1.5569E+01 dyn/cm
        Grid points                               230 per atom

          ...................................................
          :                      SETUP                      :
          :.................................................:
          :  # basis functions                 339          :
          :  # atomic orbitals                 335          :
          :  # shells                          179          :
          :  # electrons                       336          :
          :  max. iterations                   250          :
          :  Hamiltonian                  GFN2-xTB          :
          :  restarted?                      false          :
          :  GBSA solvation                   true          :
          :  PC potential                    false          :
          :  electronic temp.          300.0000000     K    :
          :  accuracy                    1.0000000          :
          :  -> integral cutoff          0.2500000E+02      :
          :  -> integral neglect         0.1000000E-07      :
          :  -> SCF convergence          0.1000000E-05 Eh   :
          :  -> wf. convergence          0.1000000E-03 e    :
          :  Broyden damping             0.4000000          :
          ...................................................

 iter      E             dE          RMSdq      gap      omega  full diag
   1   -185.6907221 -0.185691E+03  0.467E+00    1.28       0.0  T
   2   -185.8851420 -0.194420E+00  0.284E+00    1.01       1.0  T
   3   -185.8473012  0.378407E-01  0.148E+00    1.14       1.0  T
   4   -185.9362551 -0.889539E-01  0.518E-01    1.11       1.0  T
   5   -185.9530566 -0.168015E-01  0.166E-01    1.02       1.0  T
   6   -185.9543704 -0.131378E-02  0.826E-02    1.08       1.0  T
   7   -185.9546380 -0.267572E-03  0.302E-02    1.06       1.0  T
   8   -185.9546628 -0.247929E-04  0.138E-02    1.07       1.0  T
   9   -185.9546690 -0.626048E-05  0.657E-03    1.06       1.5  T
  10   -185.9546699 -0.881052E-06  0.339E-03    1.06       2.9  T
  11   -185.9546704 -0.437888E-06  0.157E-03    1.06       6.2  T
  12   -185.9546704 -0.258256E-07  0.860E-04    1.06      11.3  T
  13   -185.9546704 -0.246196E-07  0.343E-04    1.06      28.4  T

   *** convergence criteria satisfied after 13 iterations ***

         #    Occupation            Energy/Eh            Energy/eV
      -------------------------------------------------------------
         1        2.0000           -0.7584159             -20.6375
       ...           ...                  ...                  ...
       162        2.0000           -0.4047238             -11.0131
       163        2.0000           -0.4043200             -11.0021
       164        2.0000           -0.3960883             -10.7781
       165        2.0000           -0.3914405             -10.6516
       166        2.0000           -0.3847403             -10.4693
       167        2.0000           -0.3762074             -10.2371
       168        2.0000           -0.3691258             -10.0444 (HOMO)
       169                         -0.3300345              -8.9807 (LUMO)
       170                         -0.3274647              -8.9108
       171                         -0.3186408              -8.6707
       172                         -0.3096547              -8.4261
       173                         -0.2958225              -8.0497
       ...                                ...                  ...
       335                          1.1596637              31.5561
      -------------------------------------------------------------
                  HL-Gap            0.0390912 Eh            1.0637 eV
             Fermi-level           -0.3496106 Eh           -9.5134 eV

 SCC (total)                   0 d,  0 h,  0 min,  0.441 sec
 SCC setup                      ...        0 min,  0.003 sec (  0.626%)
 Dispersion                     ...        0 min,  0.004 sec (  1.014%)
 classical contributions        ...        0 min,  0.000 sec (  0.069%)
 integral evaluation            ...        0 min,  0.019 sec (  4.230%)
 iterations                     ...        0 min,  0.374 sec ( 84.853%)
 molecular gradient             ...        0 min,  0.039 sec (  8.883%)
 printout                       ...        0 min,  0.001 sec (  0.302%)

         :::::::::::::::::::::::::::::::::::::::::::::::::::::
         ::                     SUMMARY                     ::
         :::::::::::::::::::::::::::::::::::::::::::::::::::::
         :: total energy            -183.036299216534 Eh    ::
         :: total w/o Gsasa/hb      -182.974431853095 Eh    ::
         :: gradient norm              0.020121617188 Eh/a0 ::
         :: HOMO-LUMO gap              1.063726239740 eV    ::
         ::.................................................::
         :: SCC energy              -185.954670404008 Eh    ::
         :: -> isotropic ES            0.137375088730 Eh    ::
         :: -> anisotropic ES          0.009199253247 Eh    ::
         :: -> anisotropic XC          0.125950146501 Eh    ::
         :: -> dispersion             -0.165123551411 Eh    ::
         :: -> Gsolv                  -0.083655910463 Eh    ::
         ::    -> Gelec               -0.021788547024 Eh    ::
         ::    -> Gsasa               -0.066680719259 Eh    ::
         ::    -> Ghb                  0.000000000000 Eh    ::
         ::    -> Gshift               0.004813355820 Eh    ::
         :: repulsion energy           2.919881861459 Eh    ::
         :: add. restraining           0.000000000000 Eh    ::
         :: total charge              -0.000000000154 e     ::
         :::::::::::::::::::::::::::::::::::::::::::::::::::::

           -------------------------------------------------
          |                Property Printout                |
           -------------------------------------------------

    * Orbital Energies and Occupations

         #    Occupation            Energy/Eh            Energy/eV
      -------------------------------------------------------------
         1        2.0000           -0.7584159             -20.6375
       ...           ...                  ...                  ...
       156        2.0000           -0.4190300             -11.4024
       157        2.0000           -0.4178532             -11.3704
       158        2.0000           -0.4149942             -11.2926
       159        2.0000           -0.4126034             -11.2275
       160        2.0000           -0.4086484             -11.1199
       161        2.0000           -0.4070818             -11.0773
       162        2.0000           -0.4047238             -11.0131
       163        2.0000           -0.4043200             -11.0021
       164        2.0000           -0.3960883             -10.7781
       165        2.0000           -0.3914405             -10.6516
       166        2.0000           -0.3847403             -10.4693
       167        2.0000           -0.3762074             -10.2371
       168        2.0000           -0.3691258             -10.0444 (HOMO)
       169                         -0.3300345              -8.9807 (LUMO)
       170                         -0.3274647              -8.9108
       171                         -0.3186408              -8.6707
       172                         -0.3096547              -8.4261
       173                         -0.2958225              -8.0497
       174                         -0.2676716              -7.2837
       175                         -0.2478183              -6.7435
       176                         -0.2459530              -6.6927
       177                         -0.2442761              -6.6471
       178                         -0.2422259              -6.5913
       179                         -0.2279892              -6.2039
       ...                                ...                  ...
       335                          1.1596637              31.5561
      -------------------------------------------------------------
                  HL-Gap            0.0390912 Eh            1.0637 eV
             Fermi-level           -0.3496106 Eh           -9.5134 eV

     #   Z          covCN         q      C6AA      α(0)
     1   6 C        2.899    -0.020    28.504     8.754
     2   6 C        3.017    -0.047    29.153     8.857
     3   6 C        2.873     0.234    23.106     7.880
     4   8 O        0.856    -0.423    22.137     6.308
     5   6 C        3.238    -0.033    27.882     8.564
     6   6 C        3.067    -0.032    28.724     8.788
     7   6 C        2.959    -0.020    28.499     8.756
     8  16 S        2.253     0.057   138.742    19.825
     9   6 C        3.076     0.011    27.692     8.628
    10   6 C        3.029     0.033    27.236     8.560
    11   6 C        2.948     0.001    28.014     8.681
    12   6 C        1.928     0.131    27.893     8.529
    13   7 N        0.911    -0.278    27.188     7.541
    14   6 C        1.937     0.128    27.951     8.538
    15   7 N        0.911    -0.263    26.825     7.491
    16   6 C        3.113     0.040    26.941     8.503
    17   6 C        2.998    -0.074    29.831     8.959
    18   6 C        3.228     0.023    26.712     8.395
    19   6 C        3.196     0.031    26.796     8.439
    20   7 N        2.807    -0.013    21.504     6.887
    21   6 C        3.739    -0.013    20.890     6.522
    22   6 C        3.752    -0.112    22.696     6.794
    23   6 C        3.059    -0.047    29.105     8.847
    24   6 C        3.326     0.069    24.319     7.836
    25   6 C        3.339     0.070    24.039     7.757
    26   7 N        1.853    -0.296    28.532     7.917
    27  16 S        2.671     0.332   128.229    19.059
    28   7 N        1.854    -0.303    28.713     7.942
    29   6 C        3.084    -0.038    28.836     8.803
    30   6 C        3.100     0.007    27.731     8.630
    31  16 S        2.164    -0.040   142.713    20.106
    32   6 C        3.185     0.011    27.325     8.530
    33   6 C        3.096     0.006    27.776     8.638
    34   6 C        3.804    -0.058    21.612     6.618
    35   6 C        3.754    -0.101    22.490     6.762
    36   6 C        2.993     0.018    27.607     8.619
    37  16 S        2.328     0.000   141.038    19.988
    38   6 C        3.106    -0.002    27.937     8.660
    39   6 C        3.245     0.029    26.396     8.324
    40   7 N        2.799    -0.026    21.754     6.927
    41   6 C        3.076     0.030    27.255     8.559
    42   6 C        3.080     0.034    27.150     8.542
    43   7 N        2.784    -0.044    22.093     6.981
    44   6 C        3.743    -0.002    20.696     6.490
    45   6 C        3.752    -0.117    22.810     6.811
    46   6 C        3.742    -0.005    20.745     6.498
    47   6 C        3.751    -0.119    22.843     6.816
    48   6 C        2.920    -0.015    28.390     8.738
    49   6 C        3.006    -0.042    29.020     8.837
    50   6 C        2.875     0.230    23.178     7.892
    51   8 O        0.966    -0.405    21.721     6.251
    52   6 C        3.060    -0.021    28.473     8.751
    53   6 C        2.904    -0.023    28.566     8.764
    54   6 C        3.260     0.010    26.639     8.340
    55   6 C        3.256     0.012    26.638     8.345
    56   6 C        2.904    -0.034    28.855     8.808
    57   6 C        3.050     0.004    27.875     8.659
    58   6 C        3.021     0.035    27.191     8.553
    59   6 C        2.947     0.005    27.913     8.665
    60   6 C        1.948     0.131    27.870     8.525
    61   7 N        0.911    -0.275    27.097     7.529
    62   6 C        1.949     0.133    27.820     8.518
    63   7 N        0.911    -0.270    26.995     7.515
    64   6 C        4.162    -0.022    20.883     6.490
    65   6 C        4.013    -0.015    20.767     6.474
    66   6 C        2.995    -0.041    29.017     8.836
    67   6 C        2.995    -0.042    29.040     8.840
    68   6 C        4.013    -0.015    20.766     6.474
    69   6 C        3.915    -0.060    21.583     6.603
    70   6 C        4.161    -0.022    20.884     6.490
    71   1 H        0.926     0.078     2.004     2.214
    72   1 H        0.926     0.068     2.111     2.272
    73   1 H        0.926     0.070     2.088     2.260
    74   1 H        0.927     0.085     1.931     2.173
    75   1 H        0.924     0.066     2.132     2.283
    76   1 H        0.924     0.088     1.898     2.154
    77   1 H        0.925     0.060     2.197     2.318
    78   1 H        0.925     0.044     2.401     2.423
    79   1 H        0.925     0.047     2.356     2.400
    80   1 H        0.924     0.059     2.209     2.324
    81   1 H        0.924     0.060     2.199     2.319
    82   1 H        0.925     0.038     2.476     2.461
    83   1 H        0.925     0.044     2.401     2.423
    84   1 H        0.925     0.053     2.280     2.361
    85   1 H        0.925     0.070     2.090     2.261
    86   1 H        0.924     0.056     2.245     2.343
    87   1 H        0.925     0.055     2.254     2.348
    88   1 H        0.925     0.046     2.368     2.407
    89   1 H        0.925     0.061     2.193     2.316
    90   1 H        0.925     0.075     2.035     2.231
    91   1 H        0.924     0.064     2.152     2.294
    92   1 H        0.925     0.048     2.348     2.396
    93   1 H        0.925     0.060     2.202     2.320
    94   1 H        0.925     0.065     2.144     2.290
    95   1 H        0.926     0.078     1.995     2.209
    96   1 H        0.926     0.060     2.198     2.319
    97   1 H        0.926     0.058     2.225     2.332
    98   1 H        0.925     0.046     2.375     2.410
    99   1 H        0.925     0.040     2.451     2.448
   100   1 H        0.926     0.039     2.465     2.455
   101   1 H        0.926     0.038     2.476     2.461
   102   1 H        0.925     0.038     2.470     2.458
   103   1 H        0.925     0.035     2.519     2.482
   104   1 H        0.925     0.040     2.444     2.445
   105   1 H        0.925     0.045     2.386     2.415

 Mol. C6AA /au·bohr⁶  :     188481.368894
 Mol. C8AA /au·bohr⁸  :    5161680.387915
 Mol. α(0) /au        :        685.781669


Wiberg/Mayer (AO) data.
largest (>0.10) Wiberg bond orders for each atom

 ---------------------------------------------------------------------------
     #   Z sym  total        # sym  WBO       # sym  WBO       # sym  WBO
 ---------------------------------------------------------------------------
     1   6 C    3.943 --     2 C    1.497    16 C    1.289    71 H    0.933
     2   6 C    3.944 --     1 C    1.497    10 C    1.132     3 C    1.045
     3   6 C    3.914 --     4 O    1.713     2 C    1.045     5 C    1.029
     4   8 O    2.014 --     3 C    1.713
     5   6 C    3.963 --     9 C    1.392     6 C    1.287     3 C    1.029
     6   6 C    3.982 --     7 C    1.592     5 C    1.287    72 H    0.961
     7   6 C    3.925 --     6 C    1.592     8 S    1.208    73 H    0.967
     8  16 S    2.704 --     7 C    1.208     9 C    1.195
     9   6 C    3.942 --     5 C    1.392     8 S    1.195    10 C    1.137
    10   6 C    3.969 --    11 C    1.441     9 C    1.137     2 C    1.132
    11   6 C    3.954 --    10 C    1.441    12 C    1.114    14 C    1.102
    12   6 C    3.942 --    13 N    2.731    11 C    1.114
    13   7 N    2.942 --    12 C    2.731
    14   6 C    3.944 --    15 N    2.756    11 C    1.102
    15   7 N    2.969 --    14 C    2.756
    16   6 C    3.927 --    17 C    1.313     1 C    1.289    20 N    1.125
    17   6 C    3.946 --    18 C    1.406    16 C    1.313    74 H    0.952
    18   6 C    3.935 --    17 C    1.406    19 C    1.207    43 N    1.130
    19   6 C    3.934 --    20 N    1.244    23 C    1.232    18 C    1.207
    20   7 N    3.612 --    19 C    1.244    16 C    1.125    21 C    0.983
    21   6 C    3.957 --    22 C    1.004    20 N    0.983    75 H    0.961
                            76 H    0.957
    22   6 C    3.991 --    21 C    1.004    79 H    0.987    78 H    0.985
                            77 H    0.983
    23   6 C    3.948 --    42 C    1.271    19 C    1.232    24 C    1.182
    24   6 C    3.970 --    28 N    1.417    23 C    1.182    25 C    1.162
                            27 S    0.102
    25   6 C    3.971 --    26 N    1.426    29 C    1.173    24 C    1.162
                            27 S    0.106
    26   7 N    3.063 --    25 C    1.426    27 S    1.387    28 N    0.142
    27  16 S    3.088 --    26 N    1.387    28 N    1.371    25 C    0.106
                            24 C    0.102
    28   7 N    3.059 --    24 C    1.417    27 S    1.371    26 N    0.142
    29   6 C    3.949 --    30 C    1.284    41 C    1.257    25 C    1.173
    30   6 C    3.915 --    39 C    1.296    29 C    1.284    31 S    1.112
    31  16 S    2.499 --    30 C    1.112    32 C    1.077
    32   6 C    3.927 --    33 C    1.365    38 C    1.289    31 S    1.077
    33   6 C    3.954 --    32 C    1.365    36 C    1.330    34 C    1.018
    34   6 C    3.992 --    33 C    1.018    35 C    0.991    81 H    0.968
                            80 H    0.962
    35   6 C    3.989 --    34 C    0.991    83 H    0.988    82 H    0.987
                            84 H    0.984
    36   6 C    3.930 --    33 C    1.330    48 C    1.321    37 S    1.076
    37  16 S    2.723 --    38 C    1.154    36 C    1.076    51 O    0.132
    38   6 C    3.941 --    32 C    1.289    39 C    1.257    37 S    1.154
    39   6 C    3.937 --    30 C    1.296    38 C    1.257    40 N    1.159
    40   7 N    3.563 --    41 C    1.180    39 C    1.159    46 C    0.977
    41   6 C    3.930 --    29 C    1.257    42 C    1.229    40 N    1.180
    42   6 C    3.917 --    23 C    1.271    41 C    1.229    43 N    1.171
    43   7 N    3.526 --    42 C    1.171    18 C    1.130    44 C    0.977
    44   6 C    3.961 --    45 C    1.010    43 N    0.977    86 H    0.965
                            85 H    0.961
    45   6 C    3.988 --    44 C    1.010    87 H    0.983    89 H    0.983
                            88 H    0.980
    46   6 C    3.958 --    47 C    1.008    40 N    0.977    91 H    0.964
                            90 H    0.961
    47   6 C    3.986 --    46 C    1.008    93 H    0.982    92 H    0.978
                            94 H    0.977
    48   6 C    3.942 --    49 C    1.480    36 C    1.321    95 H    0.930
    49   6 C    3.952 --    48 C    1.480    58 C    1.143    50 C    1.072
    50   6 C    3.909 --    51 O    1.675    49 C    1.072    52 C    1.033
    51   8 O    2.081 --    50 C    1.675    37 S    0.132
    52   6 C    3.970 --    53 C    1.379    57 C    1.309    50 C    1.033
    53   6 C    3.979 --    54 C    1.442    52 C    1.379    96 H    0.964
    54   6 C    3.955 --    53 C    1.442    55 C    1.325    70 C    0.992
    55   6 C    3.965 --    56 C    1.448    54 C    1.325    64 C    0.994
    56   6 C    3.976 --    55 C    1.448    57 C    1.367    97 H    0.958
    57   6 C    3.976 --    56 C    1.367    52 C    1.309    58 C    1.087
    58   6 C    3.968 --    59 C    1.472    49 C    1.143    57 C    1.087
    59   6 C    3.946 --    58 C    1.472    60 C    1.102    62 C    1.099
    60   6 C    3.942 --    61 N    2.738    59 C    1.102
    61   7 N    2.955 --    60 C    2.738
    62   6 C    3.941 --    63 N    2.752    59 C    1.099
    63   7 N    2.959 --    62 C    2.752
    64   6 C    3.984 --    55 C    0.994    70 C    0.975    98 H    0.961
                            65 C    0.950
    65   6 C    3.989 --    66 C    1.004    69 C    0.989    99 H    0.971
                            64 C    0.950
    66   6 C    3.982 --    67 C    1.923    65 C    1.004   100 H    0.971
    67   6 C    3.982 --    66 C    1.923    68 C    1.004   101 H    0.971
    68   6 C    3.989 --    67 C    1.004    69 C    0.989   102 H    0.971
                            70 C    0.951
    69   6 C    3.994 --    68 C    0.989    65 C    0.989   104 H    0.978
                           103 H    0.974
    70   6 C    3.984 --    54 C    0.992    64 C    0.975   105 H    0.961
                            68 C    0.951
    71   1 H    0.993 --     1 C    0.933
    72   1 H    0.995 --     6 C    0.961
    73   1 H    0.994 --     7 C    0.967
    74   1 H    0.992 --    17 C    0.952
    75   1 H    0.995 --    21 C    0.961
    76   1 H    0.992 --    21 C    0.957
    77   1 H    0.995 --    22 C    0.983
    78   1 H    0.998 --    22 C    0.985
    79   1 H    0.998 --    22 C    0.987
    80   1 H    0.995 --    34 C    0.962
    81   1 H    0.995 --    34 C    0.968
    82   1 H    0.999 --    35 C    0.987
    83   1 H    0.998 --    35 C    0.988
    84   1 H    0.995 --    35 C    0.984
    85   1 H    0.995 --    44 C    0.961
    86   1 H    0.994 --    44 C    0.965
    87   1 H    0.996 --    45 C    0.983
    88   1 H    0.998 --    45 C    0.980
    89   1 H    0.996 --    45 C    0.983
    90   1 H    0.993 --    46 C    0.961
    91   1 H    0.993 --    46 C    0.964
    92   1 H    0.998 --    47 C    0.978
    93   1 H    0.996 --    47 C    0.982
    94   1 H    0.996 --    47 C    0.977
    95   1 H    0.993 --    48 C    0.930
    96   1 H    0.996 --    53 C    0.964
    97   1 H    0.996 --    56 C    0.958
    98   1 H    0.996 --    64 C    0.961
    99   1 H    0.998 --    65 C    0.971
   100   1 H    0.998 --    66 C    0.971
   101   1 H    0.998 --    67 C    0.971
   102   1 H    0.998 --    68 C    0.971
   103   1 H    0.999 --    69 C    0.974
   104   1 H    0.998 --    69 C    0.978
   105   1 H    0.996 --    70 C    0.961
 ---------------------------------------------------------------------------

Topologies differ in bond orders
Writing corrected topology to xtbtopo.mol

molecular dipole:
                 x           y           z       tot (Debye)
 q only:       -1.824      -2.268      -0.332
   full:       -2.394      -2.987      -0.607       9.850
molecular quadrupole (traceless):
                xx          xy          yy          xz          yz          zz
 q only:      -26.217      70.595       5.148     -62.442      32.854      21.070
  q+dip:      -37.825      68.074      11.666     -71.979      35.529      26.159
   full:      -43.128      69.997       3.740     -77.498      37.897      39.388


           -------------------------------------------------
          | TOTAL ENERGY             -183.036299216534 Eh   |
          | GRADIENT NORM               0.020121617188 Eh/α |
          | HOMO-LUMO GAP               1.063726239740 eV   |
           -------------------------------------------------

------------------------------------------------------------------------
 * finished run on 2022/02/02 at 20:27:13.924     
------------------------------------------------------------------------
 total:
 * wall-time:     0 d,  0 h,  0 min,  0.508 sec
 *  cpu-time:     0 d,  0 h,  0 min,  3.440 sec
 * ratio c/w:     6.767 speedup
 SCF:
 * wall-time:     0 d,  0 h,  0 min,  0.443 sec
 *  cpu-time:     0 d,  0 h,  0 min,  3.046 sec
 * ratio c/w:     6.872 speedup

