      -----------------------------------------------------------      
     |                   =====================                   |     
     |                           x T B                           |     
     |                   =====================                   |     
     |                         S. Grimme                         |     
     |          Mulliken Center for Theoretical Chemistry        |     
     |                    University of Bonn                     |     
      -----------------------------------------------------------      

   * xtb version 6.4.1 (unknown) compiled by 'oda6@login1.crc.pitt.edu' on 2021-06-25

   xtb is free software: you can redistribute it and/or modify it under
   the terms of the GNU Lesser General Public License as published by
   the Free Software Foundation, either version 3 of the License, or
   (at your option) any later version.
   
   xtb is distributed in the hope that it will be useful,
   but WITHOUT ANY WARRANTY; without even the implied warranty of
   MERCHANTABILITY or FITNESS FOR A PARTICULAR PURPOSE.  See the
   GNU Lesser General Public License for more details.
   
   Cite this work as:
   * C. Bannwarth, E. Caldeweyher, S. Ehlert, A. Hansen, P. Pracht,
     J. Seibert, S. Spicher, S. Grimme, WIREs Comput. Mol. Sci., 2020, 11,
     e01493. DOI: 10.1002/wcms.1493
   
   for GFN2-xTB:
   * C. Bannwarth, S. Ehlert and S. Grimme., J. Chem. Theory Comput., 2019,
     15, 1652-1671. DOI: 10.1021/acs.jctc.8b01176
   for GFN1-xTB:
   * S. Grimme, C. Bannwarth, P. Shushkov, J. Chem. Theory Comput., 2017,
     13, 1989-2009. DOI: 10.1021/acs.jctc.7b00118
   for GFN0-xTB:
   * P. Pracht, E. Caldeweyher, S. Ehlert, S. Grimme, ChemRxiv, 2019, preprint.
     DOI: 10.26434/chemrxiv.8326202.v1
   for GFN-FF:
   * S. Spicher and S. Grimme, Angew. Chem. Int. Ed., 2020, 59, 15665-15673.
     DOI: 10.1002/anie.202004239
   
   for DFT-D4:
   * E. Caldeweyher, C. Bannwarth and S. Grimme, J. Chem. Phys., 2017,
     147, 034112. DOI: 10.1063/1.4993215
   * E. Caldeweyher, S. Ehlert, A. Hansen, H. Neugebauer, S. Spicher,
     C. Bannwarth and S. Grimme, J. Chem. Phys., 2019, 150, 154122.
     DOI: 10.1063/1.5090222
   * E. Caldeweyher, J.-M. Mewes, S. Ehlert and S. Grimme, Phys. Chem. Chem. Phys.
     2020, 22, 8499-8512. DOI: 10.1039/D0CP00502A
   
   for sTDA-xTB:
   * S. Grimme and C. Bannwarth, J. Chem. Phys., 2016, 145, 054103.
     DOI: 10.1063/1.4959605
   
   in the mass-spec context:
   * V. Asgeirsson, C. Bauer and S. Grimme, Chem. Sci., 2017, 8, 4879.
     DOI: 10.1039/c7sc00601b
   * J. Koopman and S. Grimme, ACS Omega 2019, 4, 12, 15120-15133.
     DOI: 10.1021/acsomega.9b02011
   
   for metadynamics refer to:
   * S. Grimme, J. Chem. Theory Comput., 2019, 155, 2847-2862
     DOI: 10.1021/acs.jctc.9b00143
   
   for SPH calculations refer to:
   * S. Spicher and S. Grimme, J. Chem. Theory Comput., 2021, 17, 1701-1714
     DOI: 10.1021/acs.jctc.0c01306
   
   with help from (in alphabetical order)
   P. Atkinson, C. Bannwarth, F. Bohle, G. Brandenburg, E. Caldeweyher
   M. Checinski, S. Dohm, S. Ehlert, S. Ehrlich, I. Gerasimov, J. Koopman
   C. Lavigne, S. Lehtola, F. März, M. Müller, F. Musil, H. Neugebauer
   J. Pisarek, C. Plett, P. Pracht, J. Seibert, P. Shushkov, S. Spicher
   M. Stahn, M. Steiner, T. Strunk, J. Stückrath, T. Rose, and J. Unsleber
   
 * started run on 2022/02/01 at 17:46:37.203     

           -------------------------------------------------
          |                Calculation Setup                |
           -------------------------------------------------

          program call               : /ihome/ghutchison/oda6/xtb/xtb-641/bin/xtb ../../GFN2_output/30_51_29.mol --sp --alpb hexane
          hostname                   : smp-n66
          coordinate file            : ../../GFN2_output/30_51_29.mol
          omp threads                :                     8
          number of atoms            :                   106
          number of electrons        :                   344
          charge                     :                     0
          spin                       :                   0.0
          first test random number   :      0.61229160150736

   ID    Z sym.   atoms
    1    6 C      1-3, 5-15, 17, 19-23, 25-28, 32, 33, 35-39, 41, 42, 44, 45,
                  47, 48, 50-56, 58-62, 64-68, 70
    2    8 O      4, 57
    3    7 N      16, 18, 29, 31, 43, 46, 69, 71
    4   16 S      24, 30, 34, 40, 49
    5    9 F      63
    6    1 H      72-106

           -------------------------------------------------
          |                 G F N 2 - x T B                 |
           -------------------------------------------------

        Reference                      10.1021/acs.jctc.8b01176
      * Hamiltonian:
        H0-scaling (s, p, d)           1.850000    2.230000    2.230000
        zeta-weighting                 0.500000
      * Dispersion:
        s8                             2.700000
        a1                             0.520000
        a2                             5.000000
        s9                             5.000000
      * Repulsion:
        kExp                           1.500000    1.000000
        rExp                           1.000000
      * Coulomb:
        alpha                          2.000000
        third order                    shell-resolved
        anisotropic                    true
        a3                             3.000000
        a5                             4.000000
        cn-shift                       1.200000
        cn-exp                         4.000000
        max-rad                        5.000000

      * Solvation model:               ALPB
        Solvent                        hexane
        Parameter file                 internal GFN2-xTB/ALPB
        Dielectric constant                1.8800E+00
        Reference state                gsolv [1 M gas/solution]
        Free energy shift                  4.8134E-03 Eh       3.0204E+00 kcal/mol
        Temperature                        2.9815E+02 K
        Density                            6.6000E-01 kg/L
        Solvent mass                       8.6180E+01 g/mol
        Interaction kernel             P16
        Born radius scaling (c1)           1.1040E+00
        Born radii integrator          GBOBC
        Born offset                        0.0000E+00 a0       0.0000E+00 AA
        H-bond correction              false
        Ion screening                  false
        Surface tension                    1.0000E-05 Eh       1.5569E+01 dyn/cm
        Grid points                               230 per atom

          ...................................................
          :                      SETUP                      :
          :.................................................:
          :  # basis functions                 349          :
          :  # atomic orbitals                 344          :
          :  # shells                          182          :
          :  # electrons                       344          :
          :  max. iterations                   250          :
          :  Hamiltonian                  GFN2-xTB          :
          :  restarted?                      false          :
          :  GBSA solvation                   true          :
          :  PC potential                    false          :
          :  electronic temp.          300.0000000     K    :
          :  accuracy                    1.0000000          :
          :  -> integral cutoff          0.2500000E+02      :
          :  -> integral neglect         0.1000000E-07      :
          :  -> SCF convergence          0.1000000E-05 Eh   :
          :  -> wf. convergence          0.1000000E-03 e    :
          :  Broyden damping             0.4000000          :
          ...................................................

 iter      E             dE          RMSdq      gap      omega  full diag
   1   -190.8604465 -0.190860E+03  0.449E+00    1.32       0.0  T
   2   -191.0341948 -0.173748E+00  0.267E+00    1.06       1.0  T
   3   -190.9812684  0.529264E-01  0.145E+00    1.05       1.0  T
   4   -191.0873132 -0.106045E+00  0.513E-01    1.11       1.0  T
   5   -191.1040611 -0.167479E-01  0.157E-01    1.03       1.0  T
   6   -191.1050654 -0.100434E-02  0.777E-02    1.08       1.0  T
   7   -191.1052661 -0.200715E-03  0.282E-02    1.06       1.0  T
   8   -191.1052958 -0.296276E-04  0.116E-02    1.07       1.0  T
   9   -191.1052996 -0.387700E-05  0.532E-03    1.06       1.8  T
  10   -191.1053003 -0.672556E-06  0.243E-03    1.06       4.0  T
  11   -191.1053006 -0.262107E-06  0.121E-03    1.06       8.0  T
  12   -191.1053006 -0.228476E-07  0.562E-04    1.06      17.3  T
  13   -191.1053006 -0.101089E-07  0.256E-04    1.06      38.0  T

   *** convergence criteria satisfied after 13 iterations ***

         #    Occupation            Energy/Eh            Energy/eV
      -------------------------------------------------------------
         1        2.0000           -0.8377583             -22.7966
       ...           ...                  ...                  ...
       166        2.0000           -0.4080837             -11.1045
       167        2.0000           -0.4048027             -11.0152
       168        2.0000           -0.4033484             -10.9757
       169        2.0000           -0.3914394             -10.6516
       170        2.0000           -0.3862854             -10.5114
       171        2.0000           -0.3785729             -10.3015
       172        2.0000           -0.3722325             -10.1290 (HOMO)
       173                         -0.3331015              -9.0642 (LUMO)
       174                         -0.3273777              -8.9084
       175                         -0.3214845              -8.7480
       176                         -0.3154487              -8.5838
       177                         -0.3009265              -8.1886
       ...                                ...                  ...
       344                          1.1574400              31.4955
      -------------------------------------------------------------
                  HL-Gap            0.0391311 Eh            1.0648 eV
             Fermi-level           -0.3526675 Eh           -9.5966 eV

 SCC (total)                   0 d,  0 h,  0 min,  0.230 sec
 SCC setup                      ...        0 min,  0.002 sec (  0.918%)
 Dispersion                     ...        0 min,  0.004 sec (  1.757%)
 classical contributions        ...        0 min,  0.000 sec (  0.056%)
 integral evaluation            ...        0 min,  0.013 sec (  5.489%)
 iterations                     ...        0 min,  0.175 sec ( 76.360%)
 molecular gradient             ...        0 min,  0.035 sec ( 15.019%)
 printout                       ...        0 min,  0.001 sec (  0.365%)

         :::::::::::::::::::::::::::::::::::::::::::::::::::::
         ::                     SUMMARY                     ::
         :::::::::::::::::::::::::::::::::::::::::::::::::::::
         :: total energy            -188.161910556214 Eh    ::
         :: total w/o Gsasa/hb      -188.097989530670 Eh    ::
         :: gradient norm              0.020396692977 Eh/a0 ::
         :: HOMO-LUMO gap              1.064810295441 eV    ::
         ::.................................................::
         :: SCC energy              -191.105300616320 Eh    ::
         :: -> isotropic ES            0.149579493285 Eh    ::
         :: -> anisotropic ES          0.009891582785 Eh    ::
         :: -> anisotropic XC          0.120823652664 Eh    ::
         :: -> dispersion             -0.166999757324 Eh    ::
         :: -> Gsolv                  -0.087454294420 Eh    ::
         ::    -> Gelec               -0.023533268876 Eh    ::
         ::    -> Gsasa               -0.068734381363 Eh    ::
         ::    -> Ghb                  0.000000000000 Eh    ::
         ::    -> Gshift               0.004813355820 Eh    ::
         :: repulsion energy           2.944822672136 Eh    ::
         :: add. restraining           0.000000000000 Eh    ::
         :: total charge              -0.000000000003 e     ::
         :::::::::::::::::::::::::::::::::::::::::::::::::::::

           -------------------------------------------------
          |                Property Printout                |
           -------------------------------------------------

    * Orbital Energies and Occupations

         #    Occupation            Energy/Eh            Energy/eV
      -------------------------------------------------------------
         1        2.0000           -0.8377583             -22.7966
       ...           ...                  ...                  ...
       160        2.0000           -0.4213745             -11.4662
       161        2.0000           -0.4188267             -11.3969
       162        2.0000           -0.4180457             -11.3756
       163        2.0000           -0.4165146             -11.3339
       164        2.0000           -0.4112033             -11.1894
       165        2.0000           -0.4099778             -11.1561
       166        2.0000           -0.4080837             -11.1045
       167        2.0000           -0.4048027             -11.0152
       168        2.0000           -0.4033484             -10.9757
       169        2.0000           -0.3914394             -10.6516
       170        2.0000           -0.3862854             -10.5114
       171        2.0000           -0.3785729             -10.3015
       172        2.0000           -0.3722325             -10.1290 (HOMO)
       173                         -0.3331015              -9.0642 (LUMO)
       174                         -0.3273777              -8.9084
       175                         -0.3214845              -8.7480
       176                         -0.3154487              -8.5838
       177                         -0.3009265              -8.1886
       178                         -0.2746418              -7.4734
       179                         -0.2668539              -7.2615
       180                         -0.2500172              -6.8033
       181                         -0.2477871              -6.7426
       182                         -0.2449848              -6.6664
       183                         -0.2409012              -6.5553
       ...                                ...                  ...
       344                          1.1574400              31.4955
      -------------------------------------------------------------
                  HL-Gap            0.0391311 Eh            1.0648 eV
             Fermi-level           -0.3526675 Eh           -9.5966 eV

     #   Z          covCN         q      C6AA      α(0)
     1   6 C        2.919    -0.015    28.383     8.736
     2   6 C        3.009    -0.041    28.988     8.832
     3   6 C        2.874     0.231    23.171     7.891
     4   8 O        0.969    -0.405    21.731     6.253
     5   6 C        3.044    -0.025    28.582     8.768
     6   6 C        2.916    -0.027    28.684     8.783
     7   6 C        2.971     0.020    27.557     8.611
     8   6 C        3.758    -0.116    22.768     6.803
     9   6 C        2.970     0.022    27.509     8.603
    10   6 C        3.759    -0.117    22.784     6.805
    11   6 C        2.918    -0.039    28.964     8.825
    12   6 C        3.035     0.000    27.988     8.677
    13   6 C        3.020     0.035    27.186     8.553
    14   6 C        2.947     0.004    27.940     8.669
    15   6 C        1.944     0.131    27.881     8.527
    16   7 N        0.911    -0.276    27.132     7.533
    17   6 C        1.946     0.133    27.823     8.518
    18   7 N        0.911    -0.272    27.029     7.519
    19   6 C        2.994     0.018    27.601     8.618
    20   6 C        3.094     0.006    27.782     8.639
    21   6 C        3.804    -0.058    21.612     6.618
    22   6 C        3.754    -0.101    22.493     6.763
    23   6 C        3.180     0.010    27.363     8.539
    24  16 S        2.168    -0.037   142.605    20.099
    25   6 C        3.101     0.008    27.713     8.627
    26   6 C        3.074    -0.035    28.795     8.798
    27   6 C        3.336     0.070    24.095     7.773
    28   6 C        3.336     0.070    24.093     7.772
    29   7 N        1.853    -0.295    28.486     7.911
    30  16 S        2.680     0.347   127.689    19.019
    31   7 N        1.854    -0.294    28.475     7.909
    32   6 C        3.074    -0.036    28.809     8.800
    33   6 C        3.102     0.009    27.688     8.623
    34  16 S        2.167    -0.034   142.462    20.089
    35   6 C        3.179     0.010    27.361     8.540
    36   6 C        3.092     0.008    27.741     8.633
    37   6 C        3.804    -0.057    21.603     6.617
    38   6 C        3.754    -0.102    22.515     6.766
    39   6 C        2.993     0.018    27.596     8.617
    40  16 S        2.317     0.006   140.799    19.971
    41   6 C        3.108    -0.000    27.888     8.652
    42   6 C        3.254     0.031    26.235     8.286
    43   7 N        2.792    -0.036    21.941     6.957
    44   6 C        3.097     0.034    27.123     8.535
    45   6 C        3.097     0.033    27.153     8.540
    46   7 N        2.792    -0.038    21.967     6.961
    47   6 C        3.256     0.032    26.201     8.277
    48   6 C        3.109    -0.002    27.934     8.659
    49  16 S        2.325     0.004   140.875    19.976
    50   6 C        3.742    -0.004    20.728     6.495
    51   6 C        3.752    -0.115    22.770     6.805
    52   6 C        3.742    -0.005    20.736     6.497
    53   6 C        3.752    -0.116    22.776     6.806
    54   6 C        2.920    -0.014    28.361     8.733
    55   6 C        3.008    -0.041    29.010     8.835
    56   6 C        2.874     0.232    23.144     7.886
    57   8 O        0.962    -0.399    21.615     6.236
    58   6 C        3.042    -0.023    28.533     8.761
    59   6 C        2.921    -0.026    28.661     8.779
    60   6 C        2.965     0.016    27.647     8.625
    61   6 C        3.758    -0.111    22.681     6.790
    62   6 C        2.794     0.172    24.295     8.074
    63   9 F        0.788    -0.229    11.542     4.013
    64   6 C        2.912    -0.047    29.155     8.854
    65   6 C        3.042     0.006    27.850     8.656
    66   6 C        3.020     0.036    27.169     8.550
    67   6 C        2.947     0.008    27.851     8.656
    68   6 C        1.944     0.131    27.875     8.526
    69   7 N        0.911    -0.269    26.950     7.508
    70   6 C        1.946     0.132    27.844     8.521
    71   7 N        0.911    -0.264    26.829     7.491
    72   1 H        0.925     0.079     1.994     2.208
    73   1 H        0.926     0.058     2.221     2.331
    74   1 H        0.925     0.061     2.186     2.312
    75   1 H        0.925     0.061     2.187     2.313
    76   1 H        0.925     0.052     2.289     2.366
    77   1 H        0.925     0.061     2.183     2.311
    78   1 H        0.925     0.061     2.182     2.310
    79   1 H        0.925     0.055     2.261     2.351
    80   1 H        0.926     0.056     2.242     2.341
    81   1 H        0.924     0.060     2.199     2.319
    82   1 H        0.924     0.059     2.207     2.323
    83   1 H        0.925     0.038     2.474     2.460
    84   1 H        0.925     0.044     2.400     2.422
    85   1 H        0.925     0.053     2.279     2.361
    86   1 H        0.924     0.061     2.192     2.315
    87   1 H        0.924     0.057     2.239     2.340
    88   1 H        0.925     0.056     2.244     2.342
    89   1 H        0.925     0.042     2.427     2.436
    90   1 H        0.925     0.044     2.400     2.423
    91   1 H        0.925     0.072     2.068     2.249
    92   1 H        0.924     0.069     2.093     2.262
    93   1 H        0.925     0.046     2.364     2.405
    94   1 H        0.925     0.055     2.260     2.351
    95   1 H        0.925     0.058     2.221     2.330
    96   1 H        0.925     0.072     2.059     2.244
    97   1 H        0.924     0.069     2.097     2.264
    98   1 H        0.925     0.055     2.258     2.350
    99   1 H        0.925     0.047     2.360     2.402
   100   1 H        0.925     0.058     2.217     2.329
   101   1 H        0.925     0.081     1.970     2.195
   102   1 H        0.926     0.074     2.045     2.236
   103   1 H        0.925     0.059     2.208     2.324
   104   1 H        0.925     0.071     2.076     2.253
   105   1 H        0.925     0.071     2.077     2.254
   106   1 H        0.926     0.081     1.972     2.196

 Mol. C6AA /au·bohr⁶  :     198628.933865
 Mol. C8AA /au·bohr⁸  :    5538880.477850
 Mol. α(0) /au        :        706.816871


Wiberg/Mayer (AO) data.
largest (>0.10) Wiberg bond orders for each atom

 ---------------------------------------------------------------------------
     #   Z sym  total        # sym  WBO       # sym  WBO       # sym  WBO
 ---------------------------------------------------------------------------
     1   6 C    3.944 --     2 C    1.486    19 C    1.316    72 H    0.930
     2   6 C    3.952 --     1 C    1.486    13 C    1.142     3 C    1.069
     3   6 C    3.909 --     4 O    1.676     2 C    1.069     5 C    1.034
     4   8 O    2.083 --     3 C    1.676    49 S    0.133
     5   6 C    3.974 --     6 C    1.418    12 C    1.281     3 C    1.034
     6   6 C    3.981 --     5 C    1.418     7 C    1.399    73 H    0.964
     7   6 C    3.965 --     6 C    1.399     9 C    1.359     8 C    1.036
     8   6 C    3.992 --     7 C    1.036    76 H    0.984    74 H    0.964
                            75 H    0.963
     9   6 C    3.974 --    11 C    1.403     7 C    1.359    10 C    1.036
    10   6 C    3.992 --     9 C    1.036    79 H    0.984    77 H    0.964
                            78 H    0.963
    11   6 C    3.977 --    12 C    1.406     9 C    1.403    80 H    0.958
    12   6 C    3.978 --    11 C    1.406     5 C    1.281    13 C    1.087
    13   6 C    3.969 --    14 C    1.472     2 C    1.142    12 C    1.087
    14   6 C    3.945 --    13 C    1.472    15 C    1.103    17 C    1.100
    15   6 C    3.942 --    16 N    2.739    14 C    1.103
    16   7 N    2.955 --    15 C    2.739
    17   6 C    3.941 --    18 N    2.752    14 C    1.100
    18   7 N    2.959 --    17 C    2.752
    19   6 C    3.930 --    20 C    1.333     1 C    1.316    49 S    1.079
    20   6 C    3.955 --    23 C    1.361    19 C    1.333    21 C    1.018
    21   6 C    3.992 --    20 C    1.018    22 C    0.992    81 H    0.968
                            82 H    0.962
    22   6 C    3.990 --    21 C    0.992    84 H    0.988    83 H    0.987
                            85 H    0.984
    23   6 C    3.926 --    20 C    1.361    48 C    1.291    24 S    1.077
    24  16 S    2.498 --    25 C    1.114    23 C    1.077
    25   6 C    3.914 --    47 C    1.304    26 C    1.272    24 S    1.114
    26   6 C    3.954 --    25 C    1.272    45 C    1.269    27 C    1.171
    27   6 C    3.971 --    31 N    1.427    26 C    1.171    28 C    1.163
                            30 S    0.104
    28   6 C    3.971 --    29 N    1.427    32 C    1.171    27 C    1.163
                            30 S    0.104
    29   7 N    3.063 --    28 C    1.427    30 S    1.387    31 N    0.143
    30  16 S    3.097 --    31 N    1.388    29 N    1.387    28 C    0.104
                            27 C    0.104
    31   7 N    3.063 --    27 C    1.427    30 S    1.388    29 N    0.143
    32   6 C    3.954 --    33 C    1.275    44 C    1.267    28 C    1.171
    33   6 C    3.913 --    42 C    1.299    32 C    1.275    34 S    1.115
    34  16 S    2.501 --    33 C    1.115    35 C    1.077
    35   6 C    3.927 --    36 C    1.371    41 C    1.282    34 S    1.077
    36   6 C    3.954 --    35 C    1.371    39 C    1.320    37 C    1.019
    37   6 C    3.992 --    36 C    1.019    38 C    0.990    86 H    0.968
                            87 H    0.963
    38   6 C    3.988 --    37 C    0.990    90 H    0.988    89 H    0.987
                            88 H    0.983
    39   6 C    3.930 --    54 C    1.334    36 C    1.320    40 S    1.074
    40  16 S    2.714 --    41 C    1.157    39 C    1.074    57 O    0.129
    41   6 C    3.942 --    35 C    1.282    42 C    1.264    40 S    1.157
    42   6 C    3.938 --    33 C    1.299    41 C    1.264    43 N    1.147
    43   7 N    3.541 --    44 C    1.173    42 C    1.147    52 C    0.973
    44   6 C    3.930 --    32 C    1.267    45 C    1.230    43 N    1.173
    45   6 C    3.932 --    26 C    1.269    44 C    1.230    46 N    1.170
    46   7 N    3.538 --    45 C    1.170    47 C    1.148    50 C    0.973
    47   6 C    3.938 --    25 C    1.304    48 C    1.258    46 N    1.148
    48   6 C    3.942 --    23 C    1.291    47 C    1.258    49 S    1.155
    49  16 S    2.721 --    48 C    1.155    19 C    1.079     4 O    0.133
    50   6 C    3.958 --    51 C    1.005    46 N    0.973    92 H    0.967
                            91 H    0.965
    51   6 C    3.988 --    50 C    1.005    93 H    0.987    94 H    0.983
                            95 H    0.982
    52   6 C    3.958 --    53 C    1.005    43 N    0.973    97 H    0.966
                            96 H    0.965
    53   6 C    3.988 --    52 C    1.005    99 H    0.987    98 H    0.983
                           100 H    0.982
    54   6 C    3.941 --    55 C    1.465    39 C    1.334   101 H    0.930
    55   6 C    3.952 --    54 C    1.465    66 C    1.149    56 C    1.077
    56   6 C    3.910 --    57 O    1.680    55 C    1.077    58 C    1.025
    57   8 O    2.083 --    56 C    1.680    40 S    0.129
    58   6 C    3.975 --    59 C    1.421    65 C    1.293    56 C    1.025
    59   6 C    3.978 --    58 C    1.421    60 C    1.394   102 H    0.962
    60   6 C    3.967 --    59 C    1.394    62 C    1.351    61 C    1.035
    61   6 C    3.989 --    60 C    1.035   103 H    0.984   104 H    0.963
                           105 H    0.963
    62   6 C    3.869 --    64 C    1.398    60 C    1.351    63 F    0.958
    63   9 F    1.086 --    62 C    0.958
    64   6 C    3.974 --    65 C    1.400    62 C    1.398   106 H    0.956
    65   6 C    3.980 --    64 C    1.400    58 C    1.293    66 C    1.082
    66   6 C    3.969 --    67 C    1.474    55 C    1.149    65 C    1.082
    67   6 C    3.944 --    66 C    1.474    68 C    1.102    70 C    1.098
    68   6 C    3.943 --    69 N    2.741    67 C    1.102
    69   7 N    2.957 --    68 C    2.741
    70   6 C    3.942 --    71 N    2.757    67 C    1.098
    71   7 N    2.961 --    70 C    2.757
    72   1 H    0.993 --     1 C    0.930
    73   1 H    0.996 --     6 C    0.964
    74   1 H    0.993 --     8 C    0.964
    75   1 H    0.993 --     8 C    0.963
    76   1 H    0.997 --     8 C    0.984
    77   1 H    0.994 --    10 C    0.964
    78   1 H    0.994 --    10 C    0.963
    79   1 H    0.997 --    10 C    0.984
    80   1 H    0.996 --    11 C    0.958
    81   1 H    0.995 --    21 C    0.968
    82   1 H    0.995 --    21 C    0.962
    83   1 H    0.998 --    22 C    0.987
    84   1 H    0.998 --    22 C    0.988
    85   1 H    0.995 --    22 C    0.984
    86   1 H    0.995 --    37 C    0.968
    87   1 H    0.996 --    37 C    0.963
    88   1 H    0.995 --    38 C    0.983
    89   1 H    0.998 --    38 C    0.987
    90   1 H    0.998 --    38 C    0.988
    91   1 H    0.994 --    50 C    0.965
    92   1 H    0.993 --    50 C    0.967
    93   1 H    0.998 --    51 C    0.987
    94   1 H    0.997 --    51 C    0.983
    95   1 H    0.996 --    51 C    0.982
    96   1 H    0.994 --    52 C    0.965
    97   1 H    0.993 --    52 C    0.966
    98   1 H    0.997 --    53 C    0.983
    99   1 H    0.998 --    53 C    0.987
   100   1 H    0.996 --    53 C    0.982
   101   1 H    0.992 --    54 C    0.930
   102   1 H    0.994 --    59 C    0.962
   103   1 H    0.996 --    61 C    0.984
   104   1 H    0.992 --    61 C    0.963
   105   1 H    0.992 --    61 C    0.963
   106   1 H    0.993 --    64 C    0.956
 ---------------------------------------------------------------------------

Topologies differ in bond orders
Writing corrected topology to xtbtopo.mol

molecular dipole:
                 x           y           z       tot (Debye)
 q only:       -1.848      -1.141      -1.293
   full:       -2.067      -1.912      -1.769       8.453
molecular quadrupole (traceless):
                xx          xy          yy          xz          yz          zz
 q only:      -61.709     128.262      -4.200     -37.279      58.416      65.909
  q+dip:      -65.641     134.201      -5.196     -47.549      57.624      70.837
   full:      -68.717     138.056     -10.598     -57.246      51.203      79.315


           -------------------------------------------------
          | TOTAL ENERGY             -188.161910556214 Eh   |
          | GRADIENT NORM               0.020396692977 Eh/α |
          | HOMO-LUMO GAP               1.064810295441 eV   |
           -------------------------------------------------

------------------------------------------------------------------------
 * finished run on 2022/02/01 at 17:46:37.495     
------------------------------------------------------------------------
 total:
 * wall-time:     0 d,  0 h,  0 min,  0.292 sec
 *  cpu-time:     0 d,  0 h,  0 min,  2.249 sec
 * ratio c/w:     7.704 speedup
 SCF:
 * wall-time:     0 d,  0 h,  0 min,  0.232 sec
 *  cpu-time:     0 d,  0 h,  0 min,  1.844 sec
 * ratio c/w:     7.961 speedup

