      -----------------------------------------------------------      
     |                   =====================                   |     
     |                           x T B                           |     
     |                   =====================                   |     
     |                         S. Grimme                         |     
     |          Mulliken Center for Theoretical Chemistry        |     
     |                    University of Bonn                     |     
      -----------------------------------------------------------      

   * xtb version 6.4.1 (unknown) compiled by 'oda6@login1.crc.pitt.edu' on 2021-06-25

   xtb is free software: you can redistribute it and/or modify it under
   the terms of the GNU Lesser General Public License as published by
   the Free Software Foundation, either version 3 of the License, or
   (at your option) any later version.
   
   xtb is distributed in the hope that it will be useful,
   but WITHOUT ANY WARRANTY; without even the implied warranty of
   MERCHANTABILITY or FITNESS FOR A PARTICULAR PURPOSE.  See the
   GNU Lesser General Public License for more details.
   
   Cite this work as:
   * C. Bannwarth, E. Caldeweyher, S. Ehlert, A. Hansen, P. Pracht,
     J. Seibert, S. Spicher, S. Grimme, WIREs Comput. Mol. Sci., 2020, 11,
     e01493. DOI: 10.1002/wcms.1493
   
   for GFN2-xTB:
   * C. Bannwarth, S. Ehlert and S. Grimme., J. Chem. Theory Comput., 2019,
     15, 1652-1671. DOI: 10.1021/acs.jctc.8b01176
   for GFN1-xTB:
   * S. Grimme, C. Bannwarth, P. Shushkov, J. Chem. Theory Comput., 2017,
     13, 1989-2009. DOI: 10.1021/acs.jctc.7b00118
   for GFN0-xTB:
   * P. Pracht, E. Caldeweyher, S. Ehlert, S. Grimme, ChemRxiv, 2019, preprint.
     DOI: 10.26434/chemrxiv.8326202.v1
   for GFN-FF:
   * S. Spicher and S. Grimme, Angew. Chem. Int. Ed., 2020, 59, 15665-15673.
     DOI: 10.1002/anie.202004239
   
   for DFT-D4:
   * E. Caldeweyher, C. Bannwarth and S. Grimme, J. Chem. Phys., 2017,
     147, 034112. DOI: 10.1063/1.4993215
   * E. Caldeweyher, S. Ehlert, A. Hansen, H. Neugebauer, S. Spicher,
     C. Bannwarth and S. Grimme, J. Chem. Phys., 2019, 150, 154122.
     DOI: 10.1063/1.5090222
   * E. Caldeweyher, J.-M. Mewes, S. Ehlert and S. Grimme, Phys. Chem. Chem. Phys.
     2020, 22, 8499-8512. DOI: 10.1039/D0CP00502A
   
   for sTDA-xTB:
   * S. Grimme and C. Bannwarth, J. Chem. Phys., 2016, 145, 054103.
     DOI: 10.1063/1.4959605
   
   in the mass-spec context:
   * V. Asgeirsson, C. Bauer and S. Grimme, Chem. Sci., 2017, 8, 4879.
     DOI: 10.1039/c7sc00601b
   * J. Koopman and S. Grimme, ACS Omega 2019, 4, 12, 15120-15133.
     DOI: 10.1021/acsomega.9b02011
   
   for metadynamics refer to:
   * S. Grimme, J. Chem. Theory Comput., 2019, 155, 2847-2862
     DOI: 10.1021/acs.jctc.9b00143
   
   for SPH calculations refer to:
   * S. Spicher and S. Grimme, J. Chem. Theory Comput., 2021, 17, 1701-1714
     DOI: 10.1021/acs.jctc.0c01306
   
   with help from (in alphabetical order)
   P. Atkinson, C. Bannwarth, F. Bohle, G. Brandenburg, E. Caldeweyher
   M. Checinski, S. Dohm, S. Ehlert, S. Ehrlich, I. Gerasimov, J. Koopman
   C. Lavigne, S. Lehtola, F. März, M. Müller, F. Musil, H. Neugebauer
   J. Pisarek, C. Plett, P. Pracht, J. Seibert, P. Shushkov, S. Spicher
   M. Stahn, M. Steiner, T. Strunk, J. Stückrath, T. Rose, and J. Unsleber
   
 * started run on 2022/02/02 at 23:37:51.485     

           -------------------------------------------------
          |                Calculation Setup                |
           -------------------------------------------------

          program call               : /ihome/ghutchison/oda6/xtb/xtb-641/bin/xtb ../../GFN2_output/32_100_39.mol --sp --alpb hexane
          hostname                   : smp-n39
          coordinate file            : ../../GFN2_output/32_100_39.mol
          omp threads                :                     8
          number of atoms            :                   138
          number of electrons        :                   434
          charge                     :                     0
          spin                       :                   0.0
          first test random number   :      0.68094233743851

   ID    Z sym.   atoms
    1    6 C      1-3, 5-7, 9, 10, 12-17, 19, 21-31, 33-36, 40, 41, 43-53,
                  55, 56, 58, 59, 61, 62, 64-70, 72-80, 82, 84-90
    2    8 O      4, 8, 11, 71
    3    7 N      18, 20, 37, 39, 57, 60, 81, 83
    4   16 S      32, 38, 42, 54, 63
    5    1 H      91-138

           -------------------------------------------------
          |                 G F N 2 - x T B                 |
           -------------------------------------------------

        Reference                      10.1021/acs.jctc.8b01176
      * Hamiltonian:
        H0-scaling (s, p, d)           1.850000    2.230000    2.230000
        zeta-weighting                 0.500000
      * Dispersion:
        s8                             2.700000
        a1                             0.520000
        a2                             5.000000
        s9                             5.000000
      * Repulsion:
        kExp                           1.500000    1.000000
        rExp                           1.000000
      * Coulomb:
        alpha                          2.000000
        third order                    shell-resolved
        anisotropic                    true
        a3                             3.000000
        a5                             4.000000
        cn-shift                       1.200000
        cn-exp                         4.000000
        max-rad                        5.000000

      * Solvation model:               ALPB
        Solvent                        hexane
        Parameter file                 internal GFN2-xTB/ALPB
        Dielectric constant                1.8800E+00
        Reference state                gsolv [1 M gas/solution]
        Free energy shift                  4.8134E-03 Eh       3.0204E+00 kcal/mol
        Temperature                        2.9815E+02 K
        Density                            6.6000E-01 kg/L
        Solvent mass                       8.6180E+01 g/mol
        Interaction kernel             P16
        Born radius scaling (c1)           1.1040E+00
        Born radii integrator          GBOBC
        Born offset                        0.0000E+00 a0       0.0000E+00 AA
        H-bond correction              false
        Ion screening                  false
        Surface tension                    1.0000E-05 Eh       1.5569E+01 dyn/cm
        Grid points                               230 per atom

          ...................................................
          :                      SETUP                      :
          :.................................................:
          :  # basis functions                 438          :
          :  # atomic orbitals                 433          :
          :  # shells                          233          :
          :  # electrons                       434          :
          :  max. iterations                   250          :
          :  Hamiltonian                  GFN2-xTB          :
          :  restarted?                      false          :
          :  GBSA solvation                   true          :
          :  PC potential                    false          :
          :  electronic temp.          300.0000000     K    :
          :  accuracy                    1.0000000          :
          :  -> integral cutoff          0.2500000E+02      :
          :  -> integral neglect         0.1000000E-07      :
          :  -> SCF convergence          0.1000000E-05 Eh   :
          :  -> wf. convergence          0.1000000E-03 e    :
          :  Broyden damping             0.4000000          :
          ...................................................

 iter      E             dE          RMSdq      gap      omega  full diag
   1   -240.2140598 -0.240214E+03  0.455E+00    1.31       0.0  T
   2   -240.4124952 -0.198435E+00  0.267E+00    1.09       1.0  T
   3   -240.3264318  0.860634E-01  0.133E+00    1.10       1.0  T
   4   -240.4548220 -0.128390E+00  0.491E-01    1.14       1.0  T
   5   -240.4742090 -0.193870E-01  0.146E-01    1.06       1.0  T
   6   -240.4753897 -0.118068E-02  0.750E-02    1.11       1.0  T
   7   -240.4756289 -0.239148E-03  0.284E-02    1.10       1.0  T
   8   -240.4756680 -0.391736E-04  0.118E-02    1.10       1.0  T
   9   -240.4756732 -0.512003E-05  0.573E-03    1.10       1.5  T
  10   -240.4756744 -0.120313E-05  0.260E-03    1.10       3.3  T
  11   -240.4756747 -0.381123E-06  0.127E-03    1.10       6.7  T
  12   -240.4756748 -0.362136E-07  0.578E-04    1.10      14.7  T
  13   -240.4756748 -0.132102E-07  0.267E-04    1.10      31.9  T

   *** convergence criteria satisfied after 13 iterations ***

         #    Occupation            Energy/Eh            Energy/eV
      -------------------------------------------------------------
         1        2.0000           -0.7564617             -20.5844
       ...           ...                  ...                  ...
       211        2.0000           -0.3969750             -10.8022
       212        2.0000           -0.3960665             -10.7775
       213        2.0000           -0.3925457             -10.6817
       214        2.0000           -0.3864584             -10.5161
       215        2.0000           -0.3827303             -10.4146
       216        2.0000           -0.3750568             -10.2058
       217        2.0000           -0.3687239             -10.0335 (HOMO)
       218                         -0.3282464              -8.9320 (LUMO)
       219                         -0.3245917              -8.8326
       220                         -0.3173188              -8.6347
       221                         -0.3135510              -8.5322
       222                         -0.2974075              -8.0929
       ...                                ...                  ...
       433                          1.1585044              31.5245
      -------------------------------------------------------------
                  HL-Gap            0.0404775 Eh            1.1014 eV
             Fermi-level           -0.3484946 Eh           -9.4830 eV

 SCC (total)                   0 d,  0 h,  0 min,  0.927 sec
 SCC setup                      ...        0 min,  0.004 sec (  0.435%)
 Dispersion                     ...        0 min,  0.007 sec (  0.786%)
 classical contributions        ...        0 min,  0.000 sec (  0.043%)
 integral evaluation            ...        0 min,  0.031 sec (  3.315%)
 iterations                     ...        0 min,  0.820 sec ( 88.529%)
 molecular gradient             ...        0 min,  0.062 sec (  6.651%)
 printout                       ...        0 min,  0.002 sec (  0.231%)

         :::::::::::::::::::::::::::::::::::::::::::::::::::::
         ::                     SUMMARY                     ::
         :::::::::::::::::::::::::::::::::::::::::::::::::::::
         :: total energy            -236.704918471142 Eh    ::
         :: total w/o Gsasa/hb      -236.625833829558 Eh    ::
         :: gradient norm              0.020090869602 Eh/a0 ::
         :: HOMO-LUMO gap              1.101447770716 eV    ::
         ::.................................................::
         :: SCC energy              -240.475674786461 Eh    ::
         :: -> isotropic ES            0.165210957248 Eh    ::
         :: -> anisotropic ES          0.016634768146 Eh    ::
         :: -> anisotropic XC          0.145951542814 Eh    ::
         :: -> dispersion             -0.224445539688 Eh    ::
         :: -> Gsolv                  -0.103944999315 Eh    ::
         ::    -> Gelec               -0.024860357731 Eh    ::
         ::    -> Gsasa               -0.083897997404 Eh    ::
         ::    -> Ghb                  0.000000000000 Eh    ::
         ::    -> Gshift               0.004813355820 Eh    ::
         :: repulsion energy           3.770399628464 Eh    ::
         :: add. restraining           0.000000000000 Eh    ::
         :: total charge              -0.000000000022 e     ::
         :::::::::::::::::::::::::::::::::::::::::::::::::::::

           -------------------------------------------------
          |                Property Printout                |
           -------------------------------------------------

    * Orbital Energies and Occupations

         #    Occupation            Energy/Eh            Energy/eV
      -------------------------------------------------------------
         1        2.0000           -0.7564617             -20.5844
       ...           ...                  ...                  ...
       205        2.0000           -0.4061053             -11.0507
       206        2.0000           -0.4050521             -11.0220
       207        2.0000           -0.4032488             -10.9730
       208        2.0000           -0.4015519             -10.9268
       209        2.0000           -0.4007289             -10.9044
       210        2.0000           -0.3982115             -10.8359
       211        2.0000           -0.3969750             -10.8022
       212        2.0000           -0.3960665             -10.7775
       213        2.0000           -0.3925457             -10.6817
       214        2.0000           -0.3864584             -10.5161
       215        2.0000           -0.3827303             -10.4146
       216        2.0000           -0.3750568             -10.2058
       217        2.0000           -0.3687239             -10.0335 (HOMO)
       218                         -0.3282464              -8.9320 (LUMO)
       219                         -0.3245917              -8.8326
       220                         -0.3173188              -8.6347
       221                         -0.3135510              -8.5322
       222                         -0.2974075              -8.0929
       223                         -0.2694289              -7.3315
       224                         -0.2631422              -7.1605
       225                         -0.2445402              -6.6543
       226                         -0.2437103              -6.6317
       227                         -0.2433024              -6.6206
       228                         -0.2394548              -6.5159
       ...                                ...                  ...
       433                          1.1585044              31.5245
      -------------------------------------------------------------
                  HL-Gap            0.0404775 Eh            1.1014 eV
             Fermi-level           -0.3484946 Eh           -9.4830 eV

     #   Z          covCN         q      C6AA      α(0)
     1   6 C        2.919    -0.014    28.359     8.733
     2   6 C        3.013    -0.041    28.990     8.832
     3   6 C        2.876     0.231    23.164     7.890
     4   8 O        0.956    -0.407    21.777     6.259
     5   6 C        3.048    -0.030    28.691     8.785
     6   6 C        2.909    -0.058    29.434     8.896
     7   6 C        2.869     0.136    25.030     8.201
     8   8 O        1.706    -0.254    18.212     5.762
     9   6 C        3.647     0.029    20.416     6.493
    10   6 C        2.866     0.138    24.981     8.193
    11   8 O        1.706    -0.253    18.193     5.759
    12   6 C        3.645     0.028    20.441     6.498
    13   6 C        2.911    -0.070    29.745     8.943
    14   6 C        3.039    -0.003    28.065     8.689
    15   6 C        3.023     0.036    27.161     8.549
    16   6 C        2.947     0.003    27.947     8.671
    17   6 C        1.945     0.133    27.826     8.519
    18   7 N        0.911    -0.276    27.124     7.532
    19   6 C        1.942     0.131    27.890     8.528
    20   7 N        0.911    -0.274    27.086     7.527
    21   6 C        2.994     0.019    27.569     8.613
    22   6 C        3.108     0.007    27.722     8.626
    23   6 C        2.979     0.003    27.943     8.671
    24   6 C        2.926    -0.035    28.860     8.810
    25   6 C        2.919    -0.031    28.780     8.797
    26   6 C        2.919    -0.025    28.633     8.775
    27   6 C        2.926    -0.032    28.808     8.802
    28   6 C        2.973     0.016    27.646     8.625
    29   6 C        3.806    -0.060    21.649     6.624
    30   6 C        3.754    -0.097    22.417     6.751
    31   6 C        3.170     0.013    27.348     8.544
    32  16 S        2.165    -0.040   142.707    20.106
    33   6 C        3.095     0.008    27.723     8.629
    34   6 C        3.081    -0.036    28.792     8.797
    35   6 C        3.339     0.070    24.048     7.759
    36   6 C        3.339     0.070    24.038     7.757
    37   7 N        1.854    -0.295    28.497     7.912
    38  16 S        2.684     0.342   127.897    19.034
    39   7 N        1.854    -0.294    28.482     7.910
    40   6 C        3.083    -0.037    28.836     8.803
    41   6 C        3.099     0.008    27.716     8.628
    42  16 S        2.161    -0.038   142.644    20.102
    43   6 C        3.176     0.014    27.299     8.532
    44   6 C        3.109     0.007    27.710     8.624
    45   6 C        2.979     0.002    27.985     8.678
    46   6 C        2.973     0.016    27.659     8.627
    47   6 C        3.806    -0.058    21.614     6.618
    48   6 C        3.754    -0.099    22.439     6.755
    49   6 C        2.926    -0.030    28.741     8.792
    50   6 C        2.919    -0.028    28.707     8.786
    51   6 C        2.919    -0.033    28.830     8.805
    52   6 C        2.926    -0.034    28.853     8.809
    53   6 C        2.992     0.019    27.568     8.613
    54  16 S        2.329     0.001   141.030    19.987
    55   6 C        3.107    -0.002    27.934     8.660
    56   6 C        3.249     0.028    26.367     8.314
    57   7 N        2.798    -0.024    21.716     6.921
    58   6 C        3.080     0.032    27.211     8.552
    59   6 C        3.082     0.032    27.201     8.550
    60   7 N        2.795    -0.034    21.906     6.951
    61   6 C        3.259     0.031    26.183     8.269
    62   6 C        3.110    -0.002    27.925     8.657
    63  16 S        2.305     0.003   140.929    19.980
    64   6 C        3.746    -0.011    20.838     6.511
    65   6 C        3.752    -0.114    22.743     6.801
    66   6 C        3.741    -0.004    20.717     6.494
    67   6 C        3.751    -0.121    22.872     6.820
    68   6 C        2.918    -0.012    28.318     8.726
    69   6 C        3.006    -0.041    29.010     8.835
    70   6 C        2.876     0.231    23.172     7.891
    71   8 O        0.973    -0.404    21.707     6.249
    72   6 C        3.061    -0.021    28.471     8.750
    73   6 C        2.904    -0.022    28.556     8.762
    74   6 C        3.261     0.009    26.636     8.337
    75   6 C        3.257     0.011    26.642     8.345
    76   6 C        2.904    -0.034    28.840     8.806
    77   6 C        3.050     0.005    27.869     8.658
    78   6 C        3.022     0.035    27.183     8.552
    79   6 C        2.947     0.006    27.884     8.661
    80   6 C        1.946     0.130    27.903     8.530
    81   7 N        0.911    -0.272    27.031     7.519
    82   6 C        1.948     0.134    27.812     8.517
    83   7 N        0.911    -0.270    26.981     7.513
    84   6 C        4.164    -0.024    20.921     6.496
    85   6 C        4.012    -0.015    20.766     6.474
    86   6 C        2.988    -0.041    29.011     8.835
    87   6 C        2.987    -0.042    29.038     8.839
    88   6 C        4.012    -0.015    20.766     6.474
    89   6 C        3.926    -0.060    21.593     6.604
    90   6 C        4.161    -0.025    20.924     6.497
    91   1 H        0.925     0.073     2.052     2.240
    92   1 H        0.926     0.073     2.051     2.240
    93   1 H        0.924     0.056     2.250     2.346
    94   1 H        0.924     0.056     2.252     2.347
    95   1 H        0.925     0.078     1.998     2.210
    96   1 H        0.924     0.058     2.217     2.329
    97   1 H        0.924     0.057     2.229     2.335
    98   1 H        0.925     0.079     1.987     2.205
    99   1 H        0.926     0.071     2.072     2.251
   100   1 H        0.925     0.029     2.601     2.522
   101   1 H        0.926     0.037     2.484     2.465
   102   1 H        0.926     0.042     2.422     2.434
   103   1 H        0.926     0.044     2.397     2.421
   104   1 H        0.924     0.041     2.436     2.441
   105   1 H        0.924     0.044     2.396     2.421
   106   1 H        0.925     0.026     2.641     2.542
   107   1 H        0.925     0.039     2.465     2.455
   108   1 H        0.925     0.042     2.417     2.431
   109   1 H        0.924     0.046     2.373     2.409
   110   1 H        0.924     0.030     2.583     2.513
   111   1 H        0.925     0.034     2.526     2.485
   112   1 H        0.925     0.040     2.443     2.444
   113   1 H        0.925     0.038     2.473     2.459
   114   1 H        0.926     0.049     2.334     2.389
   115   1 H        0.926     0.041     2.437     2.441
   116   1 H        0.926     0.038     2.477     2.461
   117   1 H        0.926     0.033     2.550     2.497
   118   1 H        0.924     0.071     2.074     2.252
   119   1 H        0.925     0.081     1.964     2.191
   120   1 H        0.925     0.045     2.378     2.411
   121   1 H        0.925     0.051     2.307     2.375
   122   1 H        0.925     0.056     2.241     2.341
   123   1 H        0.924     0.068     2.109     2.271
   124   1 H        0.924     0.067     2.116     2.275
   125   1 H        0.925     0.066     2.126     2.280
   126   1 H        0.925     0.059     2.209     2.324
   127   1 H        0.925     0.051     2.306     2.375
   128   1 H        0.925     0.071     2.073     2.252
   129   1 H        0.926     0.060     2.193     2.316
   130   1 H        0.926     0.058     2.220     2.330
   131   1 H        0.925     0.049     2.331     2.388
   132   1 H        0.925     0.040     2.454     2.450
   133   1 H        0.926     0.033     2.549     2.496
   134   1 H        0.926     0.032     2.557     2.501
   135   1 H        0.925     0.038     2.477     2.461
   136   1 H        0.925     0.043     2.414     2.430
   137   1 H        0.925     0.041     2.430     2.438
   138   1 H        0.925     0.048     2.342     2.393

 Mol. C6AA /au·bohr⁶  :     318209.532432
 Mol. C8AA /au·bohr⁸  :    8683907.570254
 Mol. α(0) /au        :        894.593348


Wiberg/Mayer (AO) data.
largest (>0.10) Wiberg bond orders for each atom

 ---------------------------------------------------------------------------
     #   Z sym  total        # sym  WBO       # sym  WBO       # sym  WBO
 ---------------------------------------------------------------------------
     1   6 C    3.939 --     2 C    1.490    21 C    1.310    91 H    0.933
     2   6 C    3.952 --     1 C    1.490    15 C    1.139     3 C    1.067
     3   6 C    3.909 --     4 O    1.671     2 C    1.067     5 C    1.041
     4   8 O    2.070 --     3 C    1.671    63 S    0.127
     5   6 C    3.970 --     6 C    1.384    14 C    1.294     3 C    1.041
     6   6 C    3.977 --     7 C    1.393     5 C    1.384    92 H    0.959
     7   6 C    3.917 --     6 C    1.393    10 C    1.230     8 O    1.094
     8   8 O    2.248 --     7 C    1.094     9 C    0.972
     9   6 C    3.928 --    95 H    0.978    94 H    0.975    93 H    0.975
                             8 O    0.972
    10   6 C    3.926 --    13 C    1.394     7 C    1.230    11 O    1.100
    11   8 O    2.256 --    10 C    1.100    12 C    0.969
    12   6 C    3.926 --    98 H    0.977    97 H    0.974    96 H    0.974
                            11 O    0.969
    13   6 C    3.975 --    10 C    1.394    14 C    1.374    99 H    0.953
    14   6 C    3.976 --    13 C    1.374     5 C    1.294    15 C    1.096
    15   6 C    3.968 --    16 C    1.466     2 C    1.139    14 C    1.096
    16   6 C    3.952 --    15 C    1.466    17 C    1.103    19 C    1.103
    17   6 C    3.941 --    18 N    2.748    16 C    1.103
    18   7 N    2.955 --    17 C    2.748
    19   6 C    3.942 --    20 N    2.742    16 C    1.103
    20   7 N    2.954 --    19 C    2.742
    21   6 C    3.929 --    22 C    1.325     1 C    1.310    63 S    1.083
    22   6 C    3.963 --    31 C    1.347    21 C    1.325    23 C    1.023
    23   6 C    3.985 --    24 C    1.389    28 C    1.368    22 C    1.023
                            26 C    0.105
    24   6 C    3.988 --    25 C    1.447    23 C    1.389   100 H    0.970
                            27 C    0.108
    25   6 C    3.990 --    24 C    1.447    26 C    1.431   101 H    0.970
                            28 C    0.106
    26   6 C    3.987 --    27 C    1.445    25 C    1.431   102 H    0.970
                            23 C    0.105
    27   6 C    3.990 --    26 C    1.445    28 C    1.414   103 H    0.967
                            24 C    0.108
    28   6 C    3.984 --    27 C    1.414    23 C    1.368    29 C    1.014
                            25 C    0.106
    29   6 C    3.996 --    28 C    1.014    30 C    1.000   105 H    0.975
                           104 H    0.968
    30   6 C    3.996 --    29 C    1.000   108 H    0.988   106 H    0.987
                           107 H    0.986
    31   6 C    3.927 --    22 C    1.347    62 C    1.293    32 S    1.078
    32  16 S    2.502 --    33 C    1.113    31 C    1.078
    33   6 C    3.915 --    61 C    1.305    34 C    1.273    32 S    1.113
    34   6 C    3.953 --    33 C    1.273    59 C    1.269    35 C    1.171
    35   6 C    3.971 --    39 N    1.426    34 C    1.171    36 C    1.165
                            38 S    0.104
    36   6 C    3.971 --    37 N    1.427    40 C    1.170    35 C    1.165
                            38 S    0.103
    37   7 N    3.062 --    36 C    1.427    38 S    1.385    39 N    0.143
    38  16 S    3.102 --    39 N    1.386    37 N    1.385    35 C    0.104
                            36 C    0.103
    39   7 N    3.062 --    35 C    1.426    38 S    1.386    37 N    0.143
    40   6 C    3.953 --    41 C    1.281    58 C    1.262    36 C    1.170
    41   6 C    3.915 --    56 C    1.296    40 C    1.281    42 S    1.114
    42  16 S    2.501 --    41 C    1.114    43 C    1.079
    43   6 C    3.927 --    44 C    1.354    55 C    1.288    42 S    1.079
    44   6 C    3.955 --    43 C    1.354    53 C    1.319    45 C    1.022
    45   6 C    3.985 --    52 C    1.392    46 C    1.367    44 C    1.022
                            50 C    0.105
    46   6 C    3.985 --    49 C    1.413    45 C    1.367    47 C    1.013
                            51 C    0.106
    47   6 C    3.996 --    46 C    1.013    48 C    1.000   109 H    0.974
                           110 H    0.970
    48   6 C    3.996 --    47 C    1.000   112 H    0.988   111 H    0.987
                           113 H    0.986
    49   6 C    3.989 --    50 C    1.446    46 C    1.413   114 H    0.966
                            52 C    0.109
    50   6 C    3.988 --    49 C    1.446    51 C    1.431   115 H    0.970
                            45 C    0.105
    51   6 C    3.990 --    52 C    1.446    50 C    1.431   116 H    0.969
                            46 C    0.106
    52   6 C    3.988 --    51 C    1.446    45 C    1.392   117 H    0.970
                            49 C    0.109
    53   6 C    3.929 --    44 C    1.319    68 C    1.317    54 S    1.078
    54  16 S    2.726 --    55 C    1.152    53 C    1.078    71 O    0.135
    55   6 C    3.940 --    43 C    1.288    56 C    1.258    54 S    1.152
    56   6 C    3.937 --    41 C    1.296    55 C    1.258    57 N    1.157
    57   7 N    3.565 --    58 C    1.182    56 C    1.157    66 C    0.978
    58   6 C    3.929 --    40 C    1.262    59 C    1.223    57 N    1.182
    59   6 C    3.929 --    34 C    1.269    58 C    1.223    60 N    1.171
    60   7 N    3.543 --    59 C    1.171    61 C    1.152    64 C    0.974
    61   6 C    3.938 --    33 C    1.305    62 C    1.256    60 N    1.152
    62   6 C    3.940 --    31 C    1.293    61 C    1.256    63 S    1.152
    63  16 S    2.713 --    62 C    1.152    21 C    1.083     4 O    0.127
    64   6 C    3.955 --    65 C    1.005    60 N    0.974   118 H    0.965
                           119 H    0.957
    65   6 C    3.989 --    64 C    1.005   120 H    0.987   121 H    0.985
                           122 H    0.982
    66   6 C    3.959 --    67 C    1.007    57 N    0.978   124 H    0.965
                           123 H    0.963
    67   6 C    3.985 --    66 C    1.007   126 H    0.983   127 H    0.979
                           125 H    0.977
    68   6 C    3.944 --    69 C    1.481    53 C    1.317   128 H    0.935
    69   6 C    3.951 --    68 C    1.481    78 C    1.142    70 C    1.073
    70   6 C    3.909 --    71 O    1.672    69 C    1.073    72 C    1.033
    71   8 O    2.082 --    70 C    1.672    54 S    0.135
    72   6 C    3.971 --    73 C    1.381    77 C    1.307    70 C    1.033
    73   6 C    3.980 --    74 C    1.441    72 C    1.381   129 H    0.963
    74   6 C    3.956 --    73 C    1.441    75 C    1.328    90 C    0.996
    75   6 C    3.965 --    76 C    1.446    74 C    1.328    84 C    0.997
    76   6 C    3.977 --    75 C    1.446    77 C    1.370   130 H    0.958
    77   6 C    3.976 --    76 C    1.370    72 C    1.307    78 C    1.086
    78   6 C    3.969 --    79 C    1.475    69 C    1.142    77 C    1.086
    79   6 C    3.947 --    78 C    1.475    80 C    1.100    82 C    1.100
    80   6 C    3.942 --    81 N    2.744    79 C    1.100
    81   7 N    2.957 --    80 C    2.744
    82   6 C    3.941 --    83 N    2.752    79 C    1.100
    83   7 N    2.959 --    82 C    2.752
    84   6 C    3.985 --    75 C    0.997    90 C    0.978   131 H    0.959
                            85 C    0.947
    85   6 C    3.989 --    86 C    1.010    89 C    0.985   132 H    0.972
                            84 C    0.947
    86   6 C    3.987 --    87 C    1.924    85 C    1.010   133 H    0.971
    87   6 C    3.987 --    86 C    1.924    88 C    1.010   134 H    0.971
    88   6 C    3.989 --    87 C    1.010    89 C    0.985   135 H    0.972
                            90 C    0.947
    89   6 C    3.993 --    88 C    0.985    85 C    0.985   137 H    0.977
                           136 H    0.976
    90   6 C    3.984 --    74 C    0.996    84 C    0.978   138 H    0.959
                            88 C    0.947
    91   1 H    0.994 --     1 C    0.933
    92   1 H    0.993 --     6 C    0.959
    93   1 H    0.995 --     9 C    0.975
    94   1 H    0.995 --     9 C    0.975
    95   1 H    0.993 --     9 C    0.978
    96   1 H    0.995 --    12 C    0.974
    97   1 H    0.995 --    12 C    0.974
    98   1 H    0.993 --    12 C    0.977
    99   1 H    0.994 --    13 C    0.953
   100   1 H    0.999 --    24 C    0.970
   101   1 H    0.997 --    25 C    0.970
   102   1 H    0.997 --    26 C    0.970
   103   1 H    0.997 --    27 C    0.967
   104   1 H    0.998 --    29 C    0.968
   105   1 H    0.998 --    29 C    0.975
   106   1 H    0.999 --    30 C    0.987
   107   1 H    0.998 --    30 C    0.986
   108   1 H    0.998 --    30 C    0.988
   109   1 H    0.997 --    47 C    0.974
   110   1 H    0.999 --    47 C    0.970
   111   1 H    0.999 --    48 C    0.987
   112   1 H    0.998 --    48 C    0.988
   113   1 H    0.998 --    48 C    0.986
   114   1 H    0.996 --    49 C    0.966
   115   1 H    0.998 --    50 C    0.970
   116   1 H    0.997 --    51 C    0.969
   117   1 H    0.999 --    52 C    0.970
   118   1 H    0.993 --    64 C    0.965
   119   1 H    0.992 --    64 C    0.957
   120   1 H    0.998 --    65 C    0.987
   121   1 H    0.997 --    65 C    0.985
   122   1 H    0.996 --    65 C    0.982
   123   1 H    0.993 --    66 C    0.963
   124   1 H    0.995 --    66 C    0.965
   125   1 H    0.995 --    67 C    0.977
   126   1 H    0.996 --    67 C    0.983
   127   1 H    0.997 --    67 C    0.979
   128   1 H    0.994 --    68 C    0.935
   129   1 H    0.996 --    73 C    0.963
   130   1 H    0.996 --    76 C    0.958
   131   1 H    0.996 --    84 C    0.959
   132   1 H    0.998 --    85 C    0.972
   133   1 H    0.999 --    86 C    0.971
   134   1 H    0.999 --    87 C    0.971
   135   1 H    0.998 --    88 C    0.972
   136   1 H    0.996 --    89 C    0.976
   137   1 H    0.998 --    89 C    0.977
   138   1 H    0.996 --    90 C    0.959
 ---------------------------------------------------------------------------

Topologies differ in bond orders
Writing corrected topology to xtbtopo.mol

molecular dipole:
                 x           y           z       tot (Debye)
 q only:       -2.844       0.337       1.387
   full:       -3.596       0.579       1.381       9.901
molecular quadrupole (traceless):
                xx          xy          yy          xz          yz          zz
 q only:       61.841     -63.303     -76.083     -33.933     -56.835      14.242
  q+dip:       58.335     -68.668     -80.875     -26.261     -70.263      22.540
   full:       52.104     -71.426     -82.553     -24.709     -78.861      30.449


           -------------------------------------------------
          | TOTAL ENERGY             -236.704918471142 Eh   |
          | GRADIENT NORM               0.020090869602 Eh/α |
          | HOMO-LUMO GAP               1.101447770716 eV   |
           -------------------------------------------------

------------------------------------------------------------------------
 * finished run on 2022/02/02 at 23:37:52.504     
------------------------------------------------------------------------
 total:
 * wall-time:     0 d,  0 h,  0 min,  1.019 sec
 *  cpu-time:     0 d,  0 h,  0 min,  6.970 sec
 * ratio c/w:     6.840 speedup
 SCF:
 * wall-time:     0 d,  0 h,  0 min,  0.930 sec
 *  cpu-time:     0 d,  0 h,  0 min,  6.467 sec
 * ratio c/w:     6.951 speedup

