      -----------------------------------------------------------      
     |                   =====================                   |     
     |                           x T B                           |     
     |                   =====================                   |     
     |                         S. Grimme                         |     
     |          Mulliken Center for Theoretical Chemistry        |     
     |                    University of Bonn                     |     
      -----------------------------------------------------------      

   * xtb version 6.4.1 (unknown) compiled by 'oda6@login1.crc.pitt.edu' on 2021-06-25

   xtb is free software: you can redistribute it and/or modify it under
   the terms of the GNU Lesser General Public License as published by
   the Free Software Foundation, either version 3 of the License, or
   (at your option) any later version.
   
   xtb is distributed in the hope that it will be useful,
   but WITHOUT ANY WARRANTY; without even the implied warranty of
   MERCHANTABILITY or FITNESS FOR A PARTICULAR PURPOSE.  See the
   GNU Lesser General Public License for more details.
   
   Cite this work as:
   * C. Bannwarth, E. Caldeweyher, S. Ehlert, A. Hansen, P. Pracht,
     J. Seibert, S. Spicher, S. Grimme, WIREs Comput. Mol. Sci., 2020, 11,
     e01493. DOI: 10.1002/wcms.1493
   
   for GFN2-xTB:
   * C. Bannwarth, S. Ehlert and S. Grimme., J. Chem. Theory Comput., 2019,
     15, 1652-1671. DOI: 10.1021/acs.jctc.8b01176
   for GFN1-xTB:
   * S. Grimme, C. Bannwarth, P. Shushkov, J. Chem. Theory Comput., 2017,
     13, 1989-2009. DOI: 10.1021/acs.jctc.7b00118
   for GFN0-xTB:
   * P. Pracht, E. Caldeweyher, S. Ehlert, S. Grimme, ChemRxiv, 2019, preprint.
     DOI: 10.26434/chemrxiv.8326202.v1
   for GFN-FF:
   * S. Spicher and S. Grimme, Angew. Chem. Int. Ed., 2020, 59, 15665-15673.
     DOI: 10.1002/anie.202004239
   
   for DFT-D4:
   * E. Caldeweyher, C. Bannwarth and S. Grimme, J. Chem. Phys., 2017,
     147, 034112. DOI: 10.1063/1.4993215
   * E. Caldeweyher, S. Ehlert, A. Hansen, H. Neugebauer, S. Spicher,
     C. Bannwarth and S. Grimme, J. Chem. Phys., 2019, 150, 154122.
     DOI: 10.1063/1.5090222
   * E. Caldeweyher, J.-M. Mewes, S. Ehlert and S. Grimme, Phys. Chem. Chem. Phys.
     2020, 22, 8499-8512. DOI: 10.1039/D0CP00502A
   
   for sTDA-xTB:
   * S. Grimme and C. Bannwarth, J. Chem. Phys., 2016, 145, 054103.
     DOI: 10.1063/1.4959605
   
   in the mass-spec context:
   * V. Asgeirsson, C. Bauer and S. Grimme, Chem. Sci., 2017, 8, 4879.
     DOI: 10.1039/c7sc00601b
   * J. Koopman and S. Grimme, ACS Omega 2019, 4, 12, 15120-15133.
     DOI: 10.1021/acsomega.9b02011
   
   for metadynamics refer to:
   * S. Grimme, J. Chem. Theory Comput., 2019, 155, 2847-2862
     DOI: 10.1021/acs.jctc.9b00143
   
   for SPH calculations refer to:
   * S. Spicher and S. Grimme, J. Chem. Theory Comput., 2021, 17, 1701-1714
     DOI: 10.1021/acs.jctc.0c01306
   
   with help from (in alphabetical order)
   P. Atkinson, C. Bannwarth, F. Bohle, G. Brandenburg, E. Caldeweyher
   M. Checinski, S. Dohm, S. Ehlert, S. Ehrlich, I. Gerasimov, J. Koopman
   C. Lavigne, S. Lehtola, F. März, M. Müller, F. Musil, H. Neugebauer
   J. Pisarek, C. Plett, P. Pracht, J. Seibert, P. Shushkov, S. Spicher
   M. Stahn, M. Steiner, T. Strunk, J. Stückrath, T. Rose, and J. Unsleber
   
 * started run on 2022/02/02 at 17:50:39.520     

           -------------------------------------------------
          |                Calculation Setup                |
           -------------------------------------------------

          program call               : /ihome/ghutchison/oda6/xtb/xtb-641/bin/xtb ../../GFN2_output/39_115_68.mol --sp --alpb hexane
          hostname                   : smp-n39
          coordinate file            : ../../GFN2_output/39_115_68.mol
          omp threads                :                     8
          number of atoms            :                   107
          number of electrons        :                   362
          charge                     :                     0
          spin                       :                   0.0
          first test random number   :      0.18029820049431

   ID    Z sym.   atoms
    1    6 C      1-3, 5-13, 15, 17-29, 31, 32, 34, 35, 39-41, 43-45, 47, 48,
                  50-53, 55-59, 61-65, 68-73, 75
    2    8 O      4, 60
    3    7 N      14, 16, 36, 38, 49, 54, 74, 76
    4   16 S      30, 33, 37, 42, 46, 67
    5   35 Br     66
    6    1 H      77-107

           -------------------------------------------------
          |                 G F N 2 - x T B                 |
           -------------------------------------------------

        Reference                      10.1021/acs.jctc.8b01176
      * Hamiltonian:
        H0-scaling (s, p, d)           1.850000    2.230000    2.230000
        zeta-weighting                 0.500000
      * Dispersion:
        s8                             2.700000
        a1                             0.520000
        a2                             5.000000
        s9                             5.000000
      * Repulsion:
        kExp                           1.500000    1.000000
        rExp                           1.000000
      * Coulomb:
        alpha                          2.000000
        third order                    shell-resolved
        anisotropic                    true
        a3                             3.000000
        a5                             4.000000
        cn-shift                       1.200000
        cn-exp                         4.000000
        max-rad                        5.000000

      * Solvation model:               ALPB
        Solvent                        hexane
        Parameter file                 internal GFN2-xTB/ALPB
        Dielectric constant                1.8800E+00
        Reference state                gsolv [1 M gas/solution]
        Free energy shift                  4.8134E-03 Eh       3.0204E+00 kcal/mol
        Temperature                        2.9815E+02 K
        Density                            6.6000E-01 kg/L
        Solvent mass                       8.6180E+01 g/mol
        Interaction kernel             P16
        Born radius scaling (c1)           1.1040E+00
        Born radii integrator          GBOBC
        Born offset                        0.0000E+00 a0       0.0000E+00 AA
        H-bond correction              false
        Ion screening                  false
        Surface tension                    1.0000E-05 Eh       1.5569E+01 dyn/cm
        Grid points                               230 per atom

          ...................................................
          :                      SETUP                      :
          :.................................................:
          :  # basis functions                 377          :
          :  # atomic orbitals                 370          :
          :  # shells                          190          :
          :  # electrons                       362          :
          :  max. iterations                   250          :
          :  Hamiltonian                  GFN2-xTB          :
          :  restarted?                      false          :
          :  GBSA solvation                   true          :
          :  PC potential                    false          :
          :  electronic temp.          300.0000000     K    :
          :  accuracy                    1.0000000          :
          :  -> integral cutoff          0.2500000E+02      :
          :  -> integral neglect         0.1000000E-07      :
          :  -> SCF convergence          0.1000000E-05 Eh   :
          :  -> wf. convergence          0.1000000E-03 e    :
          :  Broyden damping             0.4000000          :
          ...................................................

 iter      E             dE          RMSdq      gap      omega  full diag
   1   -200.0296953 -0.200030E+03  0.473E+00    1.28       0.0  T
   2   -200.2099536 -0.180258E+00  0.289E+00    1.00       1.0  T
   3   -200.1467281  0.632255E-01  0.153E+00    1.11       1.0  T
   4   -200.2703206 -0.123592E+00  0.517E-01    1.08       1.0  T
   5   -200.2864673 -0.161466E-01  0.187E-01    1.00       1.0  T
   6   -200.2875871 -0.111980E-02  0.102E-01    1.05       1.0  T
   7   -200.2879797 -0.392664E-03  0.497E-02    1.03       1.0  T
   8   -200.2880470 -0.672826E-04  0.342E-02    1.03       1.0  T
   9   -200.2880623 -0.152486E-04  0.253E-02    1.03       1.0  T
  10   -200.2880725 -0.102465E-04  0.159E-02    1.03       1.0  T
  11   -200.2880794 -0.689043E-05  0.920E-03    1.03       1.1  T
  12   -200.2880808 -0.144053E-05  0.452E-03    1.03       2.1  T
  13   -200.2880818 -0.941196E-06  0.208E-03    1.03       4.6  T
  14   -200.2880819 -0.126277E-06  0.106E-03    1.03       9.1  T
  15   -200.2880819 -0.195433E-07  0.525E-04    1.03      18.4  T
  16   -200.2880819 -0.853154E-08  0.276E-04    1.03      35.1  T

   *** convergence criteria satisfied after 16 iterations ***

         #    Occupation            Energy/Eh            Energy/eV
      -------------------------------------------------------------
         1        2.0000           -0.8623201             -23.4649
       ...           ...                  ...                  ...
       175        2.0000           -0.4073422             -11.0843
       176        2.0000           -0.4050286             -11.0214
       177        2.0000           -0.3971875             -10.8080
       178        2.0000           -0.3952238             -10.7546
       179        2.0000           -0.3915392             -10.6543
       180        2.0000           -0.3821692             -10.3994
       181        2.0000           -0.3757788             -10.2255 (HOMO)
       182                         -0.3379340              -9.1957 (LUMO)
       183                         -0.3295838              -8.9684
       184                         -0.3216554              -8.7527
       185                         -0.3166383              -8.6162
       186                         -0.3028196              -8.2401
       ...                                ...                  ...
       370                          1.1583160              31.5194
      -------------------------------------------------------------
                  HL-Gap            0.0378448 Eh            1.0298 eV
             Fermi-level           -0.3568559 Eh           -9.7105 eV

 SCC (total)                   0 d,  0 h,  0 min,  0.622 sec
 SCC setup                      ...        0 min,  0.003 sec (  0.443%)
 Dispersion                     ...        0 min,  0.005 sec (  0.869%)
 classical contributions        ...        0 min,  0.000 sec (  0.033%)
 integral evaluation            ...        0 min,  0.017 sec (  2.803%)
 iterations                     ...        0 min,  0.559 sec ( 89.920%)
 molecular gradient             ...        0 min,  0.036 sec (  5.725%)
 printout                       ...        0 min,  0.001 sec (  0.192%)

         :::::::::::::::::::::::::::::::::::::::::::::::::::::
         ::                     SUMMARY                     ::
         :::::::::::::::::::::::::::::::::::::::::::::::::::::
         :: total energy            -197.212383152369 Eh    ::
         :: total w/o Gsasa/hb      -197.143228138487 Eh    ::
         :: gradient norm              0.022456886897 Eh/a0 ::
         :: HOMO-LUMO gap              1.029809396149 eV    ::
         ::.................................................::
         :: SCC energy              -200.288081923102 Eh    ::
         :: -> isotropic ES            0.142248913268 Eh    ::
         :: -> anisotropic ES          0.009219498056 Eh    ::
         :: -> anisotropic XC          0.128610909070 Eh    ::
         :: -> dispersion             -0.181609944360 Eh    ::
         :: -> Gsolv                  -0.092518683265 Eh    ::
         ::    -> Gelec               -0.023363669383 Eh    ::
         ::    -> Gsasa               -0.073968369702 Eh    ::
         ::    -> Ghb                  0.000000000000 Eh    ::
         ::    -> Gshift               0.004813355820 Eh    ::
         :: repulsion energy           3.075571165171 Eh    ::
         :: add. restraining           0.000000000000 Eh    ::
         :: total charge               0.000000000005 e     ::
         :::::::::::::::::::::::::::::::::::::::::::::::::::::

           -------------------------------------------------
          |                Property Printout                |
           -------------------------------------------------

    * Orbital Energies and Occupations

         #    Occupation            Energy/Eh            Energy/eV
      -------------------------------------------------------------
         1        2.0000           -0.8623201             -23.4649
       ...           ...                  ...                  ...
       169        2.0000           -0.4198154             -11.4238
       170        2.0000           -0.4188611             -11.3978
       171        2.0000           -0.4178217             -11.3695
       172        2.0000           -0.4153155             -11.3013
       173        2.0000           -0.4123263             -11.2200
       174        2.0000           -0.4097893             -11.1509
       175        2.0000           -0.4073422             -11.0843
       176        2.0000           -0.4050286             -11.0214
       177        2.0000           -0.3971875             -10.8080
       178        2.0000           -0.3952238             -10.7546
       179        2.0000           -0.3915392             -10.6543
       180        2.0000           -0.3821692             -10.3994
       181        2.0000           -0.3757788             -10.2255 (HOMO)
       182                         -0.3379340              -9.1957 (LUMO)
       183                         -0.3295838              -8.9684
       184                         -0.3216554              -8.7527
       185                         -0.3166383              -8.6162
       186                         -0.3028196              -8.2401
       187                         -0.2873090              -7.8181
       188                         -0.2742458              -7.4626
       189                         -0.2685881              -7.3087
       190                         -0.2521146              -6.8604
       191                         -0.2492558              -6.7826
       192                         -0.2483737              -6.7586
       ...                                ...                  ...
       370                          1.1583160              31.5194
      -------------------------------------------------------------
                  HL-Gap            0.0378448 Eh            1.0298 eV
             Fermi-level           -0.3568559 Eh           -9.7105 eV

     #   Z          covCN         q      C6AA      α(0)
     1   6 C        2.929    -0.011    28.281     8.721
     2   6 C        3.010    -0.035    28.843     8.810
     3   6 C        2.873     0.234    23.105     7.880
     4   8 O        0.856    -0.411    21.908     6.275
     5   6 C        3.059    -0.020    28.451     8.747
     6   6 C        2.904    -0.022    28.549     8.761
     7   6 C        3.258     0.011    26.636     8.342
     8   6 C        3.257     0.013    26.599     8.338
     9   6 C        2.904    -0.033    28.833     8.805
    10   6 C        3.052     0.007    27.808     8.648
    11   6 C        3.023     0.041    27.055     8.532
    12   6 C        2.948     0.009    27.824     8.652
    13   6 C        1.929     0.132    27.861     8.524
    14   7 N        0.911    -0.268    26.947     7.508
    15   6 C        1.934     0.133    27.830     8.519
    16   7 N        0.911    -0.274    27.091     7.528
    17   6 C        4.161    -0.022    20.886     6.491
    18   6 C        4.013    -0.015    20.767     6.474
    19   6 C        2.995    -0.042    29.023     8.837
    20   6 C        2.995    -0.042    29.029     8.838
    21   6 C        4.013    -0.015    20.767     6.474
    22   6 C        3.915    -0.060    21.589     6.604
    23   6 C        4.161    -0.022    20.882     6.490
    24   6 C        2.996     0.021    27.537     8.608
    25   6 C        3.102     0.012    27.616     8.611
    26   6 C        3.804    -0.056    21.580     6.613
    27   6 C        3.754    -0.103    22.525     6.767
    28   6 C        3.198     0.011    27.222     8.505
    29   6 C        3.119     0.012    27.586     8.602
    30  16 S        2.259    -0.069   143.941    20.193
    31   6 C        3.252     0.029    26.308     8.300
    32   6 C        3.099     0.004    27.805     8.642
    33  16 S        2.178    -0.016   141.724    20.037
    34   6 C        3.088    -0.035    28.760     8.791
    35   6 C        3.342     0.070    23.974     7.738
    36   7 N        1.855    -0.295    28.491     7.911
    37  16 S        2.689     0.356   127.386    18.996
    38   7 N        1.854    -0.295    28.504     7.913
    39   6 C        3.343     0.070    23.967     7.735
    40   6 C        3.087    -0.035    28.766     8.792
    41   6 C        3.098     0.007    27.736     8.631
    42  16 S        2.174    -0.012   141.540    20.024
    43   6 C        3.184     0.020    27.118     8.498
    44   6 C        3.066    -0.037    28.860     8.809
    45   6 C        2.991     0.030    27.328     8.575
    46  16 S        2.264    -0.046   142.978    20.125
    47   6 C        3.123     0.015    27.504     8.588
    48   6 C        3.249     0.030    26.333     8.308
    49   7 N        2.797    -0.028    21.792     6.933
    50   6 C        3.744    -0.006    20.757     6.499
    51   6 C        3.752    -0.114    22.750     6.802
    52   6 C        3.070     0.036    27.119     8.539
    53   6 C        3.070     0.033    27.181     8.549
    54   7 N        2.799    -0.026    21.753     6.927
    55   6 C        3.744    -0.007    20.769     6.501
    56   6 C        3.752    -0.115    22.753     6.802
    57   6 C        2.925    -0.010    28.265     8.719
    58   6 C        3.010    -0.033    28.800     8.803
    59   6 C        2.870     0.235    23.093     7.877
    60   8 O        0.856    -0.407    21.814     6.262
    61   6 C        3.040    -0.020    28.476     8.753
    62   6 C        2.910    -0.017    28.437     8.744
    63   6 C        3.147     0.010    27.518     8.582
    64   6 C        3.102    -0.055    29.227     8.859
    65   6 C        2.933     0.096    25.876     8.342
    66  35 Br       1.140    -0.126   188.529    22.139
    67  16 S        2.396     0.021   140.217    19.930
    68   6 C        3.009     0.033    27.241     8.562
    69   6 C        2.933    -0.033    28.822     8.805
    70   6 C        3.040     0.008    27.796     8.647
    71   6 C        3.019     0.041    27.064     8.534
    72   6 C        2.948     0.009    27.819     8.651
    73   6 C        1.936     0.133    27.827     8.519
    74   7 N        0.911    -0.271    27.009     7.516
    75   6 C        1.930     0.131    27.887     8.528
    76   7 N        0.911    -0.265    26.868     7.497
    77   1 H        0.925     0.084     1.936     2.176
    78   1 H        0.926     0.062     2.175     2.306
    79   1 H        0.926     0.057     2.233     2.337
    80   1 H        0.925     0.047     2.360     2.402
    81   1 H        0.925     0.039     2.457     2.451
    82   1 H        0.926     0.039     2.463     2.454
    83   1 H        0.926     0.039     2.468     2.457
    84   1 H        0.925     0.039     2.460     2.453
    85   1 H        0.925     0.040     2.442     2.444
    86   1 H        0.925     0.035     2.517     2.481
    87   1 H        0.925     0.046     2.372     2.408
    88   1 H        0.925     0.054     2.270     2.356
    89   1 H        0.924     0.062     2.175     2.307
    90   1 H        0.925     0.042     2.419     2.432
    91   1 H        0.925     0.046     2.371     2.408
    92   1 H        0.925     0.051     2.307     2.375
    93   1 H        0.926     0.072     2.058     2.244
    94   1 H        0.924     0.073     2.058     2.243
    95   1 H        0.925     0.072     2.068     2.249
    96   1 H        0.925     0.052     2.292     2.368
    97   1 H        0.925     0.052     2.300     2.372
    98   1 H        0.925     0.059     2.215     2.327
    99   1 H        0.924     0.074     2.038     2.232
   100   1 H        0.925     0.072     2.061     2.245
   101   1 H        0.925     0.051     2.311     2.377
   102   1 H        0.925     0.051     2.305     2.374
   103   1 H        0.925     0.057     2.239     2.340
   104   1 H        0.925     0.085     1.927     2.171
   105   1 H        0.926     0.074     2.040     2.233
   106   1 H        0.926     0.077     2.009     2.217
   107   1 H        0.926     0.069     2.095     2.263

 Mol. C6AA /au·bohr⁶  :     233083.889712
 Mol. C8AA /au·bohr⁸  :    6877159.872791
 Mol. α(0) /au        :        769.433908


Wiberg/Mayer (AO) data.
largest (>0.10) Wiberg bond orders for each atom

 ---------------------------------------------------------------------------
     #   Z sym  total        # sym  WBO       # sym  WBO       # sym  WBO
 ---------------------------------------------------------------------------
     1   6 C    3.946 --     2 C    1.559    24 C    1.240    77 H    0.942
     2   6 C    3.954 --     1 C    1.559    11 C    1.130     3 C    1.013
     3   6 C    3.915 --     4 O    1.746     5 C    1.027     2 C    1.013
     4   8 O    2.022 --     3 C    1.746
     5   6 C    3.969 --     6 C    1.376    10 C    1.305     3 C    1.027
     6   6 C    3.981 --     7 C    1.446     5 C    1.376    78 H    0.963
     7   6 C    3.956 --     6 C    1.446     8 C    1.322    23 C    0.992
     8   6 C    3.965 --     9 C    1.450     7 C    1.322    17 C    0.994
     9   6 C    3.978 --     8 C    1.450    10 C    1.366    79 H    0.960
    10   6 C    3.977 --     9 C    1.366     5 C    1.305    11 C    1.086
    11   6 C    3.971 --    12 C    1.475     2 C    1.130    10 C    1.086
    12   6 C    3.969 --    11 C    1.475    13 C    1.105    15 C    1.098
    13   6 C    3.943 --    14 N    2.756    12 C    1.105
    14   7 N    2.962 --    13 C    2.756
    15   6 C    3.944 --    16 N    2.758    12 C    1.098
    16   7 N    2.969 --    15 C    2.758
    17   6 C    3.984 --     8 C    0.994    23 C    0.975    80 H    0.961
                            18 C    0.950
    18   6 C    3.989 --    19 C    1.004    22 C    0.989    81 H    0.971
                            17 C    0.950
    19   6 C    3.981 --    20 C    1.923    18 C    1.004    82 H    0.971
    20   6 C    3.982 --    19 C    1.923    21 C    1.004    83 H    0.971
    21   6 C    3.988 --    20 C    1.004    22 C    0.989    84 H    0.971
                            23 C    0.950
    22   6 C    3.994 --    21 C    0.989    18 C    0.989    85 H    0.978
                            86 H    0.974
    23   6 C    3.983 --     7 C    0.992    17 C    0.975    87 H    0.961
                            21 C    0.950
    24   6 C    3.922 --    25 C    1.410     1 C    1.240    30 S    1.064
    25   6 C    3.966 --    24 C    1.410    28 C    1.305    26 C    1.014
    26   6 C    3.992 --    25 C    1.014    27 C    0.993    88 H    0.971
                            89 H    0.965
    27   6 C    3.989 --    26 C    0.993    91 H    0.987    90 H    0.987
                            92 H    0.984
    28   6 C    3.928 --    29 C    1.325    25 C    1.305    33 S    1.092
    29   6 C    3.935 --    28 C    1.325    31 C    1.252    30 S    1.123
    30  16 S    2.547 --    29 C    1.123    24 C    1.064
    31   6 C    3.938 --    32 C    1.297    29 C    1.252    54 N    1.164
    32   6 C    3.919 --    31 C    1.297    34 C    1.277    33 S    1.116
    33  16 S    2.519 --    32 C    1.116    28 C    1.092
    34   6 C    3.954 --    32 C    1.277    53 C    1.266    35 C    1.172
    35   6 C    3.972 --    36 N    1.421    34 C    1.172    39 C    1.171
                            37 S    0.102
    36   7 N    3.063 --    35 C    1.421    37 S    1.391    38 N    0.144
    37  16 S    3.109 --    36 N    1.391    38 N    1.391    39 C    0.102
                            35 C    0.102
    38   7 N    3.062 --    39 C    1.422    37 S    1.391    36 N    0.144
    39   6 C    3.972 --    38 N    1.422    40 C    1.171    35 C    1.171
                            37 S    0.102
    40   6 C    3.955 --    41 C    1.280    52 C    1.265    39 C    1.171
    41   6 C    3.916 --    48 C    1.290    40 C    1.280    42 S    1.118
    42  16 S    2.516 --    41 C    1.118    43 C    1.091
    43   6 C    3.931 --    44 C    1.359    47 C    1.299    42 S    1.091
    44   6 C    3.967 --    45 C    1.420    43 C    1.359    93 H    0.958
    45   6 C    3.926 --    44 C    1.420    57 C    1.254    46 S    1.072
    46  16 S    2.562 --    47 C    1.131    45 C    1.072
    47   6 C    3.933 --    43 C    1.299    48 C    1.265    46 S    1.131
    48   6 C    3.940 --    41 C    1.290    47 C    1.265    49 N    1.159
    49   7 N    3.556 --    52 C    1.170    48 C    1.159    50 C    0.976
    50   6 C    3.957 --    51 C    1.007    49 N    0.976    94 H    0.962
                            95 H    0.953
    51   6 C    3.987 --    50 C    1.007    96 H    0.986    97 H    0.983
                            98 H    0.982
    52   6 C    3.926 --    40 C    1.265    53 C    1.227    49 N    1.170
    53   6 C    3.929 --    34 C    1.266    52 C    1.227    54 N    1.170
    54   7 N    3.562 --    53 C    1.170    31 C    1.164    55 C    0.979
    55   6 C    3.957 --    56 C    1.007    54 N    0.979    99 H    0.962
                           100 H    0.953
    56   6 C    3.988 --    55 C    1.007   101 H    0.986   103 H    0.983
                           102 H    0.982
    57   6 C    3.941 --    58 C    1.538    45 C    1.254   104 H    0.944
    58   6 C    3.951 --    57 C    1.538    71 C    1.137    59 C    1.020
    59   6 C    3.912 --    60 O    1.749    58 C    1.020    61 C    1.020
    60   8 O    2.018 --    59 C    1.749
    61   6 C    3.975 --    62 C    1.472    70 C    1.242    59 C    1.020
    62   6 C    3.970 --    61 C    1.472    63 C    1.315   105 H    0.961
    63   6 C    3.974 --    62 C    1.315    68 C    1.267    64 C    1.203
    64   6 C    3.974 --    65 C    1.611    63 C    1.203   106 H    0.958
    65   6 C    3.897 --    64 C    1.611    67 S    1.132    66 Br   1.025
    66  35 Br   1.163 --    65 C    1.025
    67  16 S    2.561 --    65 C    1.132    68 C    1.122
    68   6 C    3.949 --    69 C    1.375    63 C    1.267    67 S    1.122
    69   6 C    3.971 --    70 C    1.432    68 C    1.375   107 H    0.959
    70   6 C    3.976 --    69 C    1.432    61 C    1.242    71 C    1.086
    71   6 C    3.965 --    72 C    1.470    58 C    1.137    70 C    1.086
    72   6 C    3.956 --    71 C    1.470    75 C    1.105    73 C    1.099
    73   6 C    3.944 --    74 N    2.757    72 C    1.099
    74   7 N    2.968 --    73 C    2.757
    75   6 C    3.943 --    76 N    2.756    72 C    1.105
    76   7 N    2.960 --    75 C    2.756
    77   1 H    0.990 --     1 C    0.942
    78   1 H    0.995 --     6 C    0.963
    79   1 H    0.996 --     9 C    0.960
    80   1 H    0.996 --    17 C    0.961
    81   1 H    0.998 --    18 C    0.971
    82   1 H    0.998 --    19 C    0.971
    83   1 H    0.998 --    20 C    0.971
    84   1 H    0.998 --    21 C    0.971
    85   1 H    0.998 --    22 C    0.978
    86   1 H    0.999 --    22 C    0.974
    87   1 H    0.996 --    23 C    0.961
    88   1 H    0.996 --    26 C    0.971
    89   1 H    0.994 --    26 C    0.965
    90   1 H    0.998 --    27 C    0.987
    91   1 H    0.998 --    27 C    0.987
    92   1 H    0.995 --    27 C    0.984
    93   1 H    0.994 --    44 C    0.958
    94   1 H    0.994 --    50 C    0.962
    95   1 H    0.993 --    50 C    0.953
    96   1 H    0.997 --    51 C    0.986
    97   1 H    0.997 --    51 C    0.983
    98   1 H    0.996 --    51 C    0.982
    99   1 H    0.994 --    55 C    0.962
   100   1 H    0.992 --    55 C    0.953
   101   1 H    0.997 --    56 C    0.986
   102   1 H    0.997 --    56 C    0.982
   103   1 H    0.996 --    56 C    0.983
   104   1 H    0.990 --    57 C    0.944
   105   1 H    0.994 --    62 C    0.961
   106   1 H    0.994 --    64 C    0.958
   107   1 H    0.994 --    69 C    0.959
 ---------------------------------------------------------------------------

Topologies differ in bond orders
Writing corrected topology to xtbtopo.mol

molecular dipole:
                 x           y           z       tot (Debye)
 q only:        2.610       2.154      -1.050
   full:        2.674       2.440      -1.199       9.692
molecular quadrupole (traceless):
                xx          xy          yy          xz          yz          zz
 q only:       -0.488      -3.341       2.692     -49.008      15.115      -2.205
  q+dip:       21.747      -9.359      -3.382     -26.192       2.315     -18.365
   full:       19.583      -4.005       3.193     -25.580      -2.627     -22.776


           -------------------------------------------------
          | TOTAL ENERGY             -197.212383152369 Eh   |
          | GRADIENT NORM               0.022456886897 Eh/α |
          | HOMO-LUMO GAP               1.029809396149 eV   |
           -------------------------------------------------

------------------------------------------------------------------------
 * finished run on 2022/02/02 at 17:50:40.213     
------------------------------------------------------------------------
 total:
 * wall-time:     0 d,  0 h,  0 min,  0.693 sec
 *  cpu-time:     0 d,  0 h,  0 min,  4.951 sec
 * ratio c/w:     7.145 speedup
 SCF:
 * wall-time:     0 d,  0 h,  0 min,  0.624 sec
 *  cpu-time:     0 d,  0 h,  0 min,  4.518 sec
 * ratio c/w:     7.241 speedup

