      -----------------------------------------------------------      
     |                   =====================                   |     
     |                           x T B                           |     
     |                   =====================                   |     
     |                         S. Grimme                         |     
     |          Mulliken Center for Theoretical Chemistry        |     
     |                    University of Bonn                     |     
      -----------------------------------------------------------      

   * xtb version 6.4.1 (unknown) compiled by 'oda6@login1.crc.pitt.edu' on 2021-06-25

   xtb is free software: you can redistribute it and/or modify it under
   the terms of the GNU Lesser General Public License as published by
   the Free Software Foundation, either version 3 of the License, or
   (at your option) any later version.
   
   xtb is distributed in the hope that it will be useful,
   but WITHOUT ANY WARRANTY; without even the implied warranty of
   MERCHANTABILITY or FITNESS FOR A PARTICULAR PURPOSE.  See the
   GNU Lesser General Public License for more details.
   
   Cite this work as:
   * C. Bannwarth, E. Caldeweyher, S. Ehlert, A. Hansen, P. Pracht,
     J. Seibert, S. Spicher, S. Grimme, WIREs Comput. Mol. Sci., 2020, 11,
     e01493. DOI: 10.1002/wcms.1493
   
   for GFN2-xTB:
   * C. Bannwarth, S. Ehlert and S. Grimme., J. Chem. Theory Comput., 2019,
     15, 1652-1671. DOI: 10.1021/acs.jctc.8b01176
   for GFN1-xTB:
   * S. Grimme, C. Bannwarth, P. Shushkov, J. Chem. Theory Comput., 2017,
     13, 1989-2009. DOI: 10.1021/acs.jctc.7b00118
   for GFN0-xTB:
   * P. Pracht, E. Caldeweyher, S. Ehlert, S. Grimme, ChemRxiv, 2019, preprint.
     DOI: 10.26434/chemrxiv.8326202.v1
   for GFN-FF:
   * S. Spicher and S. Grimme, Angew. Chem. Int. Ed., 2020, 59, 15665-15673.
     DOI: 10.1002/anie.202004239
   
   for DFT-D4:
   * E. Caldeweyher, C. Bannwarth and S. Grimme, J. Chem. Phys., 2017,
     147, 034112. DOI: 10.1063/1.4993215
   * E. Caldeweyher, S. Ehlert, A. Hansen, H. Neugebauer, S. Spicher,
     C. Bannwarth and S. Grimme, J. Chem. Phys., 2019, 150, 154122.
     DOI: 10.1063/1.5090222
   * E. Caldeweyher, J.-M. Mewes, S. Ehlert and S. Grimme, Phys. Chem. Chem. Phys.
     2020, 22, 8499-8512. DOI: 10.1039/D0CP00502A
   
   for sTDA-xTB:
   * S. Grimme and C. Bannwarth, J. Chem. Phys., 2016, 145, 054103.
     DOI: 10.1063/1.4959605
   
   in the mass-spec context:
   * V. Asgeirsson, C. Bauer and S. Grimme, Chem. Sci., 2017, 8, 4879.
     DOI: 10.1039/c7sc00601b
   * J. Koopman and S. Grimme, ACS Omega 2019, 4, 12, 15120-15133.
     DOI: 10.1021/acsomega.9b02011
   
   for metadynamics refer to:
   * S. Grimme, J. Chem. Theory Comput., 2019, 155, 2847-2862
     DOI: 10.1021/acs.jctc.9b00143
   
   for SPH calculations refer to:
   * S. Spicher and S. Grimme, J. Chem. Theory Comput., 2021, 17, 1701-1714
     DOI: 10.1021/acs.jctc.0c01306
   
   with help from (in alphabetical order)
   P. Atkinson, C. Bannwarth, F. Bohle, G. Brandenburg, E. Caldeweyher
   M. Checinski, S. Dohm, S. Ehlert, S. Ehrlich, I. Gerasimov, J. Koopman
   C. Lavigne, S. Lehtola, F. März, M. Müller, F. Musil, H. Neugebauer
   J. Pisarek, C. Plett, P. Pracht, J. Seibert, P. Shushkov, S. Spicher
   M. Stahn, M. Steiner, T. Strunk, J. Stückrath, T. Rose, and J. Unsleber
   
 * started run on 2022/02/02 at 09:02:45.291     

           -------------------------------------------------
          |                Calculation Setup                |
           -------------------------------------------------

          program call               : /ihome/ghutchison/oda6/xtb/xtb-641/bin/xtb ../../GFN2_output/39_115_47.mol --sp --alpb hexane
          hostname                   : smp-n98
          coordinate file            : ../../GFN2_output/39_115_47.mol
          omp threads                :                     8
          number of atoms            :                   101
          number of electrons        :                   338
          charge                     :                     0
          spin                       :                   0.0
          first test random number   :      0.70609457000067

   ID    Z sym.   atoms
    1    6 C      1-3, 5-13, 15, 17-29, 31, 32, 34, 35, 39-41, 43-45, 47, 48,
                  50-53, 55-59, 61, 62, 64-68, 70
    2    8 O      4, 60
    3    7 N      14, 16, 36, 38, 49, 54, 69, 71
    4   16 S      30, 33, 37, 42, 46, 63
    5    1 H      72-101

           -------------------------------------------------
          |                 G F N 2 - x T B                 |
           -------------------------------------------------

        Reference                      10.1021/acs.jctc.8b01176
      * Hamiltonian:
        H0-scaling (s, p, d)           1.850000    2.230000    2.230000
        zeta-weighting                 0.500000
      * Dispersion:
        s8                             2.700000
        a1                             0.520000
        a2                             5.000000
        s9                             5.000000
      * Repulsion:
        kExp                           1.500000    1.000000
        rExp                           1.000000
      * Coulomb:
        alpha                          2.000000
        third order                    shell-resolved
        anisotropic                    true
        a3                             3.000000
        a5                             4.000000
        cn-shift                       1.200000
        cn-exp                         4.000000
        max-rad                        5.000000

      * Solvation model:               ALPB
        Solvent                        hexane
        Parameter file                 internal GFN2-xTB/ALPB
        Dielectric constant                1.8800E+00
        Reference state                gsolv [1 M gas/solution]
        Free energy shift                  4.8134E-03 Eh       3.0204E+00 kcal/mol
        Temperature                        2.9815E+02 K
        Density                            6.6000E-01 kg/L
        Solvent mass                       8.6180E+01 g/mol
        Interaction kernel             P16
        Born radius scaling (c1)           1.1040E+00
        Born radii integrator          GBOBC
        Born offset                        0.0000E+00 a0       0.0000E+00 AA
        H-bond correction              false
        Ion screening                  false
        Surface tension                    1.0000E-05 Eh       1.5569E+01 dyn/cm
        Grid points                               230 per atom

          ...................................................
          :                      SETUP                      :
          :.................................................:
          :  # basis functions                 350          :
          :  # atomic orbitals                 344          :
          :  # shells                          178          :
          :  # electrons                       338          :
          :  max. iterations                   250          :
          :  Hamiltonian                  GFN2-xTB          :
          :  restarted?                      false          :
          :  GBSA solvation                   true          :
          :  PC potential                    false          :
          :  electronic temp.          300.0000000     K    :
          :  accuracy                    1.0000000          :
          :  -> integral cutoff          0.2500000E+02      :
          :  -> integral neglect         0.1000000E-07      :
          :  -> SCF convergence          0.1000000E-05 Eh   :
          :  -> wf. convergence          0.1000000E-03 e    :
          :  Broyden damping             0.4000000          :
          ...................................................

 iter      E             dE          RMSdq      gap      omega  full diag
   1   -186.6807826 -0.186681E+03  0.469E+00    1.28       0.0  T
   2   -186.8506050 -0.169822E+00  0.281E+00    1.01       1.0  T
   3   -186.7940844  0.565206E-01  0.153E+00    1.14       1.0  T
   4   -186.9057409 -0.111657E+00  0.511E-01    1.09       1.0  T
   5   -186.9216896 -0.159487E-01  0.162E-01    1.01       1.0  T
   6   -186.9227230 -0.103344E-02  0.823E-02    1.06       1.0  T
   7   -186.9229873 -0.264206E-03  0.313E-02    1.04       1.0  T
   8   -186.9230203 -0.330535E-04  0.139E-02    1.04       1.0  T
   9   -186.9230258 -0.554022E-05  0.653E-03    1.04       1.5  T
  10   -186.9230266 -0.791640E-06  0.318E-03    1.04       3.1  T
  11   -186.9230270 -0.388953E-06  0.143E-03    1.04       6.9  T
  12   -186.9230270 -0.236914E-07  0.829E-04    1.04      12.0  T
  13   -186.9230271 -0.185807E-07  0.332E-04    1.04      29.9  T

   *** convergence criteria satisfied after 13 iterations ***

         #    Occupation            Energy/Eh            Energy/eV
      -------------------------------------------------------------
         1        2.0000           -0.7596445             -20.6710
       ...           ...                  ...                  ...
       163        2.0000           -0.4072587             -11.0821
       164        2.0000           -0.4042950             -11.0014
       165        2.0000           -0.3965569             -10.7909
       166        2.0000           -0.3936623             -10.7121
       167        2.0000           -0.3893766             -10.5955
       168        2.0000           -0.3808024             -10.3622
       169        2.0000           -0.3734781             -10.1629 (HOMO)
       170                         -0.3351089              -9.1188 (LUMO)
       171                         -0.3286897              -8.9441
       172                         -0.3165942              -8.6150
       173                         -0.3123811              -8.5003
       174                         -0.3013880              -8.2012
       ...                                ...                  ...
       344                          1.1593180              31.5466
      -------------------------------------------------------------
                  HL-Gap            0.0383692 Eh            1.0441 eV
             Fermi-level           -0.3542938 Eh           -9.6408 eV

 SCC (total)                   0 d,  0 h,  0 min,  0.238 sec
 SCC setup                      ...        0 min,  0.002 sec (  0.937%)
 Dispersion                     ...        0 min,  0.004 sec (  1.636%)
 classical contributions        ...        0 min,  0.000 sec (  0.058%)
 integral evaluation            ...        0 min,  0.013 sec (  5.544%)
 iterations                     ...        0 min,  0.185 sec ( 77.980%)
 molecular gradient             ...        0 min,  0.032 sec ( 13.407%)
 printout                       ...        0 min,  0.001 sec (  0.398%)

         :::::::::::::::::::::::::::::::::::::::::::::::::::::
         ::                     SUMMARY                     ::
         :::::::::::::::::::::::::::::::::::::::::::::::::::::
         :: total energy            -184.025578843091 Eh    ::
         :: total w/o Gsasa/hb      -183.962580432463 Eh    ::
         :: gradient norm              0.023012600495 Eh/a0 ::
         :: HOMO-LUMO gap              1.044077838383 eV    ::
         ::.................................................::
         :: SCC energy              -186.923027067424 Eh    ::
         :: -> isotropic ES            0.139916789892 Eh    ::
         :: -> anisotropic ES          0.008227867723 Eh    ::
         :: -> anisotropic XC          0.124592865681 Eh    ::
         :: -> dispersion             -0.169859340198 Eh    ::
         :: -> Gsolv                  -0.086226009592 Eh    ::
         ::    -> Gelec               -0.023227598964 Eh    ::
         ::    -> Gsasa               -0.067811766448 Eh    ::
         ::    -> Ghb                  0.000000000000 Eh    ::
         ::    -> Gshift               0.004813355820 Eh    ::
         :: repulsion energy           2.897594278273 Eh    ::
         :: add. restraining           0.000000000000 Eh    ::
         :: total charge              -0.000000000002 e     ::
         :::::::::::::::::::::::::::::::::::::::::::::::::::::

           -------------------------------------------------
          |                Property Printout                |
           -------------------------------------------------

    * Orbital Energies and Occupations

         #    Occupation            Energy/Eh            Energy/eV
      -------------------------------------------------------------
         1        2.0000           -0.7596445             -20.6710
       ...           ...                  ...                  ...
       157        2.0000           -0.4201339             -11.4324
       158        2.0000           -0.4188441             -11.3973
       159        2.0000           -0.4169272             -11.3452
       160        2.0000           -0.4160884             -11.3223
       161        2.0000           -0.4139654             -11.2646
       162        2.0000           -0.4102241             -11.1628
       163        2.0000           -0.4072587             -11.0821
       164        2.0000           -0.4042950             -11.0014
       165        2.0000           -0.3965569             -10.7909
       166        2.0000           -0.3936623             -10.7121
       167        2.0000           -0.3893766             -10.5955
       168        2.0000           -0.3808024             -10.3622
       169        2.0000           -0.3734781             -10.1629 (HOMO)
       170                         -0.3351089              -9.1188 (LUMO)
       171                         -0.3286897              -8.9441
       172                         -0.3165942              -8.6150
       173                         -0.3123811              -8.5003
       174                         -0.3013880              -8.2012
       175                         -0.2826612              -7.6916
       176                         -0.2710026              -7.3744
       177                         -0.2571237              -6.9967
       178                         -0.2485322              -6.7629
       179                         -0.2446768              -6.6580
       180                         -0.2438855              -6.6365
       ...                                ...                  ...
       344                          1.1593180              31.5466
      -------------------------------------------------------------
                  HL-Gap            0.0383692 Eh            1.0441 eV
             Fermi-level           -0.3542938 Eh           -9.6408 eV

     #   Z          covCN         q      C6AA      α(0)
     1   6 C        2.929    -0.010    28.263     8.719
     2   6 C        3.009    -0.035    28.842     8.810
     3   6 C        2.872     0.234    23.109     7.880
     4   8 O        0.856    -0.412    21.914     6.276
     5   6 C        3.058    -0.020    28.452     8.747
     6   6 C        2.904    -0.022    28.548     8.761
     7   6 C        3.258     0.011    26.645     8.344
     8   6 C        3.257     0.013    26.602     8.339
     9   6 C        2.904    -0.034    28.837     8.805
    10   6 C        3.051     0.007    27.810     8.649
    11   6 C        3.022     0.041    27.057     8.532
    12   6 C        2.948     0.008    27.830     8.652
    13   6 C        1.935     0.133    27.830     8.519
    14   7 N        0.911    -0.276    27.126     7.533
    15   6 C        1.931     0.132    27.853     8.523
    16   7 N        0.911    -0.270    26.977     7.512
    17   6 C        4.161    -0.022    20.885     6.491
    18   6 C        4.013    -0.015    20.767     6.474
    19   6 C        2.995    -0.042    29.024     8.837
    20   6 C        2.995    -0.042    29.030     8.838
    21   6 C        4.013    -0.015    20.766     6.474
    22   6 C        3.915    -0.060    21.589     6.604
    23   6 C        4.161    -0.022    20.882     6.490
    24   6 C        2.997     0.020    27.546     8.609
    25   6 C        3.101     0.012    27.614     8.611
    26   6 C        3.804    -0.056    21.576     6.613
    27   6 C        3.754    -0.103    22.525     6.767
    28   6 C        3.197     0.011    27.226     8.505
    29   6 C        3.121     0.012    27.570     8.599
    30  16 S        2.258    -0.069   143.918    20.191
    31   6 C        3.256     0.031    26.216     8.279
    32   6 C        3.099     0.005    27.792     8.639
    33  16 S        2.181    -0.015   141.676    20.033
    34   6 C        3.083    -0.033    28.738     8.788
    35   6 C        3.341     0.070    24.002     7.745
    36   7 N        1.854    -0.294    28.472     7.909
    37  16 S        2.687     0.354   127.451    19.001
    38   7 N        1.854    -0.295    28.509     7.914
    39   6 C        3.341     0.070    23.989     7.743
    40   6 C        3.084    -0.036    28.791     8.796
    41   6 C        3.100     0.008    27.712     8.627
    42  16 S        2.172    -0.023   141.987    20.055
    43   6 C        3.191     0.020    27.075     8.487
    44   6 C        3.064    -0.039    28.904     8.816
    45   6 C        2.993     0.026    27.421     8.590
    46  16 S        2.282    -0.004   141.220    20.001
    47   6 C        3.119     0.012    27.566     8.599
    48   6 C        3.248     0.030    26.338     8.311
    49   7 N        2.798    -0.025    21.719     6.922
    50   6 C        3.743    -0.002    20.689     6.489
    51   6 C        3.752    -0.123    22.928     6.828
    52   6 C        3.076     0.033    27.179     8.547
    53   6 C        3.077     0.033    27.176     8.547
    54   7 N        2.794    -0.037    21.954     6.959
    55   6 C        3.746    -0.008    20.780     6.502
    56   6 C        3.752    -0.112    22.698     6.794
    57   6 C        2.943    -0.010    28.269     8.720
    58   6 C        3.018    -0.032    28.784     8.801
    59   6 C        2.861     0.238    23.029     7.866
    60   8 O        0.856    -0.411    21.904     6.275
    61   6 C        3.242    -0.033    27.845     8.554
    62   6 C        2.926    -0.010    28.277     8.720
    63  16 S        2.341     0.074   138.072    19.777
    64   6 C        2.927    -0.023    28.577     8.767
    65   6 C        3.243    -0.009    27.265     8.462
    66   6 C        3.008     0.042    27.036     8.529
    67   6 C        2.948     0.003    27.953     8.672
    68   6 C        1.925     0.133    27.844     8.522
    69   7 N        0.911    -0.273    27.056     7.523
    70   6 C        1.930     0.129    27.927     8.534
    71   7 N        0.911    -0.266    26.879     7.498
    72   1 H        0.925     0.084     1.939     2.178
    73   1 H        0.926     0.062     2.175     2.306
    74   1 H        0.926     0.057     2.233     2.337
    75   1 H        0.925     0.047     2.364     2.404
    76   1 H        0.925     0.039     2.457     2.451
    77   1 H        0.926     0.039     2.465     2.455
    78   1 H        0.926     0.038     2.470     2.458
    79   1 H        0.925     0.039     2.460     2.453
    80   1 H        0.925     0.035     2.512     2.479
    81   1 H        0.925     0.041     2.441     2.443
    82   1 H        0.925     0.046     2.375     2.410
    83   1 H        0.925     0.053     2.279     2.361
    84   1 H        0.924     0.062     2.174     2.306
    85   1 H        0.925     0.042     2.421     2.433
    86   1 H        0.925     0.051     2.311     2.377
    87   1 H        0.925     0.046     2.371     2.408
    88   1 H        0.926     0.055     2.255     2.348
    89   1 H        0.924     0.067     2.124     2.279
    90   1 H        0.924     0.068     2.106     2.269
    91   1 H        0.925     0.058     2.217     2.329
    92   1 H        0.925     0.058     2.220     2.330
    93   1 H        0.925     0.060     2.193     2.316
    94   1 H        0.924     0.071     2.072     2.251
    95   1 H        0.925     0.076     2.019     2.222
    96   1 H        0.925     0.056     2.245     2.343
    97   1 H        0.925     0.048     2.341     2.392
    98   1 H        0.925     0.047     2.352     2.398
    99   1 H        0.925     0.085     1.926     2.170
   100   1 H        0.926     0.079     1.992     2.207
   101   1 H        0.926     0.076     2.023     2.224

 Mol. C6AA /au·bohr⁶  :     199362.145562
 Mol. C8AA /au·bohr⁸  :    5732729.712263
 Mol. α(0) /au        :        710.186872


Wiberg/Mayer (AO) data.
largest (>0.10) Wiberg bond orders for each atom

 ---------------------------------------------------------------------------
     #   Z sym  total        # sym  WBO       # sym  WBO       # sym  WBO
 ---------------------------------------------------------------------------
     1   6 C    3.945 --     2 C    1.561    24 C    1.235    72 H    0.942
     2   6 C    3.955 --     1 C    1.561    11 C    1.131     3 C    1.015
     3   6 C    3.915 --     4 O    1.745     5 C    1.028     2 C    1.015
     4   8 O    2.021 --     3 C    1.745
     5   6 C    3.969 --     6 C    1.376    10 C    1.306     3 C    1.028
     6   6 C    3.981 --     7 C    1.446     5 C    1.376    73 H    0.963
     7   6 C    3.956 --     6 C    1.446     8 C    1.322    23 C    0.992
     8   6 C    3.965 --     9 C    1.451     7 C    1.322    17 C    0.994
     9   6 C    3.978 --     8 C    1.451    10 C    1.365    74 H    0.960
    10   6 C    3.977 --     9 C    1.365     5 C    1.306    11 C    1.086
    11   6 C    3.972 --    12 C    1.474     2 C    1.131    10 C    1.086
    12   6 C    3.969 --    11 C    1.474    15 C    1.105    13 C    1.099
    13   6 C    3.944 --    14 N    2.757    12 C    1.099
    14   7 N    2.969 --    13 C    2.757
    15   6 C    3.943 --    16 N    2.754    12 C    1.105
    16   7 N    2.961 --    15 C    2.754
    17   6 C    3.984 --     8 C    0.994    23 C    0.975    75 H    0.961
                            18 C    0.951
    18   6 C    3.989 --    19 C    1.004    22 C    0.989    76 H    0.971
                            17 C    0.951
    19   6 C    3.981 --    20 C    1.923    18 C    1.004    77 H    0.971
    20   6 C    3.982 --    19 C    1.923    21 C    1.004    78 H    0.971
    21   6 C    3.988 --    20 C    1.004    22 C    0.989    79 H    0.971
                            23 C    0.950
    22   6 C    3.994 --    21 C    0.989    18 C    0.989    81 H    0.978
                            80 H    0.974
    23   6 C    3.983 --     7 C    0.992    17 C    0.975    82 H    0.961
                            21 C    0.950
    24   6 C    3.922 --    25 C    1.414     1 C    1.235    30 S    1.064
    25   6 C    3.966 --    24 C    1.414    28 C    1.304    26 C    1.014
    26   6 C    3.992 --    25 C    1.014    27 C    0.993    83 H    0.972
                            84 H    0.965
    27   6 C    3.989 --    26 C    0.993    85 H    0.988    87 H    0.987
                            86 H    0.984
    28   6 C    3.929 --    29 C    1.324    25 C    1.304    33 S    1.093
    29   6 C    3.935 --    28 C    1.324    31 C    1.256    30 S    1.122
    30  16 S    2.542 --    29 C    1.122    24 C    1.064
    31   6 C    3.939 --    32 C    1.303    29 C    1.256    54 N    1.155
    32   6 C    3.919 --    31 C    1.303    34 C    1.269    33 S    1.118
    33  16 S    2.522 --    32 C    1.118    28 C    1.093
    34   6 C    3.954 --    53 C    1.275    32 C    1.269    35 C    1.173
    35   6 C    3.972 --    36 N    1.422    34 C    1.173    39 C    1.168
                            37 S    0.103
    36   7 N    3.063 --    35 C    1.422    37 S    1.391    38 N    0.144
    37  16 S    3.109 --    36 N    1.391    38 N    1.390    35 C    0.103
                            39 C    0.102
    38   7 N    3.063 --    39 C    1.423    37 S    1.390    36 N    0.144
    39   6 C    3.971 --    38 N    1.423    40 C    1.172    35 C    1.168
                            37 S    0.102
    40   6 C    3.954 --    41 C    1.279    52 C    1.262    39 C    1.172
    41   6 C    3.917 --    48 C    1.295    40 C    1.279    42 S    1.113
    42  16 S    2.511 --    41 C    1.113    43 C    1.092
    43   6 C    3.934 --    44 C    1.361    47 C    1.297    42 S    1.092
    44   6 C    3.975 --    45 C    1.418    43 C    1.361    88 H    0.959
    45   6 C    3.928 --    44 C    1.418    57 C    1.253    46 S    1.080
    46  16 S    2.566 --    47 C    1.144    45 C    1.080
    47   6 C    3.934 --    43 C    1.297    48 C    1.260    46 S    1.144
    48   6 C    3.940 --    41 C    1.295    47 C    1.260    49 N    1.158
    49   7 N    3.562 --    52 C    1.178    48 C    1.158    50 C    0.977
    50   6 C    3.959 --    51 C    1.007    49 N    0.977    90 H    0.963
                            89 H    0.961
    51   6 C    3.986 --    50 C    1.007    91 H    0.983    92 H    0.980
                            93 H    0.979
    52   6 C    3.928 --    40 C    1.262    53 C    1.227    49 N    1.178
    53   6 C    3.930 --    34 C    1.275    52 C    1.227    54 N    1.162
    54   7 N    3.540 --    53 C    1.162    31 C    1.155    55 C    0.975
    55   6 C    3.956 --    56 C    1.006    54 N    0.975    94 H    0.964
                            95 H    0.954
    56   6 C    3.988 --    55 C    1.006    98 H    0.987    97 H    0.984
                            96 H    0.982
    57   6 C    3.938 --    58 C    1.534    45 C    1.253    99 H    0.948
    58   6 C    3.955 --    57 C    1.534    66 C    1.140    59 C    1.015
    59   6 C    3.920 --    60 O    1.745    61 C    1.031    58 C    1.015
    60   8 O    2.027 --    59 C    1.745
    61   6 C    3.976 --    62 C    1.580    65 C    1.155    59 C    1.031
    62   6 C    3.949 --    61 C    1.580    63 S    1.212   100 H    0.965
    63  16 S    2.670 --    62 C    1.212    64 C    1.208
    64   6 C    3.938 --    65 C    1.565    63 S    1.208   101 H    0.964
    65   6 C    3.982 --    64 C    1.565    61 C    1.155    66 C    1.092
    66   6 C    3.975 --    67 C    1.462    58 C    1.140    65 C    1.092
    67   6 C    3.968 --    66 C    1.462    68 C    1.110    70 C    1.102
    68   6 C    3.943 --    69 N    2.752    67 C    1.110
    69   7 N    2.969 --    68 C    2.752
    70   6 C    3.945 --    71 N    2.761    67 C    1.102
    71   7 N    2.967 --    70 C    2.761
    72   1 H    0.990 --     1 C    0.942
    73   1 H    0.995 --     6 C    0.963
    74   1 H    0.996 --     9 C    0.960
    75   1 H    0.996 --    17 C    0.961
    76   1 H    0.998 --    18 C    0.971
    77   1 H    0.998 --    19 C    0.971
    78   1 H    0.998 --    20 C    0.971
    79   1 H    0.998 --    21 C    0.971
    80   1 H    0.999 --    22 C    0.974
    81   1 H    0.998 --    22 C    0.978
    82   1 H    0.996 --    23 C    0.961
    83   1 H    0.997 --    26 C    0.972
    84   1 H    0.994 --    26 C    0.965
    85   1 H    0.998 --    27 C    0.988
    86   1 H    0.996 --    27 C    0.984
    87   1 H    0.998 --    27 C    0.987
    88   1 H    0.996 --    44 C    0.959
    89   1 H    0.995 --    50 C    0.961
    90   1 H    0.993 --    50 C    0.963
    91   1 H    0.996 --    51 C    0.983
    92   1 H    0.997 --    51 C    0.980
    93   1 H    0.996 --    51 C    0.979
    94   1 H    0.994 --    55 C    0.964
    95   1 H    0.992 --    55 C    0.954
    96   1 H    0.996 --    56 C    0.982
    97   1 H    0.997 --    56 C    0.984
    98   1 H    0.998 --    56 C    0.987
    99   1 H    0.989 --    57 C    0.948
   100   1 H    0.993 --    62 C    0.965
   101   1 H    0.994 --    64 C    0.964
 ---------------------------------------------------------------------------

Topologies differ in bond orders
Writing corrected topology to xtbtopo.mol

molecular dipole:
                 x           y           z       tot (Debye)
 q only:        0.567       3.526       0.961
   full:        0.580       3.815       1.307      10.354
molecular quadrupole (traceless):
                xx          xy          yy          xz          yz          zz
 q only:      -22.779      -4.290     -11.220      -4.225       1.233      33.999
  q+dip:      -11.169      -6.495     -17.783       7.712      -7.058      28.952
   full:      -15.887      -4.715      -9.779       5.136     -14.087      25.666


           -------------------------------------------------
          | TOTAL ENERGY             -184.025578843091 Eh   |
          | GRADIENT NORM               0.023012600495 Eh/α |
          | HOMO-LUMO GAP               1.044077838383 eV   |
           -------------------------------------------------

------------------------------------------------------------------------
 * finished run on 2022/02/02 at 09:02:45.590     
------------------------------------------------------------------------
 total:
 * wall-time:     0 d,  0 h,  0 min,  0.298 sec
 *  cpu-time:     0 d,  0 h,  0 min,  2.302 sec
 * ratio c/w:     7.715 speedup
 SCF:
 * wall-time:     0 d,  0 h,  0 min,  0.239 sec
 *  cpu-time:     0 d,  0 h,  0 min,  1.904 sec
 * ratio c/w:     7.952 speedup

