      -----------------------------------------------------------      
     |                   =====================                   |     
     |                           x T B                           |     
     |                   =====================                   |     
     |                         S. Grimme                         |     
     |          Mulliken Center for Theoretical Chemistry        |     
     |                    University of Bonn                     |     
      -----------------------------------------------------------      

   * xtb version 6.4.1 (unknown) compiled by 'oda6@login1.crc.pitt.edu' on 2021-06-25

   xtb is free software: you can redistribute it and/or modify it under
   the terms of the GNU Lesser General Public License as published by
   the Free Software Foundation, either version 3 of the License, or
   (at your option) any later version.
   
   xtb is distributed in the hope that it will be useful,
   but WITHOUT ANY WARRANTY; without even the implied warranty of
   MERCHANTABILITY or FITNESS FOR A PARTICULAR PURPOSE.  See the
   GNU Lesser General Public License for more details.
   
   Cite this work as:
   * C. Bannwarth, E. Caldeweyher, S. Ehlert, A. Hansen, P. Pracht,
     J. Seibert, S. Spicher, S. Grimme, WIREs Comput. Mol. Sci., 2020, 11,
     e01493. DOI: 10.1002/wcms.1493
   
   for GFN2-xTB:
   * C. Bannwarth, S. Ehlert and S. Grimme., J. Chem. Theory Comput., 2019,
     15, 1652-1671. DOI: 10.1021/acs.jctc.8b01176
   for GFN1-xTB:
   * S. Grimme, C. Bannwarth, P. Shushkov, J. Chem. Theory Comput., 2017,
     13, 1989-2009. DOI: 10.1021/acs.jctc.7b00118
   for GFN0-xTB:
   * P. Pracht, E. Caldeweyher, S. Ehlert, S. Grimme, ChemRxiv, 2019, preprint.
     DOI: 10.26434/chemrxiv.8326202.v1
   for GFN-FF:
   * S. Spicher and S. Grimme, Angew. Chem. Int. Ed., 2020, 59, 15665-15673.
     DOI: 10.1002/anie.202004239
   
   for DFT-D4:
   * E. Caldeweyher, C. Bannwarth and S. Grimme, J. Chem. Phys., 2017,
     147, 034112. DOI: 10.1063/1.4993215
   * E. Caldeweyher, S. Ehlert, A. Hansen, H. Neugebauer, S. Spicher,
     C. Bannwarth and S. Grimme, J. Chem. Phys., 2019, 150, 154122.
     DOI: 10.1063/1.5090222
   * E. Caldeweyher, J.-M. Mewes, S. Ehlert and S. Grimme, Phys. Chem. Chem. Phys.
     2020, 22, 8499-8512. DOI: 10.1039/D0CP00502A
   
   for sTDA-xTB:
   * S. Grimme and C. Bannwarth, J. Chem. Phys., 2016, 145, 054103.
     DOI: 10.1063/1.4959605
   
   in the mass-spec context:
   * V. Asgeirsson, C. Bauer and S. Grimme, Chem. Sci., 2017, 8, 4879.
     DOI: 10.1039/c7sc00601b
   * J. Koopman and S. Grimme, ACS Omega 2019, 4, 12, 15120-15133.
     DOI: 10.1021/acsomega.9b02011
   
   for metadynamics refer to:
   * S. Grimme, J. Chem. Theory Comput., 2019, 155, 2847-2862
     DOI: 10.1021/acs.jctc.9b00143
   
   for SPH calculations refer to:
   * S. Spicher and S. Grimme, J. Chem. Theory Comput., 2021, 17, 1701-1714
     DOI: 10.1021/acs.jctc.0c01306
   
   with help from (in alphabetical order)
   P. Atkinson, C. Bannwarth, F. Bohle, G. Brandenburg, E. Caldeweyher
   M. Checinski, S. Dohm, S. Ehlert, S. Ehrlich, I. Gerasimov, J. Koopman
   C. Lavigne, S. Lehtola, F. März, M. Müller, F. Musil, H. Neugebauer
   J. Pisarek, C. Plett, P. Pracht, J. Seibert, P. Shushkov, S. Spicher
   M. Stahn, M. Steiner, T. Strunk, J. Stückrath, T. Rose, and J. Unsleber
   
 * started run on 2022/02/02 at 06:19:06.384     

           -------------------------------------------------
          |                Calculation Setup                |
           -------------------------------------------------

          program call               : /ihome/ghutchison/oda6/xtb/xtb-641/bin/xtb ../../GFN2_output/39_104_24.mol --sp --alpb hexane
          hostname                   : smp-n98
          coordinate file            : ../../GFN2_output/39_104_24.mol
          omp threads                :                     8
          number of atoms            :                   107
          number of electrons        :                   342
          charge                     :                     0
          spin                       :                   0.0
          first test random number   :      0.07232439338582

   ID    Z sym.   atoms
    1    6 C      1-3, 5-13, 15, 17-24, 26-29, 33, 34, 36-40, 42, 43, 45, 46,
                  48-58, 60, 62-68, 70
    2    8 O      4, 59
    3    7 N      14, 16, 30, 32, 44, 47, 69, 71
    4   16 S      25, 31, 35, 41, 61
    5    1 H      72-107

           -------------------------------------------------
          |                 G F N 2 - x T B                 |
           -------------------------------------------------

        Reference                      10.1021/acs.jctc.8b01176
      * Hamiltonian:
        H0-scaling (s, p, d)           1.850000    2.230000    2.230000
        zeta-weighting                 0.500000
      * Dispersion:
        s8                             2.700000
        a1                             0.520000
        a2                             5.000000
        s9                             5.000000
      * Repulsion:
        kExp                           1.500000    1.000000
        rExp                           1.000000
      * Coulomb:
        alpha                          2.000000
        third order                    shell-resolved
        anisotropic                    true
        a3                             3.000000
        a5                             4.000000
        cn-shift                       1.200000
        cn-exp                         4.000000
        max-rad                        5.000000

      * Solvation model:               ALPB
        Solvent                        hexane
        Parameter file                 internal GFN2-xTB/ALPB
        Dielectric constant                1.8800E+00
        Reference state                gsolv [1 M gas/solution]
        Free energy shift                  4.8134E-03 Eh       3.0204E+00 kcal/mol
        Temperature                        2.9815E+02 K
        Density                            6.6000E-01 kg/L
        Solvent mass                       8.6180E+01 g/mol
        Interaction kernel             P16
        Born radius scaling (c1)           1.1040E+00
        Born radii integrator          GBOBC
        Born offset                        0.0000E+00 a0       0.0000E+00 AA
        H-bond correction              false
        Ion screening                  false
        Surface tension                    1.0000E-05 Eh       1.5569E+01 dyn/cm
        Grid points                               230 per atom

          ...................................................
          :                      SETUP                      :
          :.................................................:
          :  # basis functions                 350          :
          :  # atomic orbitals                 345          :
          :  # shells                          183          :
          :  # electrons                       342          :
          :  max. iterations                   250          :
          :  Hamiltonian                  GFN2-xTB          :
          :  restarted?                      false          :
          :  GBSA solvation                   true          :
          :  PC potential                    false          :
          :  electronic temp.          300.0000000     K    :
          :  accuracy                    1.0000000          :
          :  -> integral cutoff          0.2500000E+02      :
          :  -> integral neglect         0.1000000E-07      :
          :  -> SCF convergence          0.1000000E-05 Eh   :
          :  -> wf. convergence          0.1000000E-03 e    :
          :  Broyden damping             0.4000000          :
          ...................................................

 iter      E             dE          RMSdq      gap      omega  full diag
   1   -188.6886590 -0.188689E+03  0.443E+00    1.41       0.0  T
   2   -188.8594687 -0.170810E+00  0.264E+00    1.11       1.0  T
   3   -188.8110637  0.484050E-01  0.143E+00    1.11       1.0  T
   4   -188.9132491 -0.102185E+00  0.475E-01    1.15       1.0  T
   5   -188.9274181 -0.141690E-01  0.144E-01    1.01       1.0  T
   6   -188.9282272 -0.809076E-03  0.768E-02    1.06       1.0  T
   7   -188.9284368 -0.209570E-03  0.294E-02    1.05       1.0  T
   8   -188.9284635 -0.267267E-04  0.121E-02    1.05       1.0  T
   9   -188.9284683 -0.485953E-05  0.578E-03    1.05       1.7  T
  10   -188.9284687 -0.378723E-06  0.278E-03    1.05       3.5  T
  11   -188.9284691 -0.364458E-06  0.128E-03    1.05       7.5  T
  12   -188.9284691 -0.110937E-07  0.701E-04    1.05      13.8  T
  13   -188.9284691 -0.148492E-07  0.320E-04    1.05      30.2  T

   *** convergence criteria satisfied after 13 iterations ***

         #    Occupation            Energy/Eh            Energy/eV
      -------------------------------------------------------------
         1        2.0000           -0.7570675             -20.6009
       ...           ...                  ...                  ...
       165        2.0000           -0.4070545             -11.0765
       166        2.0000           -0.4037682             -10.9871
       167        2.0000           -0.3952066             -10.7541
       168        2.0000           -0.3921830             -10.6718
       169        2.0000           -0.3861112             -10.5066
       170        2.0000           -0.3780414             -10.2870
       171        2.0000           -0.3710232             -10.0961 (HOMO)
       172                         -0.3323890              -9.0448 (LUMO)
       173                         -0.3261394              -8.8747
       174                         -0.3199722              -8.7069
       175                         -0.3144242              -8.5559
       176                         -0.2977796              -8.1030
       ...                                ...                  ...
       345                          1.1612660              31.5997
      -------------------------------------------------------------
                  HL-Gap            0.0386342 Eh            1.0513 eV
             Fermi-level           -0.3517065 Eh           -9.5704 eV

 SCC (total)                   0 d,  0 h,  0 min,  0.238 sec
 SCC setup                      ...        0 min,  0.002 sec (  0.949%)
 Dispersion                     ...        0 min,  0.003 sec (  1.338%)
 classical contributions        ...        0 min,  0.000 sec (  0.058%)
 integral evaluation            ...        0 min,  0.013 sec (  5.406%)
 iterations                     ...        0 min,  0.185 sec ( 77.941%)
 molecular gradient             ...        0 min,  0.033 sec ( 13.856%)
 printout                       ...        0 min,  0.001 sec (  0.420%)

         :::::::::::::::::::::::::::::::::::::::::::::::::::::
         ::                     SUMMARY                     ::
         :::::::::::::::::::::::::::::::::::::::::::::::::::::
         :: total energy            -185.987669987154 Eh    ::
         :: total w/o Gsasa/hb      -185.923386884163 Eh    ::
         :: gradient norm              0.021508581018 Eh/a0 ::
         :: HOMO-LUMO gap              1.051291307751 eV    ::
         ::.................................................::
         :: SCC energy              -188.928469111921 Eh    ::
         :: -> isotropic ES            0.141728437865 Eh    ::
         :: -> anisotropic ES          0.011110792964 Eh    ::
         :: -> anisotropic XC          0.128027464571 Eh    ::
         :: -> dispersion             -0.169976081413 Eh    ::
         :: -> Gsolv                  -0.087101782584 Eh    ::
         ::    -> Gelec               -0.022818679593 Eh    ::
         ::    -> Gsasa               -0.069096458811 Eh    ::
         ::    -> Ghb                  0.000000000000 Eh    ::
         ::    -> Gshift               0.004813355820 Eh    ::
         :: repulsion energy           2.941070559936 Eh    ::
         :: add. restraining           0.000000000000 Eh    ::
         :: total charge              -0.000000000002 e     ::
         :::::::::::::::::::::::::::::::::::::::::::::::::::::

           -------------------------------------------------
          |                Property Printout                |
           -------------------------------------------------

    * Orbital Energies and Occupations

         #    Occupation            Energy/Eh            Energy/eV
      -------------------------------------------------------------
         1        2.0000           -0.7570675             -20.6009
       ...           ...                  ...                  ...
       159        2.0000           -0.4174959             -11.3606
       160        2.0000           -0.4170127             -11.3475
       161        2.0000           -0.4144954             -11.2790
       162        2.0000           -0.4135694             -11.2538
       163        2.0000           -0.4111674             -11.1884
       164        2.0000           -0.4091953             -11.1348
       165        2.0000           -0.4070545             -11.0765
       166        2.0000           -0.4037682             -10.9871
       167        2.0000           -0.3952066             -10.7541
       168        2.0000           -0.3921830             -10.6718
       169        2.0000           -0.3861112             -10.5066
       170        2.0000           -0.3780414             -10.2870
       171        2.0000           -0.3710232             -10.0961 (HOMO)
       172                         -0.3323890              -9.0448 (LUMO)
       173                         -0.3261394              -8.8747
       174                         -0.3199722              -8.7069
       175                         -0.3144242              -8.5559
       176                         -0.2977796              -8.1030
       177                         -0.2696355              -7.3372
       178                         -0.2578270              -7.0158
       179                         -0.2470220              -6.7218
       180                         -0.2449838              -6.6663
       181                         -0.2407720              -6.5517
       182                         -0.2387744              -6.4974
       ...                                ...                  ...
       345                          1.1612660              31.5997
      -------------------------------------------------------------
                  HL-Gap            0.0386342 Eh            1.0513 eV
             Fermi-level           -0.3517065 Eh           -9.5704 eV

     #   Z          covCN         q      C6AA      α(0)
     1   6 C        2.946    -0.005    28.154     8.703
     2   6 C        3.008    -0.040    28.970     8.829
     3   6 C        2.867     0.233    23.137     7.885
     4   8 O        0.856    -0.428    22.242     6.323
     5   6 C        3.061    -0.022    28.490     8.753
     6   6 C        2.904    -0.023    28.574     8.765
     7   6 C        3.258     0.010    26.662     8.346
     8   6 C        3.256     0.012    26.631     8.344
     9   6 C        2.904    -0.034    28.849     8.807
    10   6 C        3.046     0.005    27.857     8.656
    11   6 C        3.022     0.035    27.187     8.553
    12   6 C        2.947     0.007    27.869     8.659
    13   6 C        1.937     0.133    27.831     8.519
    14   7 N        0.911    -0.270    26.980     7.512
    15   6 C        1.937     0.129    27.924     8.534
    16   7 N        0.911    -0.269    26.952     7.509
    17   6 C        4.162    -0.022    20.884     6.490
    18   6 C        4.013    -0.015    20.767     6.474
    19   6 C        2.995    -0.041    29.017     8.836
    20   6 C        2.995    -0.042    29.041     8.840
    21   6 C        4.013    -0.015    20.766     6.474
    22   6 C        3.915    -0.060    21.584     6.603
    23   6 C        4.161    -0.022    20.886     6.491
    24   6 C        3.009     0.022    27.492     8.601
    25  16 S        2.233    -0.022   141.959    20.053
    26   6 C        3.095     0.012    27.640     8.616
    27   6 C        3.079    -0.039    28.884     8.811
    28   6 C        3.341     0.071    23.992     7.744
    29   6 C        3.342     0.069    23.995     7.741
    30   7 N        1.854    -0.295    28.504     7.913
    31  16 S        2.687     0.346   127.741    19.023
    32   7 N        1.854    -0.296    28.529     7.916
    33   6 C        3.084    -0.034    28.744     8.789
    34   6 C        3.096     0.004    27.817     8.644
    35  16 S        2.188    -0.022   141.946    20.052
    36   6 C        3.191     0.011    27.284     8.519
    37   6 C        3.088     0.019    27.488     8.594
    38   6 C        3.804    -0.048    21.432     6.591
    39   6 C        3.753    -0.108    22.624     6.783
    40   6 C        2.999     0.022    27.493     8.601
    41  16 S        2.273    -0.047   142.981    20.125
    42   6 C        3.123     0.010    27.609     8.605
    43   6 C        3.260     0.031    26.168     8.265
    44   7 N        2.792    -0.045    22.108     6.983
    45   6 C        3.071     0.031    27.225     8.555
    46   6 C        3.065     0.033    27.197     8.552
    47   7 N        2.808    -0.020    21.628     6.907
    48   6 C        3.251     0.029    26.333     8.305
    49   6 C        3.067     0.015    27.609     8.616
    50   6 C        3.804    -0.051    21.486     6.599
    51   6 C        3.755    -0.104    22.544     6.770
    52   6 C        3.740    -0.007    20.774     6.503
    53   6 C        3.752    -0.118    22.819     6.812
    54   6 C        3.750    -0.009    20.795     6.504
    55   6 C        3.752    -0.112    22.710     6.796
    56   6 C        2.952    -0.009    28.246     8.717
    57   6 C        3.026    -0.040    28.970     8.829
    58   6 C        2.866     0.231    23.157     7.888
    59   8 O        0.856    -0.423    22.152     6.310
    60   6 C        3.076    -0.021    28.453     8.746
    61  16 S        2.277     0.058   138.718    19.823
    62   6 C        2.996     0.037    27.153     8.548
    63   6 C        3.778    -0.119    22.804     6.803
    64   6 C        3.068    -0.056    29.328     8.880
    65   6 C        3.228    -0.006    27.365     8.497
    66   6 C        3.028     0.037    27.146     8.546
    67   6 C        2.947     0.009    27.814     8.650
    68   6 C        1.928     0.130    27.902     8.530
    69   7 N        0.911    -0.266    26.881     7.499
    70   6 C        1.933     0.134    27.817     8.517
    71   7 N        0.911    -0.263    26.824     7.491
    72   1 H        0.925     0.070     2.080     2.255
    73   1 H        0.926     0.059     2.208     2.324
    74   1 H        0.926     0.058     2.223     2.331
    75   1 H        0.925     0.046     2.375     2.410
    76   1 H        0.925     0.040     2.449     2.447
    77   1 H        0.926     0.039     2.467     2.456
    78   1 H        0.926     0.038     2.479     2.462
    79   1 H        0.925     0.038     2.472     2.459
    80   1 H        0.925     0.040     2.443     2.444
    81   1 H        0.925     0.035     2.511     2.478
    82   1 H        0.925     0.044     2.392     2.418
    83   1 H        0.924     0.040     2.444     2.445
    84   1 H        0.924     0.077     2.010     2.217
    85   1 H        0.925     0.046     2.365     2.405
    86   1 H        0.925     0.056     2.247     2.344
    87   1 H        0.925     0.041     2.434     2.440
    88   1 H        0.925     0.047     2.360     2.402
    89   1 H        0.925     0.063     2.167     2.302
    90   1 H        0.925     0.040     2.455     2.450
    91   1 H        0.925     0.046     2.368     2.406
    92   1 H        0.925     0.042     2.420     2.433
    93   1 H        0.924     0.063     2.167     2.302
    94   1 H        0.924     0.075     2.032     2.229
    95   1 H        0.925     0.052     2.298     2.370
    96   1 H        0.925     0.049     2.333     2.389
    97   1 H        0.925     0.065     2.141     2.288
    98   1 H        0.924     0.069     2.096     2.264
    99   1 H        0.925     0.080     1.978     2.199
   100   1 H        0.925     0.048     2.350     2.397
   101   1 H        0.925     0.056     2.249     2.345
   102   1 H        0.925     0.046     2.377     2.411
   103   1 H        0.925     0.071     2.075     2.253
   104   1 H        0.925     0.074     2.045     2.236
   105   1 H        0.925     0.070     2.087     2.259
   106   1 H        0.925     0.074     2.040     2.234
   107   1 H        0.926     0.066     2.127     2.281

 Mol. C6AA /au·bohr⁶  :     200306.020984
 Mol. C8AA /au·bohr⁸  :    5584570.583211
 Mol. α(0) /au        :        707.854712


Wiberg/Mayer (AO) data.
largest (>0.10) Wiberg bond orders for each atom

 ---------------------------------------------------------------------------
     #   Z sym  total        # sym  WBO       # sym  WBO       # sym  WBO
 ---------------------------------------------------------------------------
     1   6 C    3.945 --     2 C    1.518    24 C    1.260    72 H    0.946
     2   6 C    3.956 --     1 C    1.518    11 C    1.143     3 C    1.036
     3   6 C    3.922 --     4 O    1.718     2 C    1.036     5 C    1.028
     4   8 O    2.012 --     3 C    1.718
     5   6 C    3.973 --     6 C    1.377    10 C    1.309     3 C    1.028
     6   6 C    3.980 --     7 C    1.444     5 C    1.377    73 H    0.964
     7   6 C    3.956 --     6 C    1.444     8 C    1.324    23 C    0.992
     8   6 C    3.965 --     9 C    1.449     7 C    1.324    17 C    0.993
     9   6 C    3.977 --     8 C    1.449    10 C    1.365    74 H    0.959
    10   6 C    3.977 --     9 C    1.365     5 C    1.309    11 C    1.089
    11   6 C    3.972 --    12 C    1.473     2 C    1.143    10 C    1.089
    12   6 C    3.952 --    11 C    1.473    13 C    1.103    15 C    1.099
    13   6 C    3.942 --    14 N    2.753    12 C    1.103
    14   7 N    2.959 --    13 C    2.753
    15   6 C    3.943 --    16 N    2.754    12 C    1.099
    16   7 N    2.962 --    15 C    2.754
    17   6 C    3.984 --     8 C    0.993    23 C    0.975    75 H    0.961
                            18 C    0.951
    18   6 C    3.989 --    19 C    1.004    22 C    0.989    76 H    0.971
                            17 C    0.951
    19   6 C    3.982 --    20 C    1.923    18 C    1.004    77 H    0.971
    20   6 C    3.982 --    19 C    1.923    21 C    1.004    78 H    0.971
    21   6 C    3.988 --    20 C    1.004    22 C    0.989    79 H    0.971
                            23 C    0.950
    22   6 C    3.994 --    21 C    0.989    18 C    0.989    80 H    0.978
                            81 H    0.974
    23   6 C    3.984 --     7 C    0.992    17 C    0.975    82 H    0.961
                            21 C    0.950
    24   6 C    3.923 --    49 C    1.401     1 C    1.260    25 S    1.067
    25  16 S    2.546 --    26 C    1.149    24 C    1.067
    26   6 C    3.934 --    48 C    1.283    27 C    1.277    25 S    1.149
    27   6 C    3.955 --    26 C    1.277    46 C    1.261    28 C    1.174
    28   6 C    3.972 --    32 N    1.423    27 C    1.174    29 C    1.167
                            31 S    0.101
    29   6 C    3.972 --    30 N    1.423    33 C    1.173    28 C    1.167
                            31 S    0.105
    30   7 N    3.062 --    29 C    1.423    31 S    1.390    32 N    0.145
    31  16 S    3.104 --    30 N    1.390    32 N    1.386    29 C    0.105
                            28 C    0.101
    32   7 N    3.063 --    28 C    1.423    31 S    1.386    30 N    0.145
    33   6 C    3.953 --    45 C    1.281    34 C    1.263    29 C    1.173
    34   6 C    3.922 --    43 C    1.313    33 C    1.263    35 S    1.115
    35  16 S    2.531 --    34 C    1.115    36 C    1.092
    36   6 C    3.928 --    42 C    1.326    37 C    1.298    35 S    1.092
    37   6 C    3.959 --    40 C    1.411    36 C    1.298    38 C    1.021
    38   6 C    3.993 --    37 C    1.021    39 C    1.004    83 H    0.969
                            84 H    0.940
    39   6 C    3.992 --    38 C    1.004    87 H    0.988    85 H    0.985
                            86 H    0.978
    40   6 C    3.925 --    37 C    1.411    56 C    1.244    41 S    1.063
    41  16 S    2.535 --    42 C    1.130    40 C    1.063
    42   6 C    3.934 --    36 C    1.326    43 C    1.253    41 S    1.130
    43   6 C    3.940 --    34 C    1.313    42 C    1.253    44 N    1.147
    44   7 N    3.523 --    45 C    1.156    43 C    1.147    54 C    0.972
    45   6 C    3.931 --    33 C    1.281    46 C    1.220    44 N    1.156
    46   6 C    3.929 --    27 C    1.261    45 C    1.220    47 N    1.189
    47   7 N    3.573 --    46 C    1.189    48 C    1.152    52 C    0.984
    48   6 C    3.938 --    26 C    1.283    49 C    1.275    47 N    1.152
    49   6 C    3.951 --    24 C    1.401    48 C    1.275    50 C    1.014
    50   6 C    3.992 --    49 C    1.014    51 C    0.992    88 H    0.971
                            89 H    0.957
    51   6 C    3.992 --    50 C    0.992    92 H    0.988    91 H    0.984
                            90 H    0.983
    52   6 C    3.960 --    53 C    1.004    47 N    0.984    93 H    0.961
                            94 H    0.957
    53   6 C    3.985 --    52 C    1.004    95 H    0.984    96 H    0.981
                            97 H    0.980
    54   6 C    3.956 --    55 C    1.005    44 N    0.972    98 H    0.965
                            99 H    0.954
    55   6 C    3.989 --    54 C    1.005   102 H    0.987   100 H    0.986
                           101 H    0.982
    56   6 C    3.945 --    57 C    1.550    40 C    1.244   103 H    0.943
    57   6 C    3.955 --    56 C    1.550    66 C    1.127    58 C    1.016
    58   6 C    3.926 --    59 O    1.709    60 C    1.074    57 C    1.016
    59   8 O    2.016 --    58 C    1.709
    60   6 C    3.929 --    65 C    1.380    61 S    1.191    58 C    1.074
    61  16 S    2.661 --    60 C    1.191    62 C    1.171
    62   6 C    3.935 --    64 C    1.564    61 S    1.171    63 C    1.048
    63   6 C    3.987 --    62 C    1.048   105 H    0.977   104 H    0.962
                           106 H    0.962
    64   6 C    3.980 --    62 C    1.564    65 C    1.275   107 H    0.957
    65   6 C    3.973 --    60 C    1.380    64 C    1.275    66 C    1.102
    66   6 C    3.974 --    67 C    1.472    57 C    1.127    65 C    1.102
    67   6 C    3.959 --    66 C    1.472    68 C    1.104    70 C    1.099
    68   6 C    3.943 --    69 N    2.752    67 C    1.104
    69   7 N    2.953 --    68 C    2.752
    70   6 C    3.943 --    71 N    2.763    67 C    1.099
    71   7 N    2.963 --    70 C    2.763
    72   1 H    0.992 --     1 C    0.946
    73   1 H    0.996 --     6 C    0.964
    74   1 H    0.996 --     9 C    0.959
    75   1 H    0.996 --    17 C    0.961
    76   1 H    0.998 --    18 C    0.971
    77   1 H    0.998 --    19 C    0.971
    78   1 H    0.998 --    20 C    0.971
    79   1 H    0.998 --    21 C    0.971
    80   1 H    0.998 --    22 C    0.978
    81   1 H    0.999 --    22 C    0.974
    82   1 H    0.996 --    23 C    0.961
    83   1 H    0.998 --    38 C    0.969
    84   1 H    0.993 --    38 C    0.940
    85   1 H    0.997 --    39 C    0.985
    86   1 H    0.997 --    39 C    0.978
    87   1 H    0.998 --    39 C    0.988
    88   1 H    0.997 --    50 C    0.971
    89   1 H    0.995 --    50 C    0.957
    90   1 H    0.998 --    51 C    0.983
    91   1 H    0.996 --    51 C    0.984
    92   1 H    0.998 --    51 C    0.988
    93   1 H    0.995 --    52 C    0.961
    94   1 H    0.993 --    52 C    0.957
    95   1 H    0.996 --    53 C    0.984
    96   1 H    0.997 --    53 C    0.981
    97   1 H    0.996 --    53 C    0.980
    98   1 H    0.994 --    54 C    0.965
    99   1 H    0.993 --    54 C    0.954
   100   1 H    0.997 --    55 C    0.986
   101   1 H    0.996 --    55 C    0.982
   102   1 H    0.998 --    55 C    0.987
   103   1 H    0.991 --    56 C    0.943
   104   1 H    0.991 --    63 C    0.962
   105   1 H    0.995 --    63 C    0.977
   106   1 H    0.991 --    63 C    0.962
   107   1 H    0.995 --    64 C    0.957
 ---------------------------------------------------------------------------

Topologies differ in bond orders
Writing corrected topology to xtbtopo.mol

molecular dipole:
                 x           y           z       tot (Debye)
 q only:        2.874       1.002      -0.179
   full:        3.478       1.136      -0.086       9.301
molecular quadrupole (traceless):
                xx          xy          yy          xz          yz          zz
 q only:      -69.366      44.940      20.912     -25.127      56.125      48.453
  q+dip:      -76.685      49.786      24.861     -30.842      61.050      51.823
   full:      -80.229      56.026      26.335     -29.966      55.997      53.893


           -------------------------------------------------
          | TOTAL ENERGY             -185.987669987154 Eh   |
          | GRADIENT NORM               0.021508581018 Eh/α |
          | HOMO-LUMO GAP               1.051291307751 eV   |
           -------------------------------------------------

------------------------------------------------------------------------
 * finished run on 2022/02/02 at 06:19:06.684     
------------------------------------------------------------------------
 total:
 * wall-time:     0 d,  0 h,  0 min,  0.300 sec
 *  cpu-time:     0 d,  0 h,  0 min,  2.317 sec
 * ratio c/w:     7.724 speedup
 SCF:
 * wall-time:     0 d,  0 h,  0 min,  0.240 sec
 *  cpu-time:     0 d,  0 h,  0 min,  1.912 sec
 * ratio c/w:     7.979 speedup

