      -----------------------------------------------------------      
     |                   =====================                   |     
     |                           x T B                           |     
     |                   =====================                   |     
     |                         S. Grimme                         |     
     |          Mulliken Center for Theoretical Chemistry        |     
     |                    University of Bonn                     |     
      -----------------------------------------------------------      

   * xtb version 6.4.1 (unknown) compiled by 'oda6@login1.crc.pitt.edu' on 2021-06-25

   xtb is free software: you can redistribute it and/or modify it under
   the terms of the GNU Lesser General Public License as published by
   the Free Software Foundation, either version 3 of the License, or
   (at your option) any later version.
   
   xtb is distributed in the hope that it will be useful,
   but WITHOUT ANY WARRANTY; without even the implied warranty of
   MERCHANTABILITY or FITNESS FOR A PARTICULAR PURPOSE.  See the
   GNU Lesser General Public License for more details.
   
   Cite this work as:
   * C. Bannwarth, E. Caldeweyher, S. Ehlert, A. Hansen, P. Pracht,
     J. Seibert, S. Spicher, S. Grimme, WIREs Comput. Mol. Sci., 2020, 11,
     e01493. DOI: 10.1002/wcms.1493
   
   for GFN2-xTB:
   * C. Bannwarth, S. Ehlert and S. Grimme., J. Chem. Theory Comput., 2019,
     15, 1652-1671. DOI: 10.1021/acs.jctc.8b01176
   for GFN1-xTB:
   * S. Grimme, C. Bannwarth, P. Shushkov, J. Chem. Theory Comput., 2017,
     13, 1989-2009. DOI: 10.1021/acs.jctc.7b00118
   for GFN0-xTB:
   * P. Pracht, E. Caldeweyher, S. Ehlert, S. Grimme, ChemRxiv, 2019, preprint.
     DOI: 10.26434/chemrxiv.8326202.v1
   for GFN-FF:
   * S. Spicher and S. Grimme, Angew. Chem. Int. Ed., 2020, 59, 15665-15673.
     DOI: 10.1002/anie.202004239
   
   for DFT-D4:
   * E. Caldeweyher, C. Bannwarth and S. Grimme, J. Chem. Phys., 2017,
     147, 034112. DOI: 10.1063/1.4993215
   * E. Caldeweyher, S. Ehlert, A. Hansen, H. Neugebauer, S. Spicher,
     C. Bannwarth and S. Grimme, J. Chem. Phys., 2019, 150, 154122.
     DOI: 10.1063/1.5090222
   * E. Caldeweyher, J.-M. Mewes, S. Ehlert and S. Grimme, Phys. Chem. Chem. Phys.
     2020, 22, 8499-8512. DOI: 10.1039/D0CP00502A
   
   for sTDA-xTB:
   * S. Grimme and C. Bannwarth, J. Chem. Phys., 2016, 145, 054103.
     DOI: 10.1063/1.4959605
   
   in the mass-spec context:
   * V. Asgeirsson, C. Bauer and S. Grimme, Chem. Sci., 2017, 8, 4879.
     DOI: 10.1039/c7sc00601b
   * J. Koopman and S. Grimme, ACS Omega 2019, 4, 12, 15120-15133.
     DOI: 10.1021/acsomega.9b02011
   
   for metadynamics refer to:
   * S. Grimme, J. Chem. Theory Comput., 2019, 155, 2847-2862
     DOI: 10.1021/acs.jctc.9b00143
   
   for SPH calculations refer to:
   * S. Spicher and S. Grimme, J. Chem. Theory Comput., 2021, 17, 1701-1714
     DOI: 10.1021/acs.jctc.0c01306
   
   with help from (in alphabetical order)
   P. Atkinson, C. Bannwarth, F. Bohle, G. Brandenburg, E. Caldeweyher
   M. Checinski, S. Dohm, S. Ehlert, S. Ehrlich, I. Gerasimov, J. Koopman
   C. Lavigne, S. Lehtola, F. März, M. Müller, F. Musil, H. Neugebauer
   J. Pisarek, C. Plett, P. Pracht, J. Seibert, P. Shushkov, S. Spicher
   M. Stahn, M. Steiner, T. Strunk, J. Stückrath, T. Rose, and J. Unsleber
   
 * started run on 2022/02/02 at 21:11:37.394     

           -------------------------------------------------
          |                Calculation Setup                |
           -------------------------------------------------

          program call               : /ihome/ghutchison/oda6/xtb/xtb-641/bin/xtb ../../GFN2_output/39_133_3.mol --sp --alpb hexane
          hostname                   : smp-n39
          coordinate file            : ../../GFN2_output/39_133_3.mol
          omp threads                :                     8
          number of atoms            :                   107
          number of electrons        :                   350
          charge                     :                     0
          spin                       :                   0.0
          first test random number   :      0.37688992174139

   ID    Z sym.   atoms
    1    6 C      1-3, 5-13, 15, 17-28, 30-33, 37, 38, 40-44, 46, 47, 49, 50,
                  52, 53, 55-61, 63, 65-70, 72
    2    8 O      4, 62
    3    7 N      14, 16, 34, 36, 48, 51, 71, 73
    4   16 S      29, 39, 45, 54, 64
    5   34 Se     35
    6    1 H      74-107

molecular fragmentation (1/2 indicates fragments):
111111111111111111111111111111111112111111111111111111111111111111111111
11111111111111111111111111111111111
# atoms in fragment 1/2:   106     1
 fragment masses (1/2) :     1088.21       14.01
CMA distance (Bohr)    :  11.239
constraining FC (au)   :  0.0500

           -------------------------------------------------
          |                 G F N 2 - x T B                 |
           -------------------------------------------------

        Reference                      10.1021/acs.jctc.8b01176
      * Hamiltonian:
        H0-scaling (s, p, d)           1.850000    2.230000    2.230000
        zeta-weighting                 0.500000
      * Dispersion:
        s8                             2.700000
        a1                             0.520000
        a2                             5.000000
        s9                             5.000000
      * Repulsion:
        kExp                           1.500000    1.000000
        rExp                           1.000000
      * Coulomb:
        alpha                          2.000000
        third order                    shell-resolved
        anisotropic                    true
        a3                             3.000000
        a5                             4.000000
        cn-shift                       1.200000
        cn-exp                         4.000000
        max-rad                        5.000000

      * Solvation model:               ALPB
        Solvent                        hexane
        Parameter file                 internal GFN2-xTB/ALPB
        Dielectric constant                1.8800E+00
        Reference state                gsolv [1 M gas/solution]
        Free energy shift                  4.8134E-03 Eh       3.0204E+00 kcal/mol
        Temperature                        2.9815E+02 K
        Density                            6.6000E-01 kg/L
        Solvent mass                       8.6180E+01 g/mol
        Interaction kernel             P16
        Born radius scaling (c1)           1.1040E+00
        Born radii integrator          GBOBC
        Born offset                        0.0000E+00 a0       0.0000E+00 AA
        H-bond correction              false
        Ion screening                  false
        Surface tension                    1.0000E-05 Eh       1.5569E+01 dyn/cm
        Grid points                               230 per atom

          ...................................................
          :                      SETUP                      :
          :.................................................:
          :  # basis functions                 362          :
          :  # atomic orbitals                 356          :
          :  # shells                          186          :
          :  # electrons                       350          :
          :  max. iterations                   250          :
          :  Hamiltonian                  GFN2-xTB          :
          :  restarted?                      false          :
          :  GBSA solvation                   true          :
          :  PC potential                    false          :
          :  electronic temp.          300.0000000     K    :
          :  accuracy                    1.0000000          :
          :  -> integral cutoff          0.2500000E+02      :
          :  -> integral neglect         0.1000000E-07      :
          :  -> SCF convergence          0.1000000E-05 Eh   :
          :  -> wf. convergence          0.1000000E-03 e    :
          :  Broyden damping             0.4000000          :
          ...................................................

 iter      E             dE          RMSdq      gap      omega  full diag
   1   -193.0305128 -0.193031E+03  0.475E+00    1.34       0.0  T
   2   -193.2038726 -0.173360E+00  0.278E+00    1.08       1.0  T
   3   -193.1466418  0.572307E-01  0.151E+00    1.07       1.0  T
   4   -193.2555821 -0.108940E+00  0.530E-01    1.12       1.0  T
   5   -193.2716138 -0.160316E-01  0.190E-01    1.01       1.0  T
   6   -193.2729937 -0.137992E-02  0.108E-01    1.07       1.0  T
   7   -193.2733683 -0.374570E-03  0.392E-02    1.05       1.0  T
   8   -193.2733750 -0.672779E-05  0.231E-02    1.06       1.0  T
   9   -193.2733934 -0.184256E-04  0.104E-02    1.06       1.0  T
  10   -193.2733953 -0.186234E-05  0.541E-03    1.06       1.8  T
  11   -193.2733962 -0.959563E-06  0.255E-03    1.06       3.8  T
  12   -193.2733963 -0.908117E-07  0.131E-03    1.06       7.4  T
  13   -193.2733964 -0.580692E-07  0.496E-04    1.06      19.5  T
  14   -193.2733964 -0.734425E-08  0.213E-04    1.06      45.4  T

   *** convergence criteria satisfied after 14 iterations ***

         #    Occupation            Energy/Eh            Energy/eV
      -------------------------------------------------------------
         1        2.0000           -0.7661070             -20.8468
       ...           ...                  ...                  ...
       169        2.0000           -0.4047935             -11.0150
       170        2.0000           -0.4030622             -10.9679
       171        2.0000           -0.3985398             -10.8448
       172        2.0000           -0.3924586             -10.6793
       173        2.0000           -0.3871396             -10.5346
       174        2.0000           -0.3787900             -10.3074
       175        2.0000           -0.3723550             -10.1323 (HOMO)
       176                         -0.3335286              -9.0758 (LUMO)
       177                         -0.3288743              -8.9491
       178                         -0.3230764              -8.7914
       179                         -0.3169891              -8.6257
       180                         -0.3056779              -8.3179
       ...                                ...                  ...
       356                          1.1573336              31.4926
      -------------------------------------------------------------
                  HL-Gap            0.0388264 Eh            1.0565 eV
             Fermi-level           -0.3529448 Eh           -9.6041 eV

 SCC (total)                   0 d,  0 h,  0 min,  0.528 sec
 SCC setup                      ...        0 min,  0.002 sec (  0.471%)
 Dispersion                     ...        0 min,  0.004 sec (  0.852%)
 classical contributions        ...        0 min,  0.000 sec (  0.043%)
 integral evaluation            ...        0 min,  0.016 sec (  3.068%)
 iterations                     ...        0 min,  0.464 sec ( 87.914%)
 molecular gradient             ...        0 min,  0.039 sec (  7.369%)
 printout                       ...        0 min,  0.001 sec (  0.267%)

         :::::::::::::::::::::::::::::::::::::::::::::::::::::
         ::                     SUMMARY                     ::
         :::::::::::::::::::::::::::::::::::::::::::::::::::::
         :: total energy            -190.298228791049 Eh    ::
         :: total w/o Gsasa/hb      -190.232919070937 Eh    ::
         :: gradient norm              0.021192777467 Eh/a0 ::
         :: HOMO-LUMO gap              1.056519066611 eV    ::
         ::.................................................::
         :: SCC energy              -193.273396401760 Eh    ::
         :: -> isotropic ES            0.137689595007 Eh    ::
         :: -> anisotropic ES          0.008755500385 Eh    ::
         :: -> anisotropic XC          0.125944184898 Eh    ::
         :: -> dispersion             -0.177628501345 Eh    ::
         :: -> Gsolv                  -0.087210016196 Eh    ::
         ::    -> Gelec               -0.021900296084 Eh    ::
         ::    -> Gsasa               -0.070123075932 Eh    ::
         ::    -> Ghb                  0.000000000000 Eh    ::
         ::    -> Gshift               0.004813355820 Eh    ::
         :: repulsion energy           2.975498681930 Eh    ::
         :: add. restraining           0.000000000000 Eh    ::
         :: total charge              -0.000000000017 e     ::
         :::::::::::::::::::::::::::::::::::::::::::::::::::::

           -------------------------------------------------
          |                Property Printout                |
           -------------------------------------------------

    * Orbital Energies and Occupations

         #    Occupation            Energy/Eh            Energy/eV
      -------------------------------------------------------------
         1        2.0000           -0.7661070             -20.8468
       ...           ...                  ...                  ...
       163        2.0000           -0.4182577             -11.3814
       164        2.0000           -0.4175988             -11.3634
       165        2.0000           -0.4153840             -11.3032
       166        2.0000           -0.4142222             -11.2716
       167        2.0000           -0.4113725             -11.1940
       168        2.0000           -0.4092004             -11.1349
       169        2.0000           -0.4047935             -11.0150
       170        2.0000           -0.4030622             -10.9679
       171        2.0000           -0.3985398             -10.8448
       172        2.0000           -0.3924586             -10.6793
       173        2.0000           -0.3871396             -10.5346
       174        2.0000           -0.3787900             -10.3074
       175        2.0000           -0.3723550             -10.1323 (HOMO)
       176                         -0.3335286              -9.0758 (LUMO)
       177                         -0.3288743              -8.9491
       178                         -0.3230764              -8.7914
       179                         -0.3169891              -8.6257
       180                         -0.3056779              -8.3179
       181                         -0.2734274              -7.4403
       182                         -0.2660115              -7.2385
       183                         -0.2510770              -6.8322
       184                         -0.2460115              -6.6943
       185                         -0.2458540              -6.6900
       186                         -0.2438594              -6.6358
       ...                                ...                  ...
       356                          1.1573336              31.4926
      -------------------------------------------------------------
                  HL-Gap            0.0388264 Eh            1.0565 eV
             Fermi-level           -0.3529448 Eh           -9.6041 eV

     #   Z          covCN         q      C6AA      α(0)
     1   6 C        2.920    -0.015    28.376     8.735
     2   6 C        3.005    -0.041    29.001     8.834
     3   6 C        2.876     0.231    23.167     7.890
     4   8 O        0.974    -0.404    21.697     6.248
     5   6 C        3.060    -0.021    28.467     8.750
     6   6 C        2.904    -0.022    28.550     8.761
     7   6 C        3.261     0.010    26.633     8.338
     8   6 C        3.257     0.012    26.640     8.345
     9   6 C        2.904    -0.034    28.839     8.805
    10   6 C        3.050     0.005    27.871     8.658
    11   6 C        3.021     0.036    27.178     8.551
    12   6 C        2.947     0.005    27.902     8.664
    13   6 C        1.948     0.131    27.866     8.525
    14   7 N        0.911    -0.274    27.074     7.525
    15   6 C        1.949     0.134    27.813     8.517
    16   7 N        0.911    -0.270    26.976     7.512
    17   6 C        4.163    -0.024    20.921     6.496
    18   6 C        4.012    -0.015    20.765     6.473
    19   6 C        2.987    -0.041    29.013     8.836
    20   6 C        2.987    -0.042    29.036     8.839
    21   6 C        4.012    -0.015    20.765     6.473
    22   6 C        3.927    -0.060    21.593     6.604
    23   6 C        4.162    -0.024    20.923     6.497
    24   6 C        2.993     0.019    27.571     8.613
    25   6 C        3.095     0.007    27.751     8.634
    26   6 C        3.804    -0.058    21.614     6.619
    27   6 C        3.754    -0.101    22.495     6.763
    28   6 C        3.182     0.011    27.334     8.534
    29  16 S        2.166    -0.034   142.478    20.090
    30   6 C        3.096     0.009    27.702     8.626
    31   6 C        3.089    -0.037    28.819     8.800
    32   6 C        3.308     0.078    24.446     7.899
    33   6 C        3.309     0.078    24.440     7.896
    34   7 N        1.840    -0.266    27.766     7.809
    35  34 Se       2.631     0.240   227.859    26.303
    36   7 N        1.840    -0.265    27.747     7.806
    37   6 C        3.088    -0.036    28.801     8.797
    38   6 C        3.100     0.006    27.752     8.633
    39  16 S        2.178    -0.014   141.630    20.030
    40   6 C        3.197     0.011    27.232     8.506
    41   6 C        3.102     0.012    27.610     8.611
    42   6 C        3.804    -0.056    21.585     6.614
    43   6 C        3.754    -0.103    22.528     6.768
    44   6 C        2.996     0.019    27.572     8.613
    45  16 S        2.259    -0.069   143.911    20.191
    46   6 C        3.119     0.013    27.557     8.598
    47   6 C        3.252     0.029    26.322     8.302
    48   7 N        2.798    -0.027    21.758     6.928
    49   6 C        3.071     0.036    27.129     8.540
    50   6 C        3.071     0.034    27.158     8.545
    51   7 N        2.800    -0.020    21.631     6.908
    52   6 C        3.254     0.027    26.327     8.300
    53   6 C        3.107    -0.003    27.956     8.663
    54  16 S        2.334    -0.005   141.251    20.003
    55   6 C        3.744    -0.011    20.838     6.512
    56   6 C        3.752    -0.114    22.747     6.801
    57   6 C        3.744    -0.006    20.760     6.500
    58   6 C        3.752    -0.114    22.742     6.801
    59   6 C        2.929    -0.010    28.263     8.718
    60   6 C        3.028    -0.039    28.929     8.822
    61   6 C        2.871     0.233    23.122     7.882
    62   8 O        0.856    -0.412    21.919     6.277
    63   6 C        3.076    -0.019    28.392     8.736
    64  16 S        2.252     0.089   137.484    19.735
    65   6 C        2.958    -0.018    28.465     8.751
    66   6 C        3.066    -0.041    28.945     8.822
    67   6 C        3.240    -0.003    27.166     8.451
    68   6 C        3.027     0.042    27.025     8.527
    69   6 C        2.948     0.011    27.778     8.644
    70   6 C        1.928     0.132    27.853     8.523
    71   7 N        0.911    -0.265    26.858     7.495
    72   6 C        1.930     0.134    27.823     8.518
    73   7 N        0.911    -0.272    27.030     7.519
    74   1 H        0.925     0.079     1.988     2.205
    75   1 H        0.926     0.061     2.192     2.315
    76   1 H        0.926     0.058     2.217     2.328
    77   1 H        0.925     0.049     2.328     2.386
    78   1 H        0.925     0.040     2.453     2.449
    79   1 H        0.926     0.033     2.549     2.496
    80   1 H        0.926     0.032     2.554     2.499
    81   1 H        0.925     0.038     2.474     2.460
    82   1 H        0.925     0.043     2.412     2.429
    83   1 H        0.925     0.042     2.429     2.437
    84   1 H        0.925     0.048     2.339     2.392
    85   1 H        0.924     0.059     2.206     2.323
    86   1 H        0.924     0.061     2.191     2.315
    87   1 H        0.925     0.039     2.469     2.457
    88   1 H        0.925     0.044     2.397     2.421
    89   1 H        0.925     0.054     2.272     2.357
    90   1 H        0.925     0.053     2.279     2.361
    91   1 H        0.924     0.062     2.171     2.304
    92   1 H        0.925     0.047     2.362     2.403
    93   1 H        0.925     0.051     2.305     2.374
    94   1 H        0.925     0.042     2.417     2.431
    95   1 H        0.925     0.072     2.061     2.245
    96   1 H        0.924     0.083     1.944     2.180
    97   1 H        0.925     0.050     2.326     2.385
    98   1 H        0.925     0.057     2.232     2.336
    99   1 H        0.925     0.051     2.303     2.373
   100   1 H        0.924     0.073     2.057     2.243
   101   1 H        0.925     0.073     2.052     2.240
   102   1 H        0.925     0.051     2.302     2.373
   103   1 H        0.925     0.058     2.227     2.334
   104   1 H        0.925     0.051     2.302     2.373
   105   1 H        0.925     0.086     1.918     2.165
   106   1 H        0.926     0.075     2.035     2.231
   107   1 H        0.926     0.069     2.094     2.263

 Mol. C6AA /au·bohr⁶  :     216906.319579
 Mol. C8AA /au·bohr⁸  :    6319931.563270
 Mol. α(0) /au        :        740.739000


Wiberg/Mayer (AO) data.
largest (>0.10) Wiberg bond orders for each atom

 ---------------------------------------------------------------------------
     #   Z sym  total        # sym  WBO       # sym  WBO       # sym  WBO
 ---------------------------------------------------------------------------
     1   6 C    3.943 --     2 C    1.483    24 C    1.319    74 H    0.930
     2   6 C    3.952 --     1 C    1.483    11 C    1.142     3 C    1.072
     3   6 C    3.909 --     4 O    1.673     2 C    1.072     5 C    1.034
     4   8 O    2.084 --     3 C    1.673    54 S    0.136
     5   6 C    3.971 --     6 C    1.381    10 C    1.307     3 C    1.034
     6   6 C    3.980 --     7 C    1.441     5 C    1.381    75 H    0.963
     7   6 C    3.955 --     6 C    1.441     8 C    1.327    23 C    0.996
     8   6 C    3.965 --     9 C    1.446     7 C    1.327    17 C    0.997
     9   6 C    3.977 --     8 C    1.446    10 C    1.369    76 H    0.958
    10   6 C    3.976 --     9 C    1.369     5 C    1.307    11 C    1.087
    11   6 C    3.969 --    12 C    1.474     2 C    1.142    10 C    1.087
    12   6 C    3.946 --    11 C    1.474    13 C    1.102    15 C    1.099
    13   6 C    3.942 --    14 N    2.739    12 C    1.102
    14   7 N    2.955 --    13 C    2.739
    15   6 C    3.941 --    16 N    2.752    12 C    1.099
    16   7 N    2.960 --    15 C    2.752
    17   6 C    3.985 --     8 C    0.997    23 C    0.978    77 H    0.959
                            18 C    0.947
    18   6 C    3.989 --    19 C    1.010    22 C    0.985    78 H    0.972
                            17 C    0.947
    19   6 C    3.987 --    20 C    1.924    18 C    1.010    79 H    0.971
    20   6 C    3.987 --    19 C    1.924    21 C    1.010    80 H    0.971
    21   6 C    3.989 --    20 C    1.010    22 C    0.985    81 H    0.972
                            23 C    0.947
    22   6 C    3.993 --    18 C    0.985    21 C    0.985    83 H    0.977
                            82 H    0.976
    23   6 C    3.984 --     7 C    0.996    17 C    0.978    84 H    0.959
                            21 C    0.947
    24   6 C    3.929 --    25 C    1.333     1 C    1.319    54 S    1.074
    25   6 C    3.955 --    28 C    1.361    24 C    1.333    26 C    1.018
    26   6 C    3.992 --    25 C    1.018    27 C    0.991    86 H    0.968
                            85 H    0.962
    27   6 C    3.989 --    26 C    0.991    88 H    0.988    87 H    0.987
                            89 H    0.984
    28   6 C    3.927 --    25 C    1.361    53 C    1.293    29 S    1.076
    29  16 S    2.500 --    30 C    1.114    28 C    1.076
    30   6 C    3.917 --    52 C    1.297    31 C    1.284    29 S    1.114
    31   6 C    3.954 --    30 C    1.284    50 C    1.263    32 C    1.165
    32   6 C    3.973 --    36 N    1.461    31 C    1.165    33 C    1.137
                            35 Se   0.116
    33   6 C    3.974 --    34 N    1.461    37 C    1.164    32 C    1.137
                            35 Se   0.117
    34   7 N    3.130 --    33 C    1.461    35 Se   1.434    36 N    0.126
    35  34 Se   3.237 --    36 N    1.434    34 N    1.434    33 C    0.117
                            32 C    0.116
    36   7 N    3.131 --    32 C    1.461    35 Se   1.434    34 N    0.126
    37   6 C    3.954 --    38 C    1.276    49 C    1.272    33 C    1.164
    38   6 C    3.921 --    47 C    1.297    37 C    1.276    39 S    1.119
    39  16 S    2.522 --    38 C    1.119    40 C    1.091
    40   6 C    3.929 --    46 C    1.320    41 C    1.311    39 S    1.091
    41   6 C    3.964 --    44 C    1.405    40 C    1.311    42 C    1.014
    42   6 C    3.992 --    41 C    1.014    43 C    0.992    90 H    0.972
                            91 H    0.965
    43   6 C    3.989 --    42 C    0.992    94 H    0.988    92 H    0.987
                            93 H    0.984
    44   6 C    3.922 --    41 C    1.405    59 C    1.245    45 S    1.062
    45  16 S    2.548 --    46 C    1.124    44 C    1.062
    46   6 C    3.935 --    40 C    1.320    47 C    1.256    45 S    1.124
    47   6 C    3.939 --    38 C    1.297    46 C    1.256    48 N    1.160
    48   7 N    3.558 --    49 C    1.174    47 C    1.160    57 C    0.977
    49   6 C    3.929 --    37 C    1.272    50 C    1.217    48 N    1.174
    50   6 C    3.928 --    31 C    1.263    49 C    1.217    51 N    1.183
    51   7 N    3.569 --    50 C    1.183    52 C    1.162    55 C    0.978
    52   6 C    3.938 --    30 C    1.297    53 C    1.252    51 N    1.162
    53   6 C    3.941 --    28 C    1.293    52 C    1.252    54 S    1.155
    54  16 S    2.725 --    53 C    1.155    24 C    1.074     4 O    0.136
    55   6 C    3.955 --    56 C    1.007    51 N    0.978    96 H    0.960
                            95 H    0.953
    56   6 C    3.988 --    55 C    1.007    99 H    0.986    97 H    0.983
                            98 H    0.982
    57   6 C    3.957 --    58 C    1.007    48 N    0.977   100 H    0.962
                           101 H    0.953
    58   6 C    3.987 --    57 C    1.007   104 H    0.986   102 H    0.983
                           103 H    0.982
    59   6 C    3.946 --    60 C    1.557    44 C    1.245   105 H    0.941
    60   6 C    3.951 --    59 C    1.557    68 C    1.128    61 C    1.004
    61   6 C    3.926 --    62 O    1.729    63 C    1.066    60 C    1.004
    62   8 O    2.024 --    61 C    1.729
    63   6 C    3.927 --    67 C    1.383    64 S    1.203    61 C    1.066
    64  16 S    2.710 --    65 C    1.219    63 C    1.203
    65   6 C    3.933 --    66 C    1.596    64 S    1.219   106 H    0.967
    66   6 C    3.981 --    65 C    1.596    67 C    1.278   107 H    0.958
    67   6 C    3.972 --    63 C    1.383    66 C    1.278    68 C    1.093
    68   6 C    3.973 --    69 C    1.470    60 C    1.128    67 C    1.093
    69   6 C    3.974 --    68 C    1.470    70 C    1.103    72 C    1.101
    70   6 C    3.944 --    71 N    2.762    69 C    1.103
    71   7 N    2.963 --    70 C    2.762
    72   6 C    3.943 --    73 N    2.757    69 C    1.101
    73   7 N    2.966 --    72 C    2.757
    74   1 H    0.993 --     1 C    0.930
    75   1 H    0.996 --     6 C    0.963
    76   1 H    0.996 --     9 C    0.958
    77   1 H    0.996 --    17 C    0.959
    78   1 H    0.998 --    18 C    0.972
    79   1 H    0.999 --    19 C    0.971
    80   1 H    0.999 --    20 C    0.971
    81   1 H    0.998 --    21 C    0.972
    82   1 H    0.996 --    22 C    0.976
    83   1 H    0.998 --    22 C    0.977
    84   1 H    0.996 --    23 C    0.959
    85   1 H    0.995 --    26 C    0.962
    86   1 H    0.995 --    26 C    0.968
    87   1 H    0.998 --    27 C    0.987
    88   1 H    0.998 --    27 C    0.988
    89   1 H    0.995 --    27 C    0.984
    90   1 H    0.996 --    42 C    0.972
    91   1 H    0.994 --    42 C    0.965
    92   1 H    0.998 --    43 C    0.987
    93   1 H    0.995 --    43 C    0.984
    94   1 H    0.998 --    43 C    0.988
    95   1 H    0.992 --    55 C    0.953
    96   1 H    0.992 --    55 C    0.960
    97   1 H    0.997 --    56 C    0.983
    98   1 H    0.996 --    56 C    0.982
    99   1 H    0.997 --    56 C    0.986
   100   1 H    0.994 --    57 C    0.962
   101   1 H    0.992 --    57 C    0.953
   102   1 H    0.997 --    58 C    0.983
   103   1 H    0.996 --    58 C    0.982
   104   1 H    0.997 --    58 C    0.986
   105   1 H    0.990 --    59 C    0.941
   106   1 H    0.993 --    65 C    0.967
   107   1 H    0.995 --    66 C    0.958
 ---------------------------------------------------------------------------

Topologies differ in bond orders
Writing corrected topology to xtbtopo.mol

molecular dipole:
                 x           y           z       tot (Debye)
 q only:        2.126       1.607      -2.099
   full:        2.620       1.748      -2.340       9.974
molecular quadrupole (traceless):
                xx          xy          yy          xz          yz          zz
 q only:      -57.937      55.110      43.696     -18.032      -3.377      14.241
  q+dip:      -61.126      51.691      41.448     -15.117      -6.993      19.678
   full:      -67.343      51.968      36.436     -12.408      -2.774      30.907


           -------------------------------------------------
          | TOTAL ENERGY             -190.298228791049 Eh   |
          | GRADIENT NORM               0.021192777467 Eh/α |
          | HOMO-LUMO GAP               1.056519066611 eV   |
           -------------------------------------------------

------------------------------------------------------------------------
 * finished run on 2022/02/02 at 21:11:37.982     
------------------------------------------------------------------------
 total:
 * wall-time:     0 d,  0 h,  0 min,  0.588 sec
 *  cpu-time:     0 d,  0 h,  0 min,  4.040 sec
 * ratio c/w:     6.872 speedup
 SCF:
 * wall-time:     0 d,  0 h,  0 min,  0.529 sec
 *  cpu-time:     0 d,  0 h,  0 min,  3.697 sec
 * ratio c/w:     6.984 speedup

