      -----------------------------------------------------------      
     |                   =====================                   |     
     |                           x T B                           |     
     |                   =====================                   |     
     |                         S. Grimme                         |     
     |          Mulliken Center for Theoretical Chemistry        |     
     |                    University of Bonn                     |     
      -----------------------------------------------------------      

   * xtb version 6.4.1 (unknown) compiled by 'oda6@login1.crc.pitt.edu' on 2021-06-25

   xtb is free software: you can redistribute it and/or modify it under
   the terms of the GNU Lesser General Public License as published by
   the Free Software Foundation, either version 3 of the License, or
   (at your option) any later version.
   
   xtb is distributed in the hope that it will be useful,
   but WITHOUT ANY WARRANTY; without even the implied warranty of
   MERCHANTABILITY or FITNESS FOR A PARTICULAR PURPOSE.  See the
   GNU Lesser General Public License for more details.
   
   Cite this work as:
   * C. Bannwarth, E. Caldeweyher, S. Ehlert, A. Hansen, P. Pracht,
     J. Seibert, S. Spicher, S. Grimme, WIREs Comput. Mol. Sci., 2020, 11,
     e01493. DOI: 10.1002/wcms.1493
   
   for GFN2-xTB:
   * C. Bannwarth, S. Ehlert and S. Grimme., J. Chem. Theory Comput., 2019,
     15, 1652-1671. DOI: 10.1021/acs.jctc.8b01176
   for GFN1-xTB:
   * S. Grimme, C. Bannwarth, P. Shushkov, J. Chem. Theory Comput., 2017,
     13, 1989-2009. DOI: 10.1021/acs.jctc.7b00118
   for GFN0-xTB:
   * P. Pracht, E. Caldeweyher, S. Ehlert, S. Grimme, ChemRxiv, 2019, preprint.
     DOI: 10.26434/chemrxiv.8326202.v1
   for GFN-FF:
   * S. Spicher and S. Grimme, Angew. Chem. Int. Ed., 2020, 59, 15665-15673.
     DOI: 10.1002/anie.202004239
   
   for DFT-D4:
   * E. Caldeweyher, C. Bannwarth and S. Grimme, J. Chem. Phys., 2017,
     147, 034112. DOI: 10.1063/1.4993215
   * E. Caldeweyher, S. Ehlert, A. Hansen, H. Neugebauer, S. Spicher,
     C. Bannwarth and S. Grimme, J. Chem. Phys., 2019, 150, 154122.
     DOI: 10.1063/1.5090222
   * E. Caldeweyher, J.-M. Mewes, S. Ehlert and S. Grimme, Phys. Chem. Chem. Phys.
     2020, 22, 8499-8512. DOI: 10.1039/D0CP00502A
   
   for sTDA-xTB:
   * S. Grimme and C. Bannwarth, J. Chem. Phys., 2016, 145, 054103.
     DOI: 10.1063/1.4959605
   
   in the mass-spec context:
   * V. Asgeirsson, C. Bauer and S. Grimme, Chem. Sci., 2017, 8, 4879.
     DOI: 10.1039/c7sc00601b
   * J. Koopman and S. Grimme, ACS Omega 2019, 4, 12, 15120-15133.
     DOI: 10.1021/acsomega.9b02011
   
   for metadynamics refer to:
   * S. Grimme, J. Chem. Theory Comput., 2019, 155, 2847-2862
     DOI: 10.1021/acs.jctc.9b00143
   
   for SPH calculations refer to:
   * S. Spicher and S. Grimme, J. Chem. Theory Comput., 2021, 17, 1701-1714
     DOI: 10.1021/acs.jctc.0c01306
   
   with help from (in alphabetical order)
   P. Atkinson, C. Bannwarth, F. Bohle, G. Brandenburg, E. Caldeweyher
   M. Checinski, S. Dohm, S. Ehlert, S. Ehrlich, I. Gerasimov, J. Koopman
   C. Lavigne, S. Lehtola, F. März, M. Müller, F. Musil, H. Neugebauer
   J. Pisarek, C. Plett, P. Pracht, J. Seibert, P. Shushkov, S. Spicher
   M. Stahn, M. Steiner, T. Strunk, J. Stückrath, T. Rose, and J. Unsleber
   
 * started run on 2022/02/01 at 22:19:06.364     

           -------------------------------------------------
          |                Calculation Setup                |
           -------------------------------------------------

          program call               : /ihome/ghutchison/oda6/xtb/xtb-641/bin/xtb ../../GFN2_output/39_100_53.mol --sp --alpb hexane
          hostname                   : smp-n98
          coordinate file            : ../../GFN2_output/39_100_53.mol
          omp threads                :                     8
          number of atoms            :                   136
          number of electrons        :                   428
          charge                     :                     0
          spin                       :                   0.0
          first test random number   :      0.66041349206825

   ID    Z sym.   atoms
    1    6 C      1-3, 5-13, 15, 17-34, 36-39, 43, 44, 46-56, 58, 59, 61, 62,
                  64, 65, 67-72, 74-76, 78, 81-88
    2    8 O      4, 89
    3    7 N      14, 16, 40, 42, 60, 63, 77, 79, 80
    4   16 S      35, 41, 45, 57, 66, 73
    5    1 H      90-136

           -------------------------------------------------
          |                 G F N 2 - x T B                 |
           -------------------------------------------------

        Reference                      10.1021/acs.jctc.8b01176
      * Hamiltonian:
        H0-scaling (s, p, d)           1.850000    2.230000    2.230000
        zeta-weighting                 0.500000
      * Dispersion:
        s8                             2.700000
        a1                             0.520000
        a2                             5.000000
        s9                             5.000000
      * Repulsion:
        kExp                           1.500000    1.000000
        rExp                           1.000000
      * Coulomb:
        alpha                          2.000000
        third order                    shell-resolved
        anisotropic                    true
        a3                             3.000000
        a5                             4.000000
        cn-shift                       1.200000
        cn-exp                         4.000000
        max-rad                        5.000000

      * Solvation model:               ALPB
        Solvent                        hexane
        Parameter file                 internal GFN2-xTB/ALPB
        Dielectric constant                1.8800E+00
        Reference state                gsolv [1 M gas/solution]
        Free energy shift                  4.8134E-03 Eh       3.0204E+00 kcal/mol
        Temperature                        2.9815E+02 K
        Density                            6.6000E-01 kg/L
        Solvent mass                       8.6180E+01 g/mol
        Interaction kernel             P16
        Born radius scaling (c1)           1.1040E+00
        Born radii integrator          GBOBC
        Born offset                        0.0000E+00 a0       0.0000E+00 AA
        H-bond correction              false
        Ion screening                  false
        Surface tension                    1.0000E-05 Eh       1.5569E+01 dyn/cm
        Grid points                               230 per atom

          ...................................................
          :                      SETUP                      :
          :.................................................:
          :  # basis functions                 439          :
          :  # atomic orbitals                 433          :
          :  # shells                          231          :
          :  # electrons                       428          :
          :  max. iterations                   250          :
          :  Hamiltonian                  GFN2-xTB          :
          :  restarted?                      false          :
          :  GBSA solvation                   true          :
          :  PC potential                    false          :
          :  electronic temp.          300.0000000     K    :
          :  accuracy                    1.0000000          :
          :  -> integral cutoff          0.2500000E+02      :
          :  -> integral neglect         0.1000000E-07      :
          :  -> SCF convergence          0.1000000E-05 Eh   :
          :  -> wf. convergence          0.1000000E-03 e    :
          :  Broyden damping             0.4000000          :
          ...................................................

 iter      E             dE          RMSdq      gap      omega  full diag
   1   -235.6048601 -0.235605E+03  0.440E+00    1.28       0.0  T
   2   -235.8084105 -0.203550E+00  0.262E+00    1.08       1.0  T
   3   -235.7366073  0.718032E-01  0.135E+00    1.17       1.0  T
   4   -235.8643650 -0.127758E+00  0.464E-01    1.16       1.0  T
   5   -235.8795093 -0.151443E-01  0.157E-01    1.11       1.0  T
   6   -235.8808804 -0.137108E-02  0.797E-02    1.16       1.0  T
   7   -235.8811605 -0.280126E-03  0.291E-02    1.15       1.0  T
   8   -235.8811902 -0.296662E-04  0.145E-02    1.15       1.0  T
   9   -235.8811998 -0.963385E-05  0.677E-03    1.15       1.3  T
  10   -235.8812015 -0.172048E-05  0.324E-03    1.15       2.6  T
  11   -235.8812019 -0.373947E-06  0.166E-03    1.15       5.2  T
  12   -235.8812019 -0.382772E-07  0.801E-04    1.15      10.7  T
  13   -235.8812019 -0.137937E-07  0.410E-04    1.15      20.9  T

   *** convergence criteria satisfied after 13 iterations ***

         #    Occupation            Energy/Eh            Energy/eV
      -------------------------------------------------------------
         1        2.0000           -0.7668714             -20.8676
       ...           ...                  ...                  ...
       208        2.0000           -0.4026274             -10.9560
       209        2.0000           -0.3979566             -10.8290
       210        2.0000           -0.3949349             -10.7467
       211        2.0000           -0.3886282             -10.5751
       212        2.0000           -0.3878300             -10.5534
       213        2.0000           -0.3791226             -10.3165
       214        2.0000           -0.3719124             -10.1203 (HOMO)
       215                         -0.3297679              -8.9734 (LUMO)
       216                         -0.3251990              -8.8491
       217                         -0.3171746              -8.6308
       218                         -0.3011642              -8.1951
       219                         -0.2850302              -7.7561
       ...                                ...                  ...
       433                          1.1631377              31.6506
      -------------------------------------------------------------
                  HL-Gap            0.0421445 Eh            1.1468 eV
             Fermi-level           -0.3508437 Eh           -9.5469 eV

 SCC (total)                   0 d,  0 h,  0 min,  0.355 sec
 SCC setup                      ...        0 min,  0.003 sec (  0.925%)
 Dispersion                     ...        0 min,  0.006 sec (  1.723%)
 classical contributions        ...        0 min,  0.000 sec (  0.057%)
 integral evaluation            ...        0 min,  0.018 sec (  5.189%)
 iterations                     ...        0 min,  0.269 sec ( 75.784%)
 molecular gradient             ...        0 min,  0.055 sec ( 15.402%)
 printout                       ...        0 min,  0.003 sec (  0.890%)

         :::::::::::::::::::::::::::::::::::::::::::::::::::::
         ::                     SUMMARY                     ::
         :::::::::::::::::::::::::::::::::::::::::::::::::::::
         :: total energy            -232.113383244050 Eh    ::
         :: total w/o Gsasa/hb      -232.032843764698 Eh    ::
         :: gradient norm              0.022372002629 Eh/a0 ::
         :: HOMO-LUMO gap              1.146809451357 eV    ::
         ::.................................................::
         :: SCC energy              -235.881201934227 Eh    ::
         :: -> isotropic ES            0.146570636895 Eh    ::
         :: -> anisotropic ES          0.017684791669 Eh    ::
         :: -> anisotropic XC          0.153217074424 Eh    ::
         :: -> dispersion             -0.222909682338 Eh    ::
         :: -> Gsolv                  -0.103727474177 Eh    ::
         ::    -> Gelec               -0.023187994826 Eh    ::
         ::    -> Gsasa               -0.085352835171 Eh    ::
         ::    -> Ghb                  0.000000000000 Eh    ::
         ::    -> Gshift               0.004813355820 Eh    ::
         :: repulsion energy           3.767559674657 Eh    ::
         :: add. restraining           0.000000000000 Eh    ::
         :: total charge              -0.000000000004 e     ::
         :::::::::::::::::::::::::::::::::::::::::::::::::::::

           -------------------------------------------------
          |                Property Printout                |
           -------------------------------------------------

    * Orbital Energies and Occupations

         #    Occupation            Energy/Eh            Energy/eV
      -------------------------------------------------------------
         1        2.0000           -0.7668714             -20.8676
       ...           ...                  ...                  ...
       202        2.0000           -0.4128546             -11.2343
       203        2.0000           -0.4083868             -11.1128
       204        2.0000           -0.4078035             -11.0969
       205        2.0000           -0.4072057             -11.0806
       206        2.0000           -0.4053478             -11.0301
       207        2.0000           -0.4038281             -10.9887
       208        2.0000           -0.4026274             -10.9560
       209        2.0000           -0.3979566             -10.8290
       210        2.0000           -0.3949349             -10.7467
       211        2.0000           -0.3886282             -10.5751
       212        2.0000           -0.3878300             -10.5534
       213        2.0000           -0.3791226             -10.3165
       214        2.0000           -0.3719124             -10.1203 (HOMO)
       215                         -0.3297679              -8.9734 (LUMO)
       216                         -0.3251990              -8.8491
       217                         -0.3171746              -8.6308
       218                         -0.3011642              -8.1951
       219                         -0.2850302              -7.7561
       220                         -0.2688067              -7.3146
       221                         -0.2623987              -7.1402
       222                         -0.2571261              -6.9968
       223                         -0.2444118              -6.6508
       224                         -0.2437298              -6.6322
       225                         -0.2413084              -6.5663
       ...                                ...                  ...
       433                          1.1631377              31.6506
      -------------------------------------------------------------
                  HL-Gap            0.0421445 Eh            1.1468 eV
             Fermi-level           -0.3508437 Eh           -9.5469 eV

     #   Z          covCN         q      C6AA      α(0)
     1   6 C        2.919    -0.012    28.323     8.727
     2   6 C        3.008    -0.041    28.990     8.832
     3   6 C        2.874     0.231    23.162     7.889
     4   8 O        0.955    -0.404    21.717     6.250
     5   6 C        3.060    -0.021    28.466     8.749
     6   6 C        2.904    -0.022    28.560     8.763
     7   6 C        3.259     0.010    26.636     8.341
     8   6 C        3.256     0.012    26.634     8.346
     9   6 C        2.904    -0.034    28.847     8.807
    10   6 C        3.050     0.005    27.863     8.657
    11   6 C        3.021     0.036    27.181     8.552
    12   6 C        2.947     0.007    27.873     8.659
    13   6 C        1.946     0.134    27.815     8.517
    14   7 N        0.911    -0.269    26.956     7.509
    15   6 C        1.944     0.131    27.882     8.527
    16   7 N        0.911    -0.272    27.029     7.519
    17   6 C        4.162    -0.022    20.882     6.490
    18   6 C        4.013    -0.015    20.768     6.474
    19   6 C        2.995    -0.041    29.018     8.836
    20   6 C        2.995    -0.042    29.037     8.839
    21   6 C        4.013    -0.015    20.765     6.473
    22   6 C        3.915    -0.060    21.584     6.603
    23   6 C        4.161    -0.022    20.883     6.490
    24   6 C        2.994     0.020    27.546     8.609
    25   6 C        3.109     0.008    27.701     8.623
    26   6 C        2.979     0.003    27.947     8.672
    27   6 C        2.926    -0.035    28.868     8.811
    28   6 C        2.919    -0.032    28.802     8.801
    29   6 C        2.919    -0.026    28.649     8.777
    30   6 C        2.926    -0.032    28.795     8.800
    31   6 C        2.973     0.017    27.637     8.623
    32   6 C        3.806    -0.059    21.640     6.622
    33   6 C        3.754    -0.098    22.421     6.752
    34   6 C        3.174     0.014    27.307     8.535
    35  16 S        2.161    -0.038   142.611    20.099
    36   6 C        3.096     0.008    27.719     8.629
    37   6 C        3.085    -0.036    28.785     8.795
    38   6 C        3.340     0.070    24.010     7.748
    39   6 C        3.341     0.070    23.995     7.743
    40   7 N        1.854    -0.297    28.542     7.918
    41  16 S        2.687     0.346   127.742    19.023
    42   7 N        1.854    -0.294    28.480     7.910
    43   6 C        3.086    -0.037    28.830     8.802
    44   6 C        3.101     0.005    27.785     8.638
    45  16 S        2.172    -0.024   142.029    20.058
    46   6 C        3.183     0.013    27.284     8.525
    47   6 C        3.107     0.006    27.747     8.631
    48   6 C        2.979     0.002    27.971     8.675
    49   6 C        2.971     0.013    27.721     8.636
    50   6 C        3.806    -0.057    21.598     6.616
    51   6 C        3.753    -0.103    22.530     6.769
    52   6 C        2.926    -0.036    28.903     8.817
    53   6 C        2.919    -0.031    28.767     8.795
    54   6 C        2.919    -0.033    28.817     8.803
    55   6 C        2.926    -0.034    28.851     8.809
    56   6 C        2.998     0.018    27.605     8.619
    57  16 S        2.379    -0.042   142.775    20.111
    58   6 C        3.117     0.010    27.628     8.610
    59   6 C        3.247     0.028    26.401     8.322
    60   7 N        2.800    -0.025    21.732     6.924
    61   6 C        3.074     0.032    27.203     8.552
    62   6 C        3.073     0.032    27.203     8.552
    63   7 N        2.796    -0.030    21.824     6.938
    64   6 C        3.253     0.029    26.285     8.294
    65   6 C        3.108    -0.003    27.948     8.662
    66  16 S        2.307     0.002   140.978    19.984
    67   6 C        3.746    -0.011    20.847     6.513
    68   6 C        3.752    -0.111    22.688     6.792
    69   6 C        3.742    -0.001    20.664     6.485
    70   6 C        3.752    -0.122    22.906     6.825
    71   6 C        2.954    -0.022    28.546     8.763
    72   6 C        2.958    -0.012    28.314     8.728
    73  16 S        2.369    -0.039   142.665    20.103
    74   6 C        2.934     0.116    25.452     8.274
    75   6 C        3.000    -0.024    28.595     8.772
    76   6 C        1.938     0.128    27.961     8.539
    77   7 N        0.911    -0.265    26.868     7.497
    78   6 C        1.921     0.128    27.968     8.541
    79   7 N        0.911    -0.276    27.126     7.533
    80   7 N        2.842    -0.055    22.301     7.014
    81   6 C        3.751     0.000    20.634     6.478
    82   6 C        2.971     0.004    27.933     8.669
    83   6 C        2.923    -0.036    28.890     8.814
    84   6 C        2.920    -0.031    28.765     8.795
    85   6 C        2.920    -0.031    28.776     8.797
    86   6 C        2.920    -0.026    28.660     8.779
    87   6 C        2.924    -0.034    28.857     8.809
    88   6 C        2.896     0.276    22.349     7.751
    89   8 O        0.858    -0.451    22.728     6.392
    90   1 H        0.925     0.073     2.053     2.241
    91   1 H        0.926     0.061     2.189     2.314
    92   1 H        0.926     0.058     2.223     2.332
    93   1 H        0.925     0.046     2.377     2.411
    94   1 H        0.925     0.040     2.445     2.445
    95   1 H        0.926     0.039     2.467     2.456
    96   1 H        0.926     0.038     2.474     2.460
    97   1 H        0.925     0.039     2.463     2.454
    98   1 H        0.925     0.035     2.512     2.479
    99   1 H        0.925     0.041     2.439     2.442
   100   1 H        0.925     0.045     2.384     2.415
   101   1 H        0.925     0.029     2.599     2.521
   102   1 H        0.926     0.037     2.485     2.465
   103   1 H        0.926     0.042     2.423     2.434
   104   1 H        0.926     0.045     2.385     2.415
   105   1 H        0.924     0.044     2.394     2.420
   106   1 H        0.924     0.040     2.453     2.449
   107   1 H        0.925     0.039     2.465     2.455
   108   1 H        0.925     0.045     2.389     2.417
   109   1 H        0.925     0.025     2.652     2.547
   110   1 H        0.924     0.032     2.563     2.504
   111   1 H        0.924     0.044     2.398     2.422
   112   1 H        0.925     0.039     2.459     2.452
   113   1 H        0.925     0.041     2.431     2.438
   114   1 H        0.925     0.043     2.411     2.428
   115   1 H        0.926     0.043     2.411     2.428
   116   1 H        0.926     0.040     2.445     2.445
   117   1 H        0.926     0.040     2.446     2.446
   118   1 H        0.926     0.034     2.533     2.489
   119   1 H        0.924     0.079     1.987     2.204
   120   1 H        0.925     0.077     2.012     2.218
   121   1 H        0.925     0.046     2.375     2.410
   122   1 H        0.925     0.057     2.230     2.335
   123   1 H        0.925     0.048     2.346     2.395
   124   1 H        0.924     0.066     2.133     2.284
   125   1 H        0.924     0.065     2.139     2.287
   126   1 H        0.925     0.060     2.194     2.316
   127   1 H        0.925     0.059     2.214     2.327
   128   1 H        0.925     0.058     2.220     2.330
   129   1 H        0.925     0.088     1.901     2.156
   130   1 H        0.924     0.069     2.101     2.267
   131   1 H        0.924     0.096     1.821     2.110
   132   1 H        0.925     0.023     2.695     2.567
   133   1 H        0.926     0.038     2.473     2.459
   134   1 H        0.926     0.041     2.433     2.439
   135   1 H        0.926     0.046     2.371     2.408
   136   1 H        0.926     0.047     2.357     2.401

 Mol. C6AA /au·bohr⁶  :     321662.170530
 Mol. C8AA /au·bohr⁸  :    8933972.002885
 Mol. α(0) /au        :        902.681542


Wiberg/Mayer (AO) data.
largest (>0.10) Wiberg bond orders for each atom

 ---------------------------------------------------------------------------
     #   Z sym  total        # sym  WBO       # sym  WBO       # sym  WBO
 ---------------------------------------------------------------------------
     1   6 C    3.944 --     2 C    1.489    24 C    1.310    90 H    0.933
     2   6 C    3.952 --     1 C    1.489    11 C    1.140     3 C    1.069
     3   6 C    3.909 --     4 O    1.678     2 C    1.069     5 C    1.033
     4   8 O    2.080 --     3 C    1.678    66 S    0.127
     5   6 C    3.970 --     6 C    1.379    10 C    1.307     3 C    1.033
     6   6 C    3.979 --     7 C    1.442     5 C    1.379    91 H    0.964
     7   6 C    3.955 --     6 C    1.442     8 C    1.325    23 C    0.993
     8   6 C    3.964 --     9 C    1.448     7 C    1.325    17 C    0.994
     9   6 C    3.976 --     8 C    1.448    10 C    1.367    92 H    0.958
    10   6 C    3.976 --     9 C    1.367     5 C    1.307    11 C    1.088
    11   6 C    3.970 --    12 C    1.476     2 C    1.140    10 C    1.088
    12   6 C    3.958 --    11 C    1.476    15 C    1.100    13 C    1.100
    13   6 C    3.942 --    14 N    2.753    12 C    1.100
    14   7 N    2.960 --    13 C    2.753
    15   6 C    3.942 --    16 N    2.745    12 C    1.100
    16   7 N    2.957 --    15 C    2.745
    17   6 C    3.984 --     8 C    0.994    23 C    0.975    93 H    0.961
                            18 C    0.951
    18   6 C    3.989 --    19 C    1.004    22 C    0.989    94 H    0.971
                            17 C    0.951
    19   6 C    3.982 --    20 C    1.924    18 C    1.004    95 H    0.971
    20   6 C    3.982 --    19 C    1.924    21 C    1.004    96 H    0.971
    21   6 C    3.988 --    20 C    1.004    22 C    0.989    97 H    0.971
                            23 C    0.951
    22   6 C    3.994 --    21 C    0.989    18 C    0.989    99 H    0.978
                            98 H    0.974
    23   6 C    3.984 --     7 C    0.993    17 C    0.975   100 H    0.961
                            21 C    0.951
    24   6 C    3.930 --    25 C    1.325     1 C    1.310    66 S    1.081
    25   6 C    3.966 --    34 C    1.348    24 C    1.325    26 C    1.021
    26   6 C    3.985 --    27 C    1.391    31 C    1.368    25 C    1.021
                            29 C    0.105
    27   6 C    3.989 --    28 C    1.446    26 C    1.391   101 H    0.970
                            30 C    0.109
    28   6 C    3.990 --    27 C    1.446    29 C    1.431   102 H    0.970
                            31 C    0.106
    29   6 C    3.988 --    30 C    1.446    28 C    1.431   103 H    0.970
                            26 C    0.105
    30   6 C    3.990 --    29 C    1.446    31 C    1.414   104 H    0.967
                            27 C    0.109
    31   6 C    3.984 --    30 C    1.414    26 C    1.368    32 C    1.014
                            28 C    0.106
    32   6 C    3.996 --    31 C    1.014    33 C    1.000   105 H    0.975
                           106 H    0.969
    33   6 C    3.996 --    32 C    1.000   108 H    0.987   109 H    0.987
                           107 H    0.986
    34   6 C    3.927 --    25 C    1.348    65 C    1.293    35 S    1.079
    35  16 S    2.502 --    36 C    1.114    34 C    1.079
    36   6 C    3.916 --    64 C    1.303    37 C    1.276    35 S    1.114
    37   6 C    3.955 --    36 C    1.276    62 C    1.268    38 C    1.172
    38   6 C    3.972 --    42 N    1.424    37 C    1.172    39 C    1.168
                            41 S    0.103
    39   6 C    3.972 --    40 N    1.424    43 C    1.172    38 C    1.168
                            41 S    0.103
    40   7 N    3.061 --    39 C    1.424    41 S    1.386    42 N    0.144
    41  16 S    3.104 --    42 N    1.389    40 N    1.386    38 C    0.103
                            39 C    0.103
    42   7 N    3.063 --    38 C    1.424    41 S    1.389    40 N    0.144
    43   6 C    3.954 --    44 C    1.277    61 C    1.265    39 C    1.172
    44   6 C    3.917 --    59 C    1.298    43 C    1.277    45 S    1.114
    45  16 S    2.518 --    44 C    1.114    46 C    1.089
    46   6 C    3.927 --    47 C    1.319    58 C    1.306    45 S    1.089
    47   6 C    3.961 --    56 C    1.368    46 C    1.319    48 C    1.012
    48   6 C    3.985 --    55 C    1.392    49 C    1.378    47 C    1.012
                            53 C    0.105
    49   6 C    3.985 --    52 C    1.408    48 C    1.378    50 C    1.012
                            54 C    0.107
    50   6 C    3.996 --    49 C    1.012    51 C    1.003   110 H    0.974
                           111 H    0.967
    51   6 C    3.994 --    50 C    1.003   113 H    0.986   112 H    0.986
                           114 H    0.983
    52   6 C    3.990 --    53 C    1.452    49 C    1.408   115 H    0.967
                            55 C    0.110
    53   6 C    3.989 --    52 C    1.452    54 C    1.428   116 H    0.970
                            48 C    0.105
    54   6 C    3.990 --    55 C    1.449    53 C    1.428   117 H    0.969
                            49 C    0.107
    55   6 C    3.988 --    54 C    1.449    48 C    1.392   118 H    0.970
                            52 C    0.110
    56   6 C    3.926 --    47 C    1.368    71 C    1.271    57 S    1.074
    57  16 S    2.576 --    58 C    1.126    56 C    1.074
    58   6 C    3.923 --    46 C    1.306    59 C    1.256    57 S    1.126
    59   6 C    3.938 --    44 C    1.298    58 C    1.256    60 N    1.158
    60   7 N    3.563 --    61 C    1.178    59 C    1.158    69 C    0.978
    61   6 C    3.929 --    43 C    1.265    62 C    1.222    60 N    1.178
    62   6 C    3.929 --    37 C    1.268    61 C    1.222    63 N    1.172
    63   7 N    3.550 --    62 C    1.172    64 C    1.156    67 C    0.975
    64   6 C    3.938 --    36 C    1.303    65 C    1.253    63 N    1.156
    65   6 C    3.940 --    34 C    1.293    64 C    1.253    66 S    1.153
    66  16 S    2.718 --    65 C    1.153    24 C    1.081     4 O    0.127
    67   6 C    3.955 --    68 C    1.005    63 N    0.975   119 H    0.962
                           120 H    0.954
    68   6 C    3.988 --    67 C    1.005   123 H    0.986   121 H    0.985
                           122 H    0.982
    69   6 C    3.959 --    70 C    1.007    60 N    0.978   125 H    0.964
                           124 H    0.961
    70   6 C    3.985 --    69 C    1.007   126 H    0.982   127 H    0.980
                           128 H    0.980
    71   6 C    3.957 --    72 C    1.545    56 C    1.271   129 H    0.939
    72   6 C    3.914 --    71 C    1.545    88 C    1.074    73 S    1.062
    73  16 S    2.531 --    74 C    1.092    72 C    1.062
    74   6 C    3.947 --    75 C    1.423    80 N    1.206    73 S    1.092
    75   6 C    3.936 --    74 C    1.423    78 C    1.115    76 C    1.102
    76   6 C    3.946 --    77 N    2.761    75 C    1.102
    77   7 N    2.977 --    76 C    2.761
    78   6 C    3.947 --    79 N    2.745    75 C    1.115
    79   7 N    2.972 --    78 C    2.745
    80   7 N    3.593 --    74 C    1.206    88 C    1.097    81 C    0.963
                            89 O    0.127
    81   6 C    3.947 --    82 C    0.993    80 N    0.963   130 H    0.958
                           131 H    0.943
    82   6 C    3.985 --    83 C    1.418    87 C    1.409    81 C    0.993
                            85 C    0.109
    83   6 C    3.992 --    84 C    1.440    82 C    1.418   132 H    0.969
                            86 C    0.111
    84   6 C    3.992 --    85 C    1.442    83 C    1.440   133 H    0.971
                            87 C    0.112
    85   6 C    3.991 --    84 C    1.442    86 C    1.436   134 H    0.971
                            82 C    0.109
    86   6 C    3.991 --    87 C    1.447    85 C    1.436   135 H    0.970
                            83 C    0.111
    87   6 C    3.990 --    86 C    1.447    82 C    1.409   136 H    0.967
                            84 C    0.112
    88   6 C    3.927 --    89 O    1.646    80 N    1.097    72 C    1.074
    89   8 O    1.981 --    88 C    1.646    80 N    0.127
    90   1 H    0.994 --     1 C    0.933
    91   1 H    0.996 --     6 C    0.964
    92   1 H    0.996 --     9 C    0.958
    93   1 H    0.996 --    17 C    0.961
    94   1 H    0.998 --    18 C    0.971
    95   1 H    0.998 --    19 C    0.971
    96   1 H    0.998 --    20 C    0.971
    97   1 H    0.998 --    21 C    0.971
    98   1 H    0.999 --    22 C    0.974
    99   1 H    0.998 --    22 C    0.978
   100   1 H    0.996 --    23 C    0.961
   101   1 H    0.999 --    27 C    0.970
   102   1 H    0.997 --    28 C    0.970
   103   1 H    0.997 --    29 C    0.970
   104   1 H    0.996 --    30 C    0.967
   105   1 H    0.998 --    32 C    0.975
   106   1 H    0.998 --    32 C    0.969
   107   1 H    0.998 --    33 C    0.986
   108   1 H    0.998 --    33 C    0.987
   109   1 H    0.999 --    33 C    0.987
   110   1 H    0.999 --    50 C    0.974
   111   1 H    0.998 --    50 C    0.967
   112   1 H    0.998 --    51 C    0.986
   113   1 H    0.998 --    51 C    0.986
   114   1 H    0.998 --    51 C    0.983
   115   1 H    0.997 --    52 C    0.967
   116   1 H    0.998 --    53 C    0.970
   117   1 H    0.997 --    54 C    0.969
   118   1 H    0.999 --    55 C    0.970
   119   1 H    0.993 --    67 C    0.962
   120   1 H    0.992 --    67 C    0.954
   121   1 H    0.998 --    68 C    0.985
   122   1 H    0.996 --    68 C    0.982
   123   1 H    0.998 --    68 C    0.986
   124   1 H    0.995 --    69 C    0.961
   125   1 H    0.993 --    69 C    0.964
   126   1 H    0.995 --    70 C    0.982
   127   1 H    0.996 --    70 C    0.980
   128   1 H    0.997 --    70 C    0.980
   129   1 H    0.991 --    71 C    0.939
   130   1 H    0.994 --    81 C    0.958
   131   1 H    0.990 --    81 C    0.943
   132   1 H    0.999 --    83 C    0.969
   133   1 H    0.998 --    84 C    0.971
   134   1 H    0.998 --    85 C    0.971
   135   1 H    0.997 --    86 C    0.970
   136   1 H    0.998 --    87 C    0.967
 ---------------------------------------------------------------------------

Topologies differ in bond orders
Writing corrected topology to xtbtopo.mol

molecular dipole:
                 x           y           z       tot (Debye)
 q only:        0.409      -0.667       0.518
   full:        0.948      -0.808       0.530       3.440
molecular quadrupole (traceless):
                xx          xy          yy          xz          yz          zz
 q only:      -87.023     -50.812      12.282     -43.957     -12.482      74.741
  q+dip:      -89.707     -63.781       6.615     -39.451       3.785      83.092
   full:      -95.479     -68.689      14.997     -40.802       5.983      80.482


           -------------------------------------------------
          | TOTAL ENERGY             -232.113383244050 Eh   |
          | GRADIENT NORM               0.022372002629 Eh/α |
          | HOMO-LUMO GAP               1.146809451357 eV   |
           -------------------------------------------------

------------------------------------------------------------------------
 * finished run on 2022/02/01 at 22:19:06.793     
------------------------------------------------------------------------
 total:
 * wall-time:     0 d,  0 h,  0 min,  0.429 sec
 *  cpu-time:     0 d,  0 h,  0 min,  3.314 sec
 * ratio c/w:     7.726 speedup
 SCF:
 * wall-time:     0 d,  0 h,  0 min,  0.357 sec
 *  cpu-time:     0 d,  0 h,  0 min,  2.834 sec
 * ratio c/w:     7.949 speedup

