      -----------------------------------------------------------      
     |                   =====================                   |     
     |                           x T B                           |     
     |                   =====================                   |     
     |                         S. Grimme                         |     
     |          Mulliken Center for Theoretical Chemistry        |     
     |                    University of Bonn                     |     
      -----------------------------------------------------------      

   * xtb version 6.4.1 (unknown) compiled by 'oda6@login1.crc.pitt.edu' on 2021-06-25

   xtb is free software: you can redistribute it and/or modify it under
   the terms of the GNU Lesser General Public License as published by
   the Free Software Foundation, either version 3 of the License, or
   (at your option) any later version.
   
   xtb is distributed in the hope that it will be useful,
   but WITHOUT ANY WARRANTY; without even the implied warranty of
   MERCHANTABILITY or FITNESS FOR A PARTICULAR PURPOSE.  See the
   GNU Lesser General Public License for more details.
   
   Cite this work as:
   * C. Bannwarth, E. Caldeweyher, S. Ehlert, A. Hansen, P. Pracht,
     J. Seibert, S. Spicher, S. Grimme, WIREs Comput. Mol. Sci., 2020, 11,
     e01493. DOI: 10.1002/wcms.1493
   
   for GFN2-xTB:
   * C. Bannwarth, S. Ehlert and S. Grimme., J. Chem. Theory Comput., 2019,
     15, 1652-1671. DOI: 10.1021/acs.jctc.8b01176
   for GFN1-xTB:
   * S. Grimme, C. Bannwarth, P. Shushkov, J. Chem. Theory Comput., 2017,
     13, 1989-2009. DOI: 10.1021/acs.jctc.7b00118
   for GFN0-xTB:
   * P. Pracht, E. Caldeweyher, S. Ehlert, S. Grimme, ChemRxiv, 2019, preprint.
     DOI: 10.26434/chemrxiv.8326202.v1
   for GFN-FF:
   * S. Spicher and S. Grimme, Angew. Chem. Int. Ed., 2020, 59, 15665-15673.
     DOI: 10.1002/anie.202004239
   
   for DFT-D4:
   * E. Caldeweyher, C. Bannwarth and S. Grimme, J. Chem. Phys., 2017,
     147, 034112. DOI: 10.1063/1.4993215
   * E. Caldeweyher, S. Ehlert, A. Hansen, H. Neugebauer, S. Spicher,
     C. Bannwarth and S. Grimme, J. Chem. Phys., 2019, 150, 154122.
     DOI: 10.1063/1.5090222
   * E. Caldeweyher, J.-M. Mewes, S. Ehlert and S. Grimme, Phys. Chem. Chem. Phys.
     2020, 22, 8499-8512. DOI: 10.1039/D0CP00502A
   
   for sTDA-xTB:
   * S. Grimme and C. Bannwarth, J. Chem. Phys., 2016, 145, 054103.
     DOI: 10.1063/1.4959605
   
   in the mass-spec context:
   * V. Asgeirsson, C. Bauer and S. Grimme, Chem. Sci., 2017, 8, 4879.
     DOI: 10.1039/c7sc00601b
   * J. Koopman and S. Grimme, ACS Omega 2019, 4, 12, 15120-15133.
     DOI: 10.1021/acsomega.9b02011
   
   for metadynamics refer to:
   * S. Grimme, J. Chem. Theory Comput., 2019, 155, 2847-2862
     DOI: 10.1021/acs.jctc.9b00143
   
   for SPH calculations refer to:
   * S. Spicher and S. Grimme, J. Chem. Theory Comput., 2021, 17, 1701-1714
     DOI: 10.1021/acs.jctc.0c01306
   
   with help from (in alphabetical order)
   P. Atkinson, C. Bannwarth, F. Bohle, G. Brandenburg, E. Caldeweyher
   M. Checinski, S. Dohm, S. Ehlert, S. Ehrlich, I. Gerasimov, J. Koopman
   C. Lavigne, S. Lehtola, F. März, M. Müller, F. Musil, H. Neugebauer
   J. Pisarek, C. Plett, P. Pracht, J. Seibert, P. Shushkov, S. Spicher
   M. Stahn, M. Steiner, T. Strunk, J. Stückrath, T. Rose, and J. Unsleber
   
 * started run on 2022/02/11 at 01:55:31.301     

           -------------------------------------------------
          |                Calculation Setup                |
           -------------------------------------------------

          program call               : /ihome/ghutchison/oda6/xtb/xtb-641/bin/xtb ../../GFN2_output/39_115_34.mol --sp --alpb hexane
          hostname                   : smp-n28
          coordinate file            : ../../GFN2_output/39_115_34.mol
          omp threads                :                     8
          number of atoms            :                   104
          number of electrons        :                   348
          charge                     :                     0
          spin                       :                   0.0
          first test random number   :      0.57672386943434

   ID    Z sym.   atoms
    1    6 C      1-3, 5-13, 15, 17-29, 31, 32, 34, 35, 39-41, 43-45, 47, 48,
                  50-53, 55-59, 61, 62, 64-70, 72
    2    8 O      4, 60
    3    7 N      14, 16, 36, 38, 49, 54, 71, 73
    4   16 S      30, 33, 37, 42, 46
    5   17 Cl     63
    6    1 H      74-104

           -------------------------------------------------
          |                 G F N 2 - x T B                 |
           -------------------------------------------------

        Reference                      10.1021/acs.jctc.8b01176
      * Hamiltonian:
        H0-scaling (s, p, d)           1.850000    2.230000    2.230000
        zeta-weighting                 0.500000
      * Dispersion:
        s8                             2.700000
        a1                             0.520000
        a2                             5.000000
        s9                             5.000000
      * Repulsion:
        kExp                           1.500000    1.000000
        rExp                           1.000000
      * Coulomb:
        alpha                          2.000000
        third order                    shell-resolved
        anisotropic                    true
        a3                             3.000000
        a5                             4.000000
        cn-shift                       1.200000
        cn-exp                         4.000000
        max-rad                        5.000000

      * Solvation model:               ALPB
        Solvent                        hexane
        Parameter file                 internal GFN2-xTB/ALPB
        Dielectric constant                1.8800E+00
        Reference state                gsolv [1 M gas/solution]
        Free energy shift                  4.8134E-03 Eh       3.0204E+00 kcal/mol
        Temperature                        2.9815E+02 K
        Density                            6.6000E-01 kg/L
        Solvent mass                       8.6180E+01 g/mol
        Interaction kernel             P16
        Born radius scaling (c1)           1.1040E+00
        Born radii integrator          GBOBC
        Born offset                        0.0000E+00 a0       0.0000E+00 AA
        H-bond correction              false
        Ion screening                  false
        Surface tension                    1.0000E-05 Eh       1.5569E+01 dyn/cm
        Grid points                               230 per atom

          ...................................................
          :                      SETUP                      :
          :.................................................:
          :  # basis functions                 359          :
          :  # atomic orbitals                 353          :
          :  # shells                          183          :
          :  # electrons                       348          :
          :  max. iterations                   250          :
          :  Hamiltonian                  GFN2-xTB          :
          :  restarted?                      false          :
          :  GBSA solvation                   true          :
          :  PC potential                    false          :
          :  electronic temp.          300.0000000     K    :
          :  accuracy                    1.0000000          :
          :  -> integral cutoff          0.2500000E+02      :
          :  -> integral neglect         0.1000000E-07      :
          :  -> SCF convergence          0.1000000E-05 Eh   :
          :  -> wf. convergence          0.1000000E-03 e    :
          :  Broyden damping             0.4000000          :
          ...................................................

 iter      E             dE          RMSdq      gap      omega  full diag
   1   -192.8747045 -0.192875E+03  0.473E+00    1.30       0.0  T
   2   -193.0497884 -0.175084E+00  0.284E+00    1.05       1.0  T
   3   -192.9919136  0.578748E-01  0.148E+00    1.10       1.0  T
   4   -193.1008682 -0.108955E+00  0.510E-01    1.11       1.0  T
   5   -193.1167665 -0.158983E-01  0.157E-01    1.03       1.0  T
   6   -193.1176734 -0.906931E-03  0.855E-02    1.08       1.0  T
   7   -193.1179332 -0.259827E-03  0.390E-02    1.07       1.0  T
   8   -193.1179692 -0.359214E-04  0.254E-02    1.07       1.0  T
   9   -193.1179858 -0.166502E-04  0.187E-02    1.07       1.0  T
  10   -193.1179959 -0.100651E-04  0.128E-02    1.07       1.0  T
  11   -193.1180027 -0.687371E-05  0.815E-03    1.07       1.2  T
  12   -193.1180055 -0.273975E-05  0.381E-03    1.08       2.6  T
  13   -193.1180062 -0.721852E-06  0.195E-03    1.08       5.0  T
  14   -193.1180063 -0.956108E-07  0.114E-03    1.08       8.6  T
  15   -193.1180063 -0.368516E-07  0.600E-04    1.08      16.4  T
  16   -193.1180064 -0.829340E-08  0.388E-04    1.08      25.3  T

   *** convergence criteria satisfied after 16 iterations ***

         #    Occupation            Energy/Eh            Energy/eV
      -------------------------------------------------------------
         1        2.0000           -1.0693157             -29.0976
       ...           ...                  ...                  ...
       168        2.0000           -0.4064555             -11.0602
       169        2.0000           -0.4056206             -11.0375
       170        2.0000           -0.3990036             -10.8574
       171        2.0000           -0.3946408             -10.7387
       172        2.0000           -0.3886893             -10.5768
       173        2.0000           -0.3797462             -10.3334
       174        2.0000           -0.3746974             -10.1960 (HOMO)
       175                         -0.3351737              -9.1205 (LUMO)
       176                         -0.3293178              -8.9612
       177                         -0.3228550              -8.7853
       178                         -0.3169767              -8.6254
       179                         -0.3012381              -8.1971
       ...                                ...                  ...
       353                          1.1581665              31.5153
      -------------------------------------------------------------
                  HL-Gap            0.0395237 Eh            1.0755 eV
             Fermi-level           -0.3549342 Eh           -9.6583 eV

 SCC (total)                   0 d,  0 h,  0 min,  0.287 sec
 SCC setup                      ...        0 min,  0.002 sec (  0.725%)
 Dispersion                     ...        0 min,  0.004 sec (  1.450%)
 classical contributions        ...        0 min,  0.000 sec (  0.044%)
 integral evaluation            ...        0 min,  0.013 sec (  4.566%)
 iterations                     ...        0 min,  0.235 sec ( 81.797%)
 molecular gradient             ...        0 min,  0.032 sec ( 11.035%)
 printout                       ...        0 min,  0.001 sec (  0.355%)

         :::::::::::::::::::::::::::::::::::::::::::::::::::::
         ::                     SUMMARY                     ::
         :::::::::::::::::::::::::::::::::::::::::::::::::::::
         :: total energy            -190.141772898955 Eh    ::
         :: total w/o Gsasa/hb      -190.075542373750 Eh    ::
         :: gradient norm              0.021402582982 Eh/a0 ::
         :: HOMO-LUMO gap              1.075494256557 eV    ::
         ::.................................................::
         :: SCC energy              -193.118006350545 Eh    ::
         :: -> isotropic ES            0.143454542324 Eh    ::
         :: -> anisotropic ES          0.002952602398 Eh    ::
         :: -> anisotropic XC          0.126825865378 Eh    ::
         :: -> dispersion             -0.170783485945 Eh    ::
         :: -> Gsolv                  -0.089571290697 Eh    ::
         ::    -> Gelec               -0.023340765493 Eh    ::
         ::    -> Gsasa               -0.071043881024 Eh    ::
         ::    -> Ghb                  0.000000000000 Eh    ::
         ::    -> Gshift               0.004813355820 Eh    ::
         :: repulsion energy           2.977519365158 Eh    ::
         :: add. restraining           0.000000000000 Eh    ::
         :: total charge               0.000000000005 e     ::
         :::::::::::::::::::::::::::::::::::::::::::::::::::::

           -------------------------------------------------
          |                Property Printout                |
           -------------------------------------------------

    * Orbital Energies and Occupations

         #    Occupation            Energy/Eh            Energy/eV
      -------------------------------------------------------------
         1        2.0000           -1.0693157             -29.0976
       ...           ...                  ...                  ...
       162        2.0000           -0.4199011             -11.4261
       163        2.0000           -0.4187030             -11.3935
       164        2.0000           -0.4163168             -11.3286
       165        2.0000           -0.4137462             -11.2586
       166        2.0000           -0.4114988             -11.1975
       167        2.0000           -0.4071176             -11.0782
       168        2.0000           -0.4064555             -11.0602
       169        2.0000           -0.4056206             -11.0375
       170        2.0000           -0.3990036             -10.8574
       171        2.0000           -0.3946408             -10.7387
       172        2.0000           -0.3886893             -10.5768
       173        2.0000           -0.3797462             -10.3334
       174        2.0000           -0.3746974             -10.1960 (HOMO)
       175                         -0.3351737              -9.1205 (LUMO)
       176                         -0.3293178              -8.9612
       177                         -0.3228550              -8.7853
       178                         -0.3169767              -8.6254
       179                         -0.3012381              -8.1971
       180                         -0.2762376              -7.5168
       181                         -0.2689637              -7.3189
       182                         -0.2517881              -6.8515
       183                         -0.2490701              -6.7775
       184                         -0.2469578              -6.7201
       185                         -0.2444615              -6.6521
       ...                                ...                  ...
       353                          1.1581665              31.5153
      -------------------------------------------------------------
                  HL-Gap            0.0395237 Eh            1.0755 eV
             Fermi-level           -0.3549342 Eh           -9.6583 eV

     #   Z          covCN         q      C6AA      α(0)
     1   6 C        2.950    -0.008    28.213     8.712
     2   6 C        3.007    -0.037    28.897     8.818
     3   6 C        2.866     0.233    23.120     7.882
     4   8 O        0.856    -0.419    22.059     6.297
     5   6 C        3.060    -0.021    28.467     8.750
     6   6 C        2.904    -0.021    28.541     8.760
     7   6 C        3.260     0.011    26.617     8.336
     8   6 C        3.257     0.012    26.626     8.343
     9   6 C        2.904    -0.033    28.826     8.803
    10   6 C        3.046     0.006    27.854     8.656
    11   6 C        3.021     0.037    27.156     8.548
    12   6 C        2.947     0.008    27.842     8.654
    13   6 C        1.937     0.130    27.908     8.531
    14   7 N        0.911    -0.268    26.937     7.506
    15   6 C        1.937     0.134    27.821     8.518
    16   7 N        0.911    -0.266    26.894     7.500
    17   6 C        4.163    -0.024    20.921     6.496
    18   6 C        4.012    -0.015    20.765     6.473
    19   6 C        2.987    -0.041    29.016     8.836
    20   6 C        2.987    -0.042    29.034     8.839
    21   6 C        4.011    -0.015    20.764     6.473
    22   6 C        3.927    -0.060    21.594     6.604
    23   6 C        4.161    -0.024    20.922     6.496
    24   6 C        3.001     0.024    27.464     8.597
    25   6 C        3.090     0.021    27.432     8.585
    26   6 C        3.804    -0.048    21.438     6.592
    27   6 C        3.753    -0.108    22.615     6.781
    28   6 C        3.194     0.012    27.237     8.510
    29   6 C        3.120     0.009    27.633     8.609
    30  16 S        2.272    -0.046   142.952    20.123
    31   6 C        3.252     0.028    26.322     8.301
    32   6 C        3.096     0.003    27.837     8.647
    33  16 S        2.183    -0.021   141.911    20.050
    34   6 C        3.094    -0.036    28.777     8.792
    35   6 C        3.344     0.070    23.943     7.728
    36   7 N        1.855    -0.296    28.513     7.914
    37  16 S        2.691     0.350   127.593    19.011
    38   7 N        1.855    -0.296    28.520     7.915
    39   6 C        3.344     0.070    23.933     7.725
    40   6 C        3.093    -0.037    28.793     8.795
    41   6 C        3.095     0.008    27.737     8.632
    42  16 S        2.168    -0.017   141.746    20.038
    43   6 C        3.190     0.019    27.092     8.490
    44   6 C        3.052    -0.041    28.973     8.828
    45   6 C        2.991     0.030    27.329     8.575
    46  16 S        2.294    -0.027   142.152    20.067
    47   6 C        3.113     0.013    27.566     8.601
    48   6 C        3.246     0.028    26.416     8.326
    49   7 N        2.802    -0.022    21.673     6.914
    50   6 C        3.746    -0.010    20.832     6.510
    51   6 C        3.752    -0.118    22.820     6.812
    52   6 C        3.058     0.032    27.219     8.556
    53   6 C        3.059     0.029    27.299     8.568
    54   7 N        2.804    -0.023    21.685     6.916
    55   6 C        3.746    -0.010    20.829     6.510
    56   6 C        3.752    -0.118    22.812     6.811
    57   6 C        2.961    -0.011    28.300     8.726
    58   6 C        3.001    -0.037    28.915     8.821
    59   6 C        2.865     0.239    23.020     7.865
    60   8 O        0.856    -0.411    21.898     6.274
    61   6 C        3.073    -0.027    28.599     8.768
    62   6 C        2.879     0.117    25.428     8.267
    63  17 Cl       0.963    -0.145   103.696    15.579
    64   6 C        2.955    -0.033    28.815     8.805
    65   6 C        2.922    -0.017    28.427     8.743
    66   6 C        2.913    -0.030    28.751     8.793
    67   6 C        3.031     0.014    27.680     8.630
    68   6 C        3.019     0.038    27.128     8.544
    69   6 C        2.947     0.010    27.794     8.647
    70   6 C        1.948     0.132    27.856     8.523
    71   7 N        0.911    -0.266    26.889     7.500
    72   6 C        1.950     0.134    27.812     8.517
    73   7 N        0.911    -0.262    26.789     7.486
    74   1 H        0.925     0.069     2.097     2.265
    75   1 H        0.926     0.062     2.177     2.307
    76   1 H        0.926     0.059     2.216     2.328
    77   1 H        0.925     0.050     2.323     2.383
    78   1 H        0.925     0.040     2.450     2.448
    79   1 H        0.926     0.033     2.544     2.494
    80   1 H        0.926     0.032     2.552     2.498
    81   1 H        0.925     0.039     2.467     2.456
    82   1 H        0.925     0.042     2.426     2.436
    83   1 H        0.925     0.043     2.408     2.427
    84   1 H        0.925     0.049     2.329     2.387
    85   1 H        0.924     0.076     2.022     2.223
    86   1 H        0.924     0.042     2.420     2.433
    87   1 H        0.925     0.047     2.363     2.404
    88   1 H        0.925     0.055     2.262     2.352
    89   1 H        0.925     0.041     2.434     2.440
    90   1 H        0.926     0.106     1.734     2.059
    91   1 H        0.925     0.078     1.995     2.209
    92   1 H        0.924     0.069     2.094     2.263
    93   1 H        0.925     0.060     2.195     2.317
    94   1 H        0.925     0.048     2.346     2.395
    95   1 H        0.925     0.058     2.221     2.331
    96   1 H        0.925     0.078     2.004     2.214
    97   1 H        0.924     0.069     2.096     2.264
    98   1 H        0.925     0.058     2.223     2.332
    99   1 H        0.925     0.059     2.210     2.325
   100   1 H        0.925     0.048     2.345     2.395
   101   1 H        0.925     0.075     2.032     2.229
   102   1 H        0.926     0.080     1.978     2.200
   103   1 H        0.926     0.073     2.054     2.241
   104   1 H        0.926     0.071     2.070     2.250

 Mol. C6AA /au·bohr⁶  :     208631.086593
 Mol. C8AA /au·bohr⁸  :    5949483.603112
 Mol. α(0) /au        :        725.451684


Wiberg/Mayer (AO) data.
largest (>0.10) Wiberg bond orders for each atom

 ---------------------------------------------------------------------------
     #   Z sym  total        # sym  WBO       # sym  WBO       # sym  WBO
 ---------------------------------------------------------------------------
     1   6 C    3.947 --     2 C    1.543    24 C    1.242    74 H    0.945
     2   6 C    3.958 --     1 C    1.543    11 C    1.134     3 C    1.029
     3   6 C    3.923 --     4 O    1.729     2 C    1.029     5 C    1.029
     4   8 O    2.021 --     3 C    1.729
     5   6 C    3.974 --     6 C    1.380    10 C    1.305     3 C    1.029
     6   6 C    3.981 --     7 C    1.442     5 C    1.380    75 H    0.963
     7   6 C    3.955 --     6 C    1.442     8 C    1.325    23 C    0.997
     8   6 C    3.965 --     9 C    1.450     7 C    1.325    17 C    0.997
     9   6 C    3.978 --     8 C    1.450    10 C    1.364    76 H    0.959
    10   6 C    3.979 --     9 C    1.364     5 C    1.305    11 C    1.093
    11   6 C    3.973 --    12 C    1.479     2 C    1.134    10 C    1.093
    12   6 C    3.953 --    11 C    1.479    15 C    1.101    13 C    1.099
    13   6 C    3.943 --    14 N    2.754    12 C    1.099
    14   7 N    2.962 --    13 C    2.754
    15   6 C    3.942 --    16 N    2.757    12 C    1.101
    16   7 N    2.962 --    15 C    2.757
    17   6 C    3.985 --     8 C    0.997    23 C    0.978    77 H    0.959
                            18 C    0.947
    18   6 C    3.989 --    19 C    1.010    22 C    0.985    78 H    0.972
                            17 C    0.947
    19   6 C    3.987 --    20 C    1.924    18 C    1.010    79 H    0.971
    20   6 C    3.987 --    19 C    1.924    21 C    1.010    80 H    0.971
    21   6 C    3.989 --    20 C    1.010    22 C    0.985    81 H    0.972
                            23 C    0.946
    22   6 C    3.993 --    21 C    0.985    18 C    0.985    82 H    0.977
                            83 H    0.976
    23   6 C    3.984 --     7 C    0.997    17 C    0.978    84 H    0.959
                            21 C    0.946
    24   6 C    3.923 --    25 C    1.412     1 C    1.242    30 S    1.064
    25   6 C    3.958 --    24 C    1.412    28 C    1.297    26 C    1.021
    26   6 C    3.992 --    25 C    1.021    27 C    1.002    86 H    0.970
                            85 H    0.942
    27   6 C    3.992 --    26 C    1.002    89 H    0.988    87 H    0.985
                            88 H    0.979
    28   6 C    3.928 --    29 C    1.330    25 C    1.297    33 S    1.091
    29   6 C    3.934 --    28 C    1.330    31 C    1.246    30 S    1.129
    30  16 S    2.538 --    29 C    1.129    24 C    1.064
    31   6 C    3.937 --    32 C    1.301    29 C    1.246    54 N    1.165
    32   6 C    3.922 --    31 C    1.301    34 C    1.279    33 S    1.113
    33  16 S    2.525 --    32 C    1.113    28 C    1.091
    34   6 C    3.952 --    32 C    1.279    53 C    1.263    35 C    1.173
    35   6 C    3.972 --    36 N    1.421    34 C    1.173    39 C    1.172
                            37 S    0.102
    36   7 N    3.061 --    35 C    1.421    37 S    1.390    38 N    0.145
    37  16 S    3.107 --    38 N    1.390    36 N    1.390    39 C    0.103
                            35 C    0.102
    38   7 N    3.062 --    39 C    1.421    37 S    1.390    36 N    0.145
    39   6 C    3.972 --    38 N    1.421    35 C    1.172    40 C    1.172
                            37 S    0.103
    40   6 C    3.954 --    41 C    1.286    52 C    1.258    39 C    1.172
    41   6 C    3.917 --    48 C    1.289    40 C    1.286    42 S    1.117
    42  16 S    2.515 --    41 C    1.117    43 C    1.088
    43   6 C    3.931 --    44 C    1.380    47 C    1.281    42 S    1.088
    44   6 C    3.948 --    45 C    1.399    43 C    1.380    90 H    0.936
    45   6 C    3.926 --    44 C    1.399    57 C    1.292    46 S    1.059
    46  16 S    2.561 --    47 C    1.153    45 C    1.059
    47   6 C    3.928 --    43 C    1.281    48 C    1.265    46 S    1.153
    48   6 C    3.939 --    41 C    1.289    47 C    1.265    49 N    1.159
    49   7 N    3.570 --    52 C    1.182    48 C    1.159    50 C    0.979
    50   6 C    3.957 --    51 C    1.005    49 N    0.979    92 H    0.963
                            91 H    0.957
    51   6 C    3.986 --    50 C    1.005    93 H    0.982    95 H    0.982
                            94 H    0.980
    52   6 C    3.924 --    40 C    1.258    53 C    1.220    49 N    1.182
    53   6 C    3.929 --    34 C    1.263    52 C    1.220    54 N    1.176
    54   7 N    3.571 --    53 C    1.176    31 C    1.165    55 C    0.980
    55   6 C    3.957 --    56 C    1.005    54 N    0.980    97 H    0.963
                            96 H    0.956
    56   6 C    3.986 --    55 C    1.005    99 H    0.983    98 H    0.983
                           100 H    0.980
    57   6 C    3.942 --    58 C    1.501    45 C    1.292   101 H    0.940
    58   6 C    3.952 --    57 C    1.501    68 C    1.145    59 C    1.044
    59   6 C    3.917 --    60 O    1.727    58 C    1.044    61 C    1.027
    60   8 O    2.032 --    59 C    1.727
    61   6 C    3.976 --    62 C    1.382    67 C    1.286    59 C    1.027
    62   6 C    3.916 --    61 C    1.382    64 C    1.369    63 Cl   1.002
    63  17 Cl   1.160 --    62 C    1.002
    64   6 C    3.967 --    65 C    1.453    62 C    1.369   102 H    0.964
    65   6 C    3.978 --    64 C    1.453    66 C    1.411   103 H    0.966
    66   6 C    3.975 --    67 C    1.413    65 C    1.411   104 H    0.959
    67   6 C    3.981 --    66 C    1.413    61 C    1.286    68 C    1.080
    68   6 C    3.970 --    69 C    1.481    58 C    1.145    67 C    1.080
    69   6 C    3.946 --    68 C    1.481    70 C    1.099    72 C    1.097
    70   6 C    3.943 --    71 N    2.744    69 C    1.099
    71   7 N    2.957 --    70 C    2.744
    72   6 C    3.942 --    73 N    2.756    69 C    1.097
    73   7 N    2.962 --    72 C    2.756
    74   1 H    0.992 --     1 C    0.945
    75   1 H    0.996 --     6 C    0.963
    76   1 H    0.996 --     9 C    0.959
    77   1 H    0.996 --    17 C    0.959
    78   1 H    0.998 --    18 C    0.972
    79   1 H    0.999 --    19 C    0.971
    80   1 H    0.999 --    20 C    0.971
    81   1 H    0.998 --    21 C    0.972
    82   1 H    0.998 --    22 C    0.977
    83   1 H    0.996 --    22 C    0.976
    84   1 H    0.995 --    23 C    0.959
    85   1 H    0.993 --    26 C    0.942
    86   1 H    0.998 --    26 C    0.970
    87   1 H    0.996 --    27 C    0.985
    88   1 H    0.997 --    27 C    0.979
    89   1 H    0.998 --    27 C    0.988
    90   1 H    0.988 --    44 C    0.936
    91   1 H    0.993 --    50 C    0.957
    92   1 H    0.993 --    50 C    0.963
    93   1 H    0.995 --    51 C    0.982
    94   1 H    0.998 --    51 C    0.980
    95   1 H    0.997 --    51 C    0.982
    96   1 H    0.993 --    55 C    0.956
    97   1 H    0.993 --    55 C    0.963
    98   1 H    0.997 --    56 C    0.983
    99   1 H    0.996 --    56 C    0.983
   100   1 H    0.998 --    56 C    0.980
   101   1 H    0.993 --    57 C    0.940
   102   1 H    0.993 --    64 C    0.964
   103   1 H    0.994 --    65 C    0.966
   104   1 H    0.994 --    66 C    0.959
 ---------------------------------------------------------------------------

Topologies differ in bond orders
Writing corrected topology to xtbtopo.mol

molecular dipole:
                 x           y           z       tot (Debye)
 q only:        0.738      -1.366       0.332
   full:        1.158      -1.213       0.884       4.818
molecular quadrupole (traceless):
                xx          xy          yy          xz          yz          zz
 q only:        2.153     -28.927      42.855      18.838     -56.316     -45.008
  q+dip:      -26.976     -27.713      68.271      20.599     -53.097     -41.295
   full:      -25.779     -23.416      64.258      17.642     -61.025     -38.479


           -------------------------------------------------
          | TOTAL ENERGY             -190.141772898955 Eh   |
          | GRADIENT NORM               0.021402582982 Eh/α |
          | HOMO-LUMO GAP               1.075494256557 eV   |
           -------------------------------------------------

------------------------------------------------------------------------
 * finished run on 2022/02/11 at 01:55:31.646     
------------------------------------------------------------------------
 total:
 * wall-time:     0 d,  0 h,  0 min,  0.345 sec
 *  cpu-time:     0 d,  0 h,  0 min,  2.670 sec
 * ratio c/w:     7.742 speedup
 SCF:
 * wall-time:     0 d,  0 h,  0 min,  0.289 sec
 *  cpu-time:     0 d,  0 h,  0 min,  2.298 sec
 * ratio c/w:     7.958 speedup

