      -----------------------------------------------------------      
     |                   =====================                   |     
     |                           x T B                           |     
     |                   =====================                   |     
     |                         S. Grimme                         |     
     |          Mulliken Center for Theoretical Chemistry        |     
     |                    University of Bonn                     |     
      -----------------------------------------------------------      

   * xtb version 6.4.1 (unknown) compiled by 'oda6@login1.crc.pitt.edu' on 2021-06-25

   xtb is free software: you can redistribute it and/or modify it under
   the terms of the GNU Lesser General Public License as published by
   the Free Software Foundation, either version 3 of the License, or
   (at your option) any later version.
   
   xtb is distributed in the hope that it will be useful,
   but WITHOUT ANY WARRANTY; without even the implied warranty of
   MERCHANTABILITY or FITNESS FOR A PARTICULAR PURPOSE.  See the
   GNU Lesser General Public License for more details.
   
   Cite this work as:
   * C. Bannwarth, E. Caldeweyher, S. Ehlert, A. Hansen, P. Pracht,
     J. Seibert, S. Spicher, S. Grimme, WIREs Comput. Mol. Sci., 2020, 11,
     e01493. DOI: 10.1002/wcms.1493
   
   for GFN2-xTB:
   * C. Bannwarth, S. Ehlert and S. Grimme., J. Chem. Theory Comput., 2019,
     15, 1652-1671. DOI: 10.1021/acs.jctc.8b01176
   for GFN1-xTB:
   * S. Grimme, C. Bannwarth, P. Shushkov, J. Chem. Theory Comput., 2017,
     13, 1989-2009. DOI: 10.1021/acs.jctc.7b00118
   for GFN0-xTB:
   * P. Pracht, E. Caldeweyher, S. Ehlert, S. Grimme, ChemRxiv, 2019, preprint.
     DOI: 10.26434/chemrxiv.8326202.v1
   for GFN-FF:
   * S. Spicher and S. Grimme, Angew. Chem. Int. Ed., 2020, 59, 15665-15673.
     DOI: 10.1002/anie.202004239
   
   for DFT-D4:
   * E. Caldeweyher, C. Bannwarth and S. Grimme, J. Chem. Phys., 2017,
     147, 034112. DOI: 10.1063/1.4993215
   * E. Caldeweyher, S. Ehlert, A. Hansen, H. Neugebauer, S. Spicher,
     C. Bannwarth and S. Grimme, J. Chem. Phys., 2019, 150, 154122.
     DOI: 10.1063/1.5090222
   * E. Caldeweyher, J.-M. Mewes, S. Ehlert and S. Grimme, Phys. Chem. Chem. Phys.
     2020, 22, 8499-8512. DOI: 10.1039/D0CP00502A
   
   for sTDA-xTB:
   * S. Grimme and C. Bannwarth, J. Chem. Phys., 2016, 145, 054103.
     DOI: 10.1063/1.4959605
   
   in the mass-spec context:
   * V. Asgeirsson, C. Bauer and S. Grimme, Chem. Sci., 2017, 8, 4879.
     DOI: 10.1039/c7sc00601b
   * J. Koopman and S. Grimme, ACS Omega 2019, 4, 12, 15120-15133.
     DOI: 10.1021/acsomega.9b02011
   
   for metadynamics refer to:
   * S. Grimme, J. Chem. Theory Comput., 2019, 155, 2847-2862
     DOI: 10.1021/acs.jctc.9b00143
   
   for SPH calculations refer to:
   * S. Spicher and S. Grimme, J. Chem. Theory Comput., 2021, 17, 1701-1714
     DOI: 10.1021/acs.jctc.0c01306
   
   with help from (in alphabetical order)
   P. Atkinson, C. Bannwarth, F. Bohle, G. Brandenburg, E. Caldeweyher
   M. Checinski, S. Dohm, S. Ehlert, S. Ehrlich, I. Gerasimov, J. Koopman
   C. Lavigne, S. Lehtola, F. März, M. Müller, F. Musil, H. Neugebauer
   J. Pisarek, C. Plett, P. Pracht, J. Seibert, P. Shushkov, S. Spicher
   M. Stahn, M. Steiner, T. Strunk, J. Stückrath, T. Rose, and J. Unsleber
   
 * started run on 2022/02/10 at 19:42:26.035     

           -------------------------------------------------
          |                Calculation Setup                |
           -------------------------------------------------

          program call               : /ihome/ghutchison/oda6/xtb/xtb-641/bin/xtb ../../GFN2_output/39_100_23.mol --sp --alpb hexane
          hostname                   : smp-n32
          coordinate file            : ../../GFN2_output/39_100_23.mol
          omp threads                :                     8
          number of atoms            :                   127
          number of electrons        :                   412
          charge                     :                     0
          spin                       :                   0.0
          first test random number   :      0.22393541505305

   ID    Z sym.   atoms
    1    6 C      1-3, 5-13, 15, 17-34, 36-39, 43, 44, 46-56, 58, 59, 61, 62,
                  64, 65, 67-73, 75, 77, 79-83, 85
    2    8 O      4, 74
    3    7 N      14, 16, 40, 42, 60, 63, 84, 86
    4   16 S      35, 41, 45, 57, 66, 76
    5   35 Br     78
    6    1 H      87-127

           -------------------------------------------------
          |                 G F N 2 - x T B                 |
           -------------------------------------------------

        Reference                      10.1021/acs.jctc.8b01176
      * Hamiltonian:
        H0-scaling (s, p, d)           1.850000    2.230000    2.230000
        zeta-weighting                 0.500000
      * Dispersion:
        s8                             2.700000
        a1                             0.520000
        a2                             5.000000
        s9                             5.000000
      * Repulsion:
        kExp                           1.500000    1.000000
        rExp                           1.000000
      * Coulomb:
        alpha                          2.000000
        third order                    shell-resolved
        anisotropic                    true
        a3                             3.000000
        a5                             4.000000
        cn-shift                       1.200000
        cn-exp                         4.000000
        max-rad                        5.000000

      * Solvation model:               ALPB
        Solvent                        hexane
        Parameter file                 internal GFN2-xTB/ALPB
        Dielectric constant                1.8800E+00
        Reference state                gsolv [1 M gas/solution]
        Free energy shift                  4.8134E-03 Eh       3.0204E+00 kcal/mol
        Temperature                        2.9815E+02 K
        Density                            6.6000E-01 kg/L
        Solvent mass                       8.6180E+01 g/mol
        Interaction kernel             P16
        Born radius scaling (c1)           1.1040E+00
        Born radii integrator          GBOBC
        Born offset                        0.0000E+00 a0       0.0000E+00 AA
        H-bond correction              false
        Ion screening                  false
        Surface tension                    1.0000E-05 Eh       1.5569E+01 dyn/cm
        Grid points                               230 per atom

          ...................................................
          :                      SETUP                      :
          :.................................................:
          :  # basis functions                 427          :
          :  # atomic orbitals                 420          :
          :  # shells                          220          :
          :  # electrons                       412          :
          :  max. iterations                   250          :
          :  Hamiltonian                  GFN2-xTB          :
          :  restarted?                      false          :
          :  GBSA solvation                   true          :
          :  PC potential                    false          :
          :  electronic temp.          300.0000000     K    :
          :  accuracy                    1.0000000          :
          :  -> integral cutoff          0.2500000E+02      :
          :  -> integral neglect         0.1000000E-07      :
          :  -> SCF convergence          0.1000000E-05 Eh   :
          :  -> wf. convergence          0.1000000E-03 e    :
          :  Broyden damping             0.4000000          :
          ...................................................

 iter      E             dE          RMSdq      gap      omega  full diag
   1   -227.0552397 -0.227055E+03  0.440E+00    1.32       0.0  T
   2   -227.2309710 -0.175731E+00  0.265E+00    1.02       1.0  T
   3   -227.1541054  0.768656E-01  0.141E+00    0.94       1.0  T
   4   -227.2898366 -0.135731E+00  0.465E-01    1.00       1.0  T
   5   -227.3040265 -0.141899E-01  0.168E-01    0.86       1.0  T
   6   -227.3052347 -0.120817E-02  0.930E-02    0.92       1.0  T
   7   -227.3055662 -0.331503E-03  0.450E-02    0.90       1.0  T
   8   -227.3056385 -0.723512E-04  0.293E-02    0.91       1.0  T
   9   -227.3056513 -0.128159E-04  0.214E-02    0.90       1.0  T
  10   -227.3056599 -0.854949E-05  0.140E-02    0.90       1.0  T
  11   -227.3056657 -0.577543E-05  0.820E-03    0.90       1.1  T
  12   -227.3056679 -0.219892E-05  0.421E-03    0.90       2.1  T
  13   -227.3056685 -0.626782E-06  0.241E-03    0.90       3.7  T
  14   -227.3056687 -0.205039E-06  0.112E-03    0.90       7.9  T
  15   -227.3056687 -0.332973E-07  0.694E-04    0.90      12.8  T
  16   -227.3056687 -0.621120E-08  0.403E-04    0.90      22.0  T

   *** convergence criteria satisfied after 16 iterations ***

         #    Occupation            Energy/Eh            Energy/eV
      -------------------------------------------------------------
         1        2.0000           -0.8643472             -23.5201
       ...           ...                  ...                  ...
       200        2.0000           -0.4010710             -10.9137
       201        2.0000           -0.3986820             -10.8487
       202        2.0000           -0.3962488             -10.7825
       203        2.0000           -0.3915636             -10.6550
       204        2.0000           -0.3872875             -10.5386
       205        2.0000           -0.3793338             -10.3222
       206        2.0000           -0.3732202             -10.1558 (HOMO)
       207                         -0.3401621              -9.2563 (LUMO)
       208                         -0.3310122              -9.0073
       209                         -0.3262269              -8.8771
       210                         -0.3181269              -8.6567
       211                         -0.3015158              -8.2047
       ...                                ...                  ...
       420                          1.1575898              31.4996
      -------------------------------------------------------------
                  HL-Gap            0.0330581 Eh            0.8996 eV
             Fermi-level           -0.3566904 Eh           -9.7060 eV

 SCC (total)                   0 d,  0 h,  0 min,  0.349 sec
 SCC setup                      ...        0 min,  0.003 sec (  0.882%)
 Dispersion                     ...        0 min,  0.005 sec (  1.534%)
 classical contributions        ...        0 min,  0.000 sec (  0.050%)
 integral evaluation            ...        0 min,  0.017 sec (  4.994%)
 iterations                     ...        0 min,  0.273 sec ( 78.164%)
 molecular gradient             ...        0 min,  0.049 sec ( 13.947%)
 printout                       ...        0 min,  0.001 sec (  0.405%)

         :::::::::::::::::::::::::::::::::::::::::::::::::::::
         ::                     SUMMARY                     ::
         :::::::::::::::::::::::::::::::::::::::::::::::::::::
         :: total energy            -223.743027379981 Eh    ::
         :: total w/o Gsasa/hb      -223.664682920271 Eh    ::
         :: gradient norm              0.019576057246 Eh/a0 ::
         :: HOMO-LUMO gap              0.899555422795 eV    ::
         ::.................................................::
         :: SCC energy              -227.305668726490 Eh    ::
         :: -> isotropic ES            0.137784193690 Eh    ::
         :: -> anisotropic ES          0.016218099531 Eh    ::
         :: -> anisotropic XC          0.143858265654 Eh    ::
         :: -> dispersion             -0.215410309708 Eh    ::
         :: -> Gsolv                  -0.099891388348 Eh    ::
         ::    -> Gelec               -0.021546928638 Eh    ::
         ::    -> Gsasa               -0.083157815529 Eh    ::
         ::    -> Ghb                  0.000000000000 Eh    ::
         ::    -> Gshift               0.004813355820 Eh    ::
         :: repulsion energy           3.562190010550 Eh    ::
         :: add. restraining           0.000000000000 Eh    ::
         :: total charge               0.000000000086 e     ::
         :::::::::::::::::::::::::::::::::::::::::::::::::::::

           -------------------------------------------------
          |                Property Printout                |
           -------------------------------------------------

    * Orbital Energies and Occupations

         #    Occupation            Energy/Eh            Energy/eV
      -------------------------------------------------------------
         1        2.0000           -0.8643472             -23.5201
       ...           ...                  ...                  ...
       194        2.0000           -0.4168283             -11.3425
       195        2.0000           -0.4123403             -11.2203
       196        2.0000           -0.4080505             -11.1036
       197        2.0000           -0.4065029             -11.0615
       198        2.0000           -0.4045890             -11.0094
       199        2.0000           -0.4041127             -10.9965
       200        2.0000           -0.4010710             -10.9137
       201        2.0000           -0.3986820             -10.8487
       202        2.0000           -0.3962488             -10.7825
       203        2.0000           -0.3915636             -10.6550
       204        2.0000           -0.3872875             -10.5386
       205        2.0000           -0.3793338             -10.3222
       206        2.0000           -0.3732202             -10.1558 (HOMO)
       207                         -0.3401621              -9.2563 (LUMO)
       208                         -0.3310122              -9.0073
       209                         -0.3262269              -8.8771
       210                         -0.3181269              -8.6567
       211                         -0.3015158              -8.2047
       212                         -0.2773772              -7.5478
       213                         -0.2693430              -7.3292
       214                         -0.2575176              -7.0074
       215                         -0.2526586              -6.8752
       216                         -0.2479033              -6.7458
       217                         -0.2454681              -6.6795
       ...                                ...                  ...
       420                          1.1575898              31.4996
      -------------------------------------------------------------
                  HL-Gap            0.0330581 Eh            0.8996 eV
             Fermi-level           -0.3566904 Eh           -9.7060 eV

     #   Z          covCN         q      C6AA      α(0)
     1   6 C        2.918    -0.012    28.310     8.725
     2   6 C        3.007    -0.040    28.987     8.832
     3   6 C        2.875     0.231    23.165     7.890
     4   8 O        0.967    -0.403    21.692     6.247
     5   6 C        3.061    -0.021    28.466     8.749
     6   6 C        2.904    -0.022    28.561     8.763
     7   6 C        3.259     0.010    26.635     8.340
     8   6 C        3.256     0.012    26.633     8.345
     9   6 C        2.904    -0.034    28.848     8.807
    10   6 C        3.050     0.005    27.863     8.657
    11   6 C        3.022     0.035    27.182     8.552
    12   6 C        2.947     0.007    27.865     8.658
    13   6 C        1.947     0.134    27.810     8.516
    14   7 N        0.911    -0.268    26.943     7.507
    15   6 C        1.945     0.130    27.904     8.531
    16   7 N        0.911    -0.271    27.000     7.515
    17   6 C        4.162    -0.022    20.883     6.490
    18   6 C        4.013    -0.015    20.767     6.474
    19   6 C        2.995    -0.041    29.017     8.836
    20   6 C        2.995    -0.042    29.038     8.839
    21   6 C        4.013    -0.015    20.766     6.474
    22   6 C        3.915    -0.060    21.584     6.603
    23   6 C        4.160    -0.022    20.884     6.490
    24   6 C        2.993     0.019    27.568     8.613
    25   6 C        3.108     0.007    27.710     8.624
    26   6 C        2.979     0.001    27.991     8.679
    27   6 C        2.926    -0.035    28.863     8.810
    28   6 C        2.919    -0.034    28.836     8.806
    29   6 C        2.919    -0.029    28.718     8.788
    30   6 C        2.926    -0.030    28.745     8.792
    31   6 C        2.973     0.016    27.654     8.626
    32   6 C        3.806    -0.058    21.618     6.619
    33   6 C        3.754    -0.099    22.443     6.755
    34   6 C        3.174     0.014    27.315     8.536
    35  16 S        2.163    -0.035   142.516    20.093
    36   6 C        3.101     0.008    27.703     8.625
    37   6 C        3.074    -0.035    28.783     8.796
    38   6 C        3.336     0.070    24.091     7.772
    39   6 C        3.337     0.070    24.091     7.772
    40   7 N        1.853    -0.294    28.481     7.910
    41  16 S        2.680     0.349   127.632    19.014
    42   7 N        1.854    -0.294    28.461     7.907
    43   6 C        3.074    -0.035    28.796     8.798
    44   6 C        3.102     0.010    27.677     8.621
    45  16 S        2.162    -0.030   142.294    20.077
    46   6 C        3.172     0.014    27.324     8.538
    47   6 C        3.107     0.010    27.664     8.618
    48   6 C        2.979     0.001    27.990     8.678
    49   6 C        2.973     0.014    27.702     8.633
    50   6 C        3.806    -0.058    21.611     6.618
    51   6 C        3.754    -0.099    22.457     6.757
    52   6 C        2.926    -0.029    28.737     8.791
    53   6 C        2.919    -0.026    28.655     8.778
    54   6 C        2.919    -0.032    28.799     8.800
    55   6 C        2.926    -0.034    28.844     8.807
    56   6 C        2.992     0.018    27.589     8.616
    57  16 S        2.295     0.009   140.695    19.964
    58   6 C        3.109     0.001    27.852     8.646
    59   6 C        3.253     0.032    26.236     8.286
    60   7 N        2.791    -0.036    21.930     6.955
    61   6 C        3.099     0.035    27.107     8.532
    62   6 C        3.098     0.033    27.148     8.539
    63   7 N        2.792    -0.036    21.935     6.956
    64   6 C        3.255     0.032    26.205     8.279
    65   6 C        3.109    -0.002    27.932     8.659
    66  16 S        2.318     0.008   140.734    19.966
    67   6 C        3.742    -0.005    20.738     6.497
    68   6 C        3.752    -0.116    22.776     6.806
    69   6 C        3.742    -0.005    20.736     6.497
    70   6 C        3.752    -0.116    22.773     6.805
    71   6 C        2.919    -0.011    28.296     8.723
    72   6 C        3.027    -0.045    29.084     8.846
    73   6 C        2.873     0.232    23.143     7.886
    74   8 O        0.945    -0.401    21.657     6.241
    75   6 C        3.079    -0.022    28.466     8.747
    76  16 S        2.391     0.105   136.825    19.687
    77   6 C        2.955     0.086    26.091     8.378
    78  35 Br       1.141    -0.114   188.176    22.118
    79   6 C        3.097    -0.049    29.093     8.840
    80   6 C        3.234    -0.003    27.230     8.468
    81   6 C        3.031     0.037    27.142     8.546
    82   6 C        2.947     0.013    27.728     8.637
    83   6 C        1.930     0.131    27.879     8.527
    84   7 N        0.911    -0.261    26.763     7.482
    85   6 C        1.937     0.133    27.827     8.519
    86   7 N        0.911    -0.257    26.667     7.469
    87   1 H        0.925     0.072     2.067     2.248
    88   1 H        0.926     0.061     2.192     2.315
    89   1 H        0.926     0.058     2.220     2.330
    90   1 H        0.925     0.046     2.370     2.407
    91   1 H        0.925     0.040     2.449     2.447
    92   1 H        0.926     0.039     2.464     2.455
    93   1 H        0.926     0.038     2.473     2.459
    94   1 H        0.925     0.039     2.467     2.456
    95   1 H        0.925     0.041     2.442     2.444
    96   1 H        0.925     0.035     2.518     2.482
    97   1 H        0.925     0.045     2.382     2.413
    98   1 H        0.926     0.032     2.554     2.499
    99   1 H        0.926     0.038     2.478     2.461
   100   1 H        0.926     0.041     2.438     2.442
   101   1 H        0.926     0.050     2.326     2.385
   102   1 H        0.924     0.030     2.589     2.516
   103   1 H        0.924     0.047     2.355     2.400
   104   1 H        0.925     0.041     2.439     2.442
   105   1 H        0.925     0.034     2.531     2.488
   106   1 H        0.925     0.038     2.474     2.460
   107   1 H        0.924     0.029     2.596     2.520
   108   1 H        0.924     0.043     2.407     2.426
   109   1 H        0.925     0.039     2.468     2.457
   110   1 H        0.925     0.041     2.430     2.438
   111   1 H        0.925     0.036     2.508     2.477
   112   1 H        0.926     0.047     2.358     2.401
   113   1 H        0.926     0.043     2.408     2.426
   114   1 H        0.926     0.040     2.452     2.449
   115   1 H        0.926     0.033     2.544     2.494
   116   1 H        0.925     0.072     2.064     2.247
   117   1 H        0.924     0.070     2.089     2.260
   118   1 H        0.925     0.055     2.255     2.348
   119   1 H        0.925     0.058     2.217     2.329
   120   1 H        0.925     0.047     2.361     2.403
   121   1 H        0.924     0.069     2.096     2.264
   122   1 H        0.925     0.073     2.053     2.241
   123   1 H        0.925     0.047     2.358     2.401
   124   1 H        0.925     0.059     2.213     2.326
   125   1 H        0.925     0.054     2.266     2.354
   126   1 H        0.925     0.076     2.022     2.224
   127   1 H        0.926     0.085     1.926     2.170

 Mol. C6AA /au·bohr⁶  :     303679.236925
 Mol. C8AA /au·bohr⁸  :    8749585.905915
 Mol. α(0) /au        :        878.217477


Wiberg/Mayer (AO) data.
largest (>0.10) Wiberg bond orders for each atom

 ---------------------------------------------------------------------------
     #   Z sym  total        # sym  WBO       # sym  WBO       # sym  WBO
 ---------------------------------------------------------------------------
     1   6 C    3.945 --     2 C    1.488    24 C    1.311    87 H    0.935
     2   6 C    3.951 --     1 C    1.488    11 C    1.139     3 C    1.070
     3   6 C    3.909 --     4 O    1.676     2 C    1.070     5 C    1.033
     4   8 O    2.082 --     3 C    1.676    66 S    0.132
     5   6 C    3.970 --     6 C    1.378    10 C    1.308     3 C    1.033
     6   6 C    3.979 --     7 C    1.443     5 C    1.378    88 H    0.964
     7   6 C    3.955 --     6 C    1.443     8 C    1.324    23 C    0.993
     8   6 C    3.964 --     9 C    1.448     7 C    1.324    17 C    0.994
     9   6 C    3.976 --     8 C    1.448    10 C    1.367    89 H    0.958
    10   6 C    3.976 --     9 C    1.367     5 C    1.308    11 C    1.087
    11   6 C    3.970 --    12 C    1.477     2 C    1.139    10 C    1.087
    12   6 C    3.948 --    11 C    1.477    15 C    1.100    13 C    1.099
    13   6 C    3.941 --    14 N    2.753    12 C    1.099
    14   7 N    2.960 --    13 C    2.753
    15   6 C    3.943 --    16 N    2.745    12 C    1.100
    16   7 N    2.958 --    15 C    2.745
    17   6 C    3.984 --     8 C    0.994    23 C    0.975    90 H    0.961
                            18 C    0.951
    18   6 C    3.989 --    19 C    1.004    22 C    0.989    91 H    0.971
                            17 C    0.951
    19   6 C    3.982 --    20 C    1.924    18 C    1.004    92 H    0.971
    20   6 C    3.982 --    19 C    1.924    21 C    1.004    93 H    0.971
    21   6 C    3.988 --    20 C    1.004    22 C    0.989    94 H    0.971
                            23 C    0.950
    22   6 C    3.994 --    21 C    0.989    18 C    0.989    95 H    0.978
                            96 H    0.974
    23   6 C    3.984 --     7 C    0.993    17 C    0.975    97 H    0.961
                            21 C    0.950
    24   6 C    3.929 --    25 C    1.324     1 C    1.311    66 S    1.083
    25   6 C    3.956 --    34 C    1.351    24 C    1.324    26 C    1.019
    26   6 C    3.985 --    27 C    1.394    31 C    1.368    25 C    1.019
                            29 C    0.105
    27   6 C    3.988 --    28 C    1.446    26 C    1.394    98 H    0.970
                            30 C    0.109
    28   6 C    3.990 --    27 C    1.446    29 C    1.432    99 H    0.969
                            31 C    0.107
    29   6 C    3.988 --    30 C    1.447    28 C    1.432   100 H    0.970
                            26 C    0.105
    30   6 C    3.989 --    29 C    1.447    31 C    1.412   101 H    0.966
                            27 C    0.109
    31   6 C    3.985 --    30 C    1.412    26 C    1.368    32 C    1.013
                            28 C    0.107
    32   6 C    3.996 --    31 C    1.013    33 C    1.000   103 H    0.973
                           102 H    0.971
    33   6 C    3.996 --    32 C    1.000   104 H    0.988   105 H    0.987
                           106 H    0.986
    34   6 C    3.927 --    25 C    1.351    65 C    1.289    35 S    1.080
    35  16 S    2.502 --    36 C    1.116    34 C    1.080
    36   6 C    3.914 --    64 C    1.302    37 C    1.272    35 S    1.116
    37   6 C    3.954 --    36 C    1.272    62 C    1.270    38 C    1.171
    38   6 C    3.971 --    42 N    1.427    37 C    1.171    39 C    1.163
                            41 S    0.103
    39   6 C    3.971 --    40 N    1.427    43 C    1.171    38 C    1.163
                            41 S    0.104
    40   7 N    3.063 --    39 C    1.427    41 S    1.387    42 N    0.143
    41  16 S    3.098 --    42 N    1.388    40 N    1.387    39 C    0.104
                            38 C    0.103
    42   7 N    3.064 --    38 C    1.427    41 S    1.388    40 N    0.143
    43   6 C    3.954 --    44 C    1.274    61 C    1.268    39 C    1.171
    44   6 C    3.914 --    59 C    1.298    43 C    1.274    45 S    1.117
    45  16 S    2.505 --    44 C    1.117    46 C    1.080
    46   6 C    3.928 --    47 C    1.363    58 C    1.280    45 S    1.080
    47   6 C    3.954 --    46 C    1.363    56 C    1.312    48 C    1.017
    48   6 C    3.985 --    55 C    1.394    49 C    1.369    47 C    1.017
                            53 C    0.106
    49   6 C    3.985 --    52 C    1.413    48 C    1.369    50 C    1.013
                            54 C    0.107
    50   6 C    3.997 --    49 C    1.013    51 C    1.000   108 H    0.974
                           107 H    0.971
    51   6 C    3.995 --    50 C    1.000   110 H    0.988   111 H    0.987
                           109 H    0.986
    52   6 C    3.990 --    53 C    1.446    49 C    1.413   112 H    0.967
                            55 C    0.109
    53   6 C    3.989 --    52 C    1.446    54 C    1.432   113 H    0.970
                            48 C    0.106
    54   6 C    3.990 --    55 C    1.445    53 C    1.432   114 H    0.969
                            49 C    0.107
    55   6 C    3.988 --    54 C    1.445    48 C    1.394   115 H    0.970
                            52 C    0.109
    56   6 C    3.931 --    71 C    1.326    47 C    1.312    57 S    1.078
    57  16 S    2.701 --    58 C    1.156    56 C    1.078    74 O    0.116
    58   6 C    3.941 --    46 C    1.280    59 C    1.266    57 S    1.156
    59   6 C    3.938 --    44 C    1.298    58 C    1.266    60 N    1.147
    60   7 N    3.540 --    61 C    1.173    59 C    1.147    69 C    0.973
    61   6 C    3.930 --    43 C    1.268    62 C    1.230    60 N    1.173
    62   6 C    3.931 --    37 C    1.270    61 C    1.230    63 N    1.171
    63   7 N    3.540 --    62 C    1.171    64 C    1.150    67 C    0.973
    64   6 C    3.937 --    36 C    1.302    65 C    1.258    63 N    1.150
    65   6 C    3.941 --    34 C    1.289    64 C    1.258    66 S    1.153
    66  16 S    2.721 --    65 C    1.153    24 C    1.083     4 O    0.132
    67   6 C    3.958 --    68 C    1.005    63 N    0.973   117 H    0.966
                           116 H    0.965
    68   6 C    3.988 --    67 C    1.005   120 H    0.987   118 H    0.983
                           119 H    0.982
    69   6 C    3.958 --    70 C    1.005    60 N    0.973   121 H    0.966
                           122 H    0.965
    70   6 C    3.988 --    69 C    1.005   123 H    0.987   125 H    0.983
                           124 H    0.982
    71   6 C    3.939 --    72 C    1.473    56 C    1.326   126 H    0.934
    72   6 C    3.945 --    71 C    1.473    81 C    1.143    73 C    1.059
    73   6 C    3.915 --    74 O    1.668    75 C    1.064    72 C    1.059
    74   8 O    2.074 --    73 C    1.668    57 S    0.116
    75   6 C    3.924 --    80 C    1.394    76 S    1.191    73 C    1.064
    76  16 S    2.688 --    75 C    1.191    77 C    1.179
    77   6 C    3.893 --    79 C    1.538    76 S    1.179    78 Br   1.033
    78  35 Br   1.180 --    77 C    1.033
    79   6 C    3.976 --    77 C    1.538    80 C    1.280   127 H    0.954
    80   6 C    3.971 --    75 C    1.394    79 C    1.280    81 C    1.084
    81   6 C    3.967 --    82 C    1.473    72 C    1.143    80 C    1.084
    82   6 C    3.955 --    81 C    1.473    83 C    1.103    85 C    1.097
    83   6 C    3.944 --    84 N    2.750    82 C    1.103
    84   7 N    2.956 --    83 C    2.750
    85   6 C    3.943 --    86 N    2.765    82 C    1.097
    86   7 N    2.963 --    85 C    2.765
    87   1 H    0.994 --     1 C    0.935
    88   1 H    0.996 --     6 C    0.964
    89   1 H    0.996 --     9 C    0.958
    90   1 H    0.996 --    17 C    0.961
    91   1 H    0.998 --    18 C    0.971
    92   1 H    0.998 --    19 C    0.971
    93   1 H    0.998 --    20 C    0.971
    94   1 H    0.998 --    21 C    0.971
    95   1 H    0.998 --    22 C    0.978
    96   1 H    0.999 --    22 C    0.974
    97   1 H    0.996 --    23 C    0.961
    98   1 H    0.999 --    27 C    0.970
    99   1 H    0.997 --    28 C    0.969
   100   1 H    0.998 --    29 C    0.970
   101   1 H    0.996 --    30 C    0.966
   102   1 H    0.999 --    32 C    0.971
   103   1 H    0.997 --    32 C    0.973
   104   1 H    0.998 --    33 C    0.988
   105   1 H    0.999 --    33 C    0.987
   106   1 H    0.998 --    33 C    0.986
   107   1 H    0.999 --    50 C    0.971
   108   1 H    0.998 --    50 C    0.974
   109   1 H    0.998 --    51 C    0.986
   110   1 H    0.998 --    51 C    0.988
   111   1 H    0.999 --    51 C    0.987
   112   1 H    0.996 --    52 C    0.967
   113   1 H    0.997 --    53 C    0.970
   114   1 H    0.996 --    54 C    0.969
   115   1 H    0.999 --    55 C    0.970
   116   1 H    0.994 --    67 C    0.965
   117   1 H    0.993 --    67 C    0.966
   118   1 H    0.997 --    68 C    0.983
   119   1 H    0.996 --    68 C    0.982
   120   1 H    0.998 --    68 C    0.987
   121   1 H    0.993 --    69 C    0.966
   122   1 H    0.994 --    69 C    0.965
   123   1 H    0.998 --    70 C    0.987
   124   1 H    0.996 --    70 C    0.982
   125   1 H    0.997 --    70 C    0.983
   126   1 H    0.993 --    71 C    0.934
   127   1 H    0.992 --    79 C    0.954
 ---------------------------------------------------------------------------

Topologies differ in bond orders
Writing corrected topology to xtbtopo.mol

molecular dipole:
                 x           y           z       tot (Debye)
 q only:        0.563      -0.146      -1.253
   full:        0.918       0.046      -1.510       4.494
molecular quadrupole (traceless):
                xx          xy          yy          xz          yz          zz
 q only:       44.338     -49.789     -35.497     -65.010     -99.186      -8.841
  q+dip:       41.662     -69.215     -32.758     -61.518    -105.817      -8.904
   full:       39.707     -75.516     -27.440     -58.567    -113.704     -12.267


           -------------------------------------------------
          | TOTAL ENERGY             -223.743027379981 Eh   |
          | GRADIENT NORM               0.019576057246 Eh/α |
          | HOMO-LUMO GAP               0.899555422795 eV   |
           -------------------------------------------------

------------------------------------------------------------------------
 * finished run on 2022/02/10 at 19:42:26.449     
------------------------------------------------------------------------
 total:
 * wall-time:     0 d,  0 h,  0 min,  0.415 sec
 *  cpu-time:     0 d,  0 h,  0 min,  3.232 sec
 * ratio c/w:     7.793 speedup
 SCF:
 * wall-time:     0 d,  0 h,  0 min,  0.351 sec
 *  cpu-time:     0 d,  0 h,  0 min,  2.805 sec
 * ratio c/w:     7.989 speedup

