      -----------------------------------------------------------      
     |                   =====================                   |     
     |                           x T B                           |     
     |                   =====================                   |     
     |                         S. Grimme                         |     
     |          Mulliken Center for Theoretical Chemistry        |     
     |                    University of Bonn                     |     
      -----------------------------------------------------------      

   * xtb version 6.4.1 (unknown) compiled by 'oda6@login1.crc.pitt.edu' on 2021-06-25

   xtb is free software: you can redistribute it and/or modify it under
   the terms of the GNU Lesser General Public License as published by
   the Free Software Foundation, either version 3 of the License, or
   (at your option) any later version.
   
   xtb is distributed in the hope that it will be useful,
   but WITHOUT ANY WARRANTY; without even the implied warranty of
   MERCHANTABILITY or FITNESS FOR A PARTICULAR PURPOSE.  See the
   GNU Lesser General Public License for more details.
   
   Cite this work as:
   * C. Bannwarth, E. Caldeweyher, S. Ehlert, A. Hansen, P. Pracht,
     J. Seibert, S. Spicher, S. Grimme, WIREs Comput. Mol. Sci., 2020, 11,
     e01493. DOI: 10.1002/wcms.1493
   
   for GFN2-xTB:
   * C. Bannwarth, S. Ehlert and S. Grimme., J. Chem. Theory Comput., 2019,
     15, 1652-1671. DOI: 10.1021/acs.jctc.8b01176
   for GFN1-xTB:
   * S. Grimme, C. Bannwarth, P. Shushkov, J. Chem. Theory Comput., 2017,
     13, 1989-2009. DOI: 10.1021/acs.jctc.7b00118
   for GFN0-xTB:
   * P. Pracht, E. Caldeweyher, S. Ehlert, S. Grimme, ChemRxiv, 2019, preprint.
     DOI: 10.26434/chemrxiv.8326202.v1
   for GFN-FF:
   * S. Spicher and S. Grimme, Angew. Chem. Int. Ed., 2020, 59, 15665-15673.
     DOI: 10.1002/anie.202004239
   
   for DFT-D4:
   * E. Caldeweyher, C. Bannwarth and S. Grimme, J. Chem. Phys., 2017,
     147, 034112. DOI: 10.1063/1.4993215
   * E. Caldeweyher, S. Ehlert, A. Hansen, H. Neugebauer, S. Spicher,
     C. Bannwarth and S. Grimme, J. Chem. Phys., 2019, 150, 154122.
     DOI: 10.1063/1.5090222
   * E. Caldeweyher, J.-M. Mewes, S. Ehlert and S. Grimme, Phys. Chem. Chem. Phys.
     2020, 22, 8499-8512. DOI: 10.1039/D0CP00502A
   
   for sTDA-xTB:
   * S. Grimme and C. Bannwarth, J. Chem. Phys., 2016, 145, 054103.
     DOI: 10.1063/1.4959605
   
   in the mass-spec context:
   * V. Asgeirsson, C. Bauer and S. Grimme, Chem. Sci., 2017, 8, 4879.
     DOI: 10.1039/c7sc00601b
   * J. Koopman and S. Grimme, ACS Omega 2019, 4, 12, 15120-15133.
     DOI: 10.1021/acsomega.9b02011
   
   for metadynamics refer to:
   * S. Grimme, J. Chem. Theory Comput., 2019, 155, 2847-2862
     DOI: 10.1021/acs.jctc.9b00143
   
   for SPH calculations refer to:
   * S. Spicher and S. Grimme, J. Chem. Theory Comput., 2021, 17, 1701-1714
     DOI: 10.1021/acs.jctc.0c01306
   
   with help from (in alphabetical order)
   P. Atkinson, C. Bannwarth, F. Bohle, G. Brandenburg, E. Caldeweyher
   M. Checinski, S. Dohm, S. Ehlert, S. Ehrlich, I. Gerasimov, J. Koopman
   C. Lavigne, S. Lehtola, F. März, M. Müller, F. Musil, H. Neugebauer
   J. Pisarek, C. Plett, P. Pracht, J. Seibert, P. Shushkov, S. Spicher
   M. Stahn, M. Steiner, T. Strunk, J. Stückrath, T. Rose, and J. Unsleber
   
 * started run on 2022/02/02 at 11:28:27.482     

           -------------------------------------------------
          |                Calculation Setup                |
           -------------------------------------------------

          program call               : /ihome/ghutchison/oda6/xtb/xtb-641/bin/xtb ../../GFN2_output/39_130_1.mol --sp --alpb hexane
          hostname                   : smp-n98
          coordinate file            : ../../GFN2_output/39_130_1.mol
          omp threads                :                     8
          number of atoms            :                   108
          number of electrons        :                   346
          charge                     :                     0
          spin                       :                   0.0
          first test random number   :      0.82816435973810

   ID    Z sym.   atoms
    1    6 C      1-3, 5-13, 15, 17-27, 29-33, 37, 38, 40-44, 46, 47, 49, 50,
                  52-58, 60-62, 64-69, 71
    2    8 O      4, 59
    3    7 N      14, 16, 28, 34, 36, 48, 51, 70, 72
    4   16 S      35, 39, 45
    5   35 Br     63
    6    1 H      73-108

           -------------------------------------------------
          |                 G F N 2 - x T B                 |
           -------------------------------------------------

        Reference                      10.1021/acs.jctc.8b01176
      * Hamiltonian:
        H0-scaling (s, p, d)           1.850000    2.230000    2.230000
        zeta-weighting                 0.500000
      * Dispersion:
        s8                             2.700000
        a1                             0.520000
        a2                             5.000000
        s9                             5.000000
      * Repulsion:
        kExp                           1.500000    1.000000
        rExp                           1.000000
      * Coulomb:
        alpha                          2.000000
        third order                    shell-resolved
        anisotropic                    true
        a3                             3.000000
        a5                             4.000000
        cn-shift                       1.200000
        cn-exp                         4.000000
        max-rad                        5.000000

      * Solvation model:               ALPB
        Solvent                        hexane
        Parameter file                 internal GFN2-xTB/ALPB
        Dielectric constant                1.8800E+00
        Reference state                gsolv [1 M gas/solution]
        Free energy shift                  4.8134E-03 Eh       3.0204E+00 kcal/mol
        Temperature                        2.9815E+02 K
        Density                            6.6000E-01 kg/L
        Solvent mass                       8.6180E+01 g/mol
        Interaction kernel             P16
        Born radius scaling (c1)           1.1040E+00
        Born radii integrator          GBOBC
        Born offset                        0.0000E+00 a0       0.0000E+00 AA
        H-bond correction              false
        Ion screening                  false
        Surface tension                    1.0000E-05 Eh       1.5569E+01 dyn/cm
        Grid points                               230 per atom

          ...................................................
          :                      SETUP                      :
          :.................................................:
          :  # basis functions                 348          :
          :  # atomic orbitals                 344          :
          :  # shells                          184          :
          :  # electrons                       346          :
          :  max. iterations                   250          :
          :  Hamiltonian                  GFN2-xTB          :
          :  restarted?                      false          :
          :  GBSA solvation                   true          :
          :  PC potential                    false          :
          :  electronic temp.          300.0000000     K    :
          :  accuracy                    1.0000000          :
          :  -> integral cutoff          0.2500000E+02      :
          :  -> integral neglect         0.1000000E-07      :
          :  -> SCF convergence          0.1000000E-05 Eh   :
          :  -> wf. convergence          0.1000000E-03 e    :
          :  Broyden damping             0.4000000          :
          ...................................................

 iter      E             dE          RMSdq      gap      omega  full diag
   1   -191.4149757 -0.191415E+03  0.474E+00    1.30       0.0  T
   2   -191.6131081 -0.198132E+00  0.290E+00    0.90       1.0  T
   3   -191.5619049  0.512032E-01  0.146E+00    1.07       1.0  T
   4   -191.6651167 -0.103212E+00  0.508E-01    0.97       1.0  T
   5   -191.6813305 -0.162138E-01  0.173E-01    0.87       1.0  T
   6   -191.6823045 -0.974030E-03  0.104E-01    0.92       1.0  T
   7   -191.6826257 -0.321217E-03  0.531E-02    0.90       1.0  T
   8   -191.6826871 -0.614221E-04  0.372E-02    0.91       1.0  T
   9   -191.6827059 -0.188030E-04  0.269E-02    0.90       1.0  T
  10   -191.6827182 -0.122922E-04  0.146E-02    0.90       1.0  T
  11   -191.6827251 -0.684334E-05  0.770E-03    0.90       1.2  T
  12   -191.6827261 -0.106717E-05  0.335E-03    0.90       2.9  T
  13   -191.6827266 -0.426009E-06  0.155E-03    0.90       6.2  T
  14   -191.6827266 -0.740902E-07  0.773E-04    0.90      12.5  T
  15   -191.6827267 -0.170692E-07  0.392E-04    0.90      24.5  T

   *** convergence criteria satisfied after 15 iterations ***

         #    Occupation            Energy/Eh            Energy/eV
      -------------------------------------------------------------
         1        2.0000           -0.8546700             -23.2568
       ...           ...                  ...                  ...
       167        2.0000           -0.4108384             -11.1795
       168        2.0000           -0.3989048             -10.8548
       169        2.0000           -0.3942916             -10.7292
       170        2.0000           -0.3927852             -10.6882
       171        2.0000           -0.3893178             -10.5939
       172        2.0000           -0.3783329             -10.2950
       173        2.0000           -0.3709071             -10.0929 (HOMO)
       174                         -0.3378818              -9.1942 (LUMO)
       175                         -0.3273631              -8.9080
       176                         -0.3217521              -8.7553
       177                         -0.3116066              -8.4792
       178                         -0.2983704              -8.1191
       ...                                ...                  ...
       344                          1.1592993              31.5461
      -------------------------------------------------------------
                  HL-Gap            0.0330253 Eh            0.8987 eV
             Fermi-level           -0.3543943 Eh           -9.6436 eV

 SCC (total)                   0 d,  0 h,  0 min,  0.264 sec
 SCC setup                      ...        0 min,  0.003 sec (  1.096%)
 Dispersion                     ...        0 min,  0.004 sec (  1.621%)
 classical contributions        ...        0 min,  0.000 sec (  0.046%)
 integral evaluation            ...        0 min,  0.013 sec (  4.858%)
 iterations                     ...        0 min,  0.209 sec ( 79.367%)
 molecular gradient             ...        0 min,  0.033 sec ( 12.638%)
 printout                       ...        0 min,  0.001 sec (  0.341%)

         :::::::::::::::::::::::::::::::::::::::::::::::::::::
         ::                     SUMMARY                     ::
         :::::::::::::::::::::::::::::::::::::::::::::::::::::
         :: total energy            -188.671653494265 Eh    ::
         :: total w/o Gsasa/hb      -188.608859214164 Eh    ::
         :: gradient norm              0.021540770527 Eh/a0 ::
         :: HOMO-LUMO gap              0.898664161527 eV    ::
         ::.................................................::
         :: SCC energy              -191.682726664583 Eh    ::
         :: -> isotropic ES            0.143756906017 Eh    ::
         :: -> anisotropic ES          0.006369148567 Eh    ::
         :: -> anisotropic XC          0.129951186015 Eh    ::
         :: -> dispersion             -0.172843659856 Eh    ::
         :: -> Gsolv                  -0.085615640339 Eh    ::
         ::    -> Gelec               -0.022821360238 Eh    ::
         ::    -> Gsasa               -0.067607635921 Eh    ::
         ::    -> Ghb                  0.000000000000 Eh    ::
         ::    -> Gshift               0.004813355820 Eh    ::
         :: repulsion energy           3.011381718617 Eh    ::
         :: add. restraining           0.000000000000 Eh    ::
         :: total charge               0.000000000022 e     ::
         :::::::::::::::::::::::::::::::::::::::::::::::::::::

           -------------------------------------------------
          |                Property Printout                |
           -------------------------------------------------

    * Orbital Energies and Occupations

         #    Occupation            Energy/Eh            Energy/eV
      -------------------------------------------------------------
         1        2.0000           -0.8546700             -23.2568
       ...           ...                  ...                  ...
       161        2.0000           -0.4211904             -11.4612
       162        2.0000           -0.4189421             -11.4000
       163        2.0000           -0.4178859             -11.3713
       164        2.0000           -0.4172929             -11.3551
       165        2.0000           -0.4145037             -11.2792
       166        2.0000           -0.4121710             -11.2157
       167        2.0000           -0.4108384             -11.1795
       168        2.0000           -0.3989048             -10.8548
       169        2.0000           -0.3942916             -10.7292
       170        2.0000           -0.3927852             -10.6882
       171        2.0000           -0.3893178             -10.5939
       172        2.0000           -0.3783329             -10.2950
       173        2.0000           -0.3709071             -10.0929 (HOMO)
       174                         -0.3378818              -9.1942 (LUMO)
       175                         -0.3273631              -8.9080
       176                         -0.3217521              -8.7553
       177                         -0.3116066              -8.4792
       178                         -0.2983704              -8.1191
       179                         -0.2798991              -7.6164
       180                         -0.2614055              -7.1132
       181                         -0.2519428              -6.8557
       182                         -0.2491040              -6.7785
       183                         -0.2433673              -6.6224
       184                         -0.2423348              -6.5943
       ...                                ...                  ...
       344                          1.1592993              31.5461
      -------------------------------------------------------------
                  HL-Gap            0.0330253 Eh            0.8987 eV
             Fermi-level           -0.3543943 Eh           -9.6436 eV

     #   Z          covCN         q      C6AA      α(0)
     1   6 C        2.898    -0.019    28.483     8.751
     2   6 C        3.000    -0.043    29.058     8.843
     3   6 C        2.868     0.232    23.156     7.888
     4   8 O        0.856    -0.431    22.304     6.332
     5   6 C        3.061    -0.022    28.502     8.755
     6   6 C        2.904    -0.023    28.584     8.766
     7   6 C        3.259     0.009    26.665     8.345
     8   6 C        3.256     0.011    26.677     8.353
     9   6 C        2.904    -0.035    28.878     8.811
    10   6 C        3.044     0.004    27.893     8.662
    11   6 C        3.023     0.034    27.205     8.556
    12   6 C        2.947     0.001    28.005     8.680
    13   6 C        1.949     0.133    27.839     8.521
    14   7 N        0.911    -0.276    27.123     7.532
    15   6 C        1.948     0.131    27.878     8.527
    16   7 N        0.911    -0.284    27.323     7.560
    17   6 C        4.162    -0.022    20.883     6.490
    18   6 C        4.013    -0.015    20.769     6.474
    19   6 C        2.995    -0.042    29.022     8.837
    20   6 C        2.995    -0.043    29.045     8.841
    21   6 C        4.013    -0.015    20.766     6.474
    22   6 C        3.915    -0.059    21.581     6.603
    23   6 C        4.160    -0.022    20.885     6.491
    24   6 C        3.115     0.043    26.889     8.494
    25   6 C        2.998    -0.069    29.700     8.940
    26   6 C        3.226     0.025    26.682     8.392
    27   6 C        3.200     0.031    26.765     8.431
    28   7 N        2.808    -0.012    21.493     6.886
    29   6 C        3.739    -0.012    20.877     6.520
    30   6 C        3.752    -0.112    22.694     6.793
    31   6 C        3.055    -0.046    29.081     8.844
    32   6 C        3.326     0.069    24.309     7.834
    33   6 C        3.338     0.070    24.062     7.763
    34   7 N        1.853    -0.297    28.546     7.919
    35  16 S        2.670     0.333   128.194    19.056
    36   7 N        1.854    -0.303    28.698     7.940
    37   6 C        3.080    -0.037    28.822     8.801
    38   6 C        3.107     0.006    27.746     8.631
    39  16 S        2.178    -0.027   142.188    20.069
    40   6 C        3.202     0.011    27.192     8.496
    41   6 C        3.093     0.004    27.828     8.646
    42   6 C        3.803    -0.051    21.490     6.600
    43   6 C        3.752    -0.102    22.501     6.764
    44   6 C        2.997     0.015    27.667     8.628
    45  16 S        2.288    -0.019   141.842    20.045
    46   6 C        3.117     0.013    27.562     8.599
    47   6 C        3.241     0.031    26.403     8.330
    48   7 N        2.797    -0.029    21.804     6.935
    49   6 C        3.082     0.031    27.214     8.552
    50   6 C        3.090     0.035    27.124     8.537
    51   7 N        2.784    -0.046    22.131     6.987
    52   6 C        3.741    -0.004    20.722     6.495
    53   6 C        3.752    -0.117    22.803     6.810
    54   6 C        3.740    -0.003    20.712     6.493
    55   6 C        3.751    -0.122    22.891     6.823
    56   6 C        2.955    -0.006    28.181     8.707
    57   6 C        3.009    -0.037    28.891     8.817
    58   6 C        2.871     0.235    23.094     7.878
    59   8 O        0.856    -0.400    21.684     6.243
    60   6 C        3.047    -0.014    28.317     8.728
    61   6 C        2.986    -0.019    28.479     8.754
    62   6 C        2.919     0.095    25.901     8.346
    63  35 Br       1.072    -0.154   189.295    22.184
    64   6 C        2.996    -0.025    28.615     8.775
    65   6 C        2.915    -0.024    28.609     8.771
    66   6 C        3.035     0.009    27.772     8.644
    67   6 C        3.021     0.041    27.047     8.531
    68   6 C        2.948     0.013    27.726     8.636
    69   6 C        1.932     0.134    27.807     8.516
    70   7 N        0.911    -0.269    26.952     7.509
    71   6 C        1.932     0.131    27.875     8.526
    72   7 N        0.911    -0.261    26.765     7.482
    73   1 H        0.926     0.075     2.029     2.227
    74   1 H        0.926     0.059     2.214     2.327
    75   1 H        0.926     0.056     2.245     2.343
    76   1 H        0.925     0.044     2.396     2.421
    77   1 H        0.925     0.040     2.453     2.449
    78   1 H        0.926     0.038     2.477     2.461
    79   1 H        0.926     0.037     2.487     2.466
    80   1 H        0.925     0.038     2.477     2.461
    81   1 H        0.925     0.040     2.451     2.448
    82   1 H        0.925     0.035     2.510     2.478
    83   1 H        0.925     0.043     2.403     2.424
    84   1 H        0.927     0.081     1.971     2.196
    85   1 H        0.924     0.067     2.121     2.277
    86   1 H        0.924     0.087     1.907     2.159
    87   1 H        0.925     0.057     2.234     2.337
    88   1 H        0.925     0.048     2.342     2.393
    89   1 H        0.925     0.044     2.402     2.424
    90   1 H        0.924     0.039     2.468     2.457
    91   1 H        0.924     0.059     2.206     2.323
    92   1 H        0.925     0.047     2.362     2.403
    93   1 H        0.925     0.035     2.521     2.483
    94   1 H        0.925     0.057     2.234     2.337
    95   1 H        0.925     0.073     2.053     2.241
    96   1 H        0.924     0.058     2.223     2.332
    97   1 H        0.925     0.062     2.178     2.308
    98   1 H        0.925     0.053     2.279     2.361
    99   1 H        0.925     0.043     2.406     2.426
   100   1 H        0.924     0.063     2.163     2.300
   101   1 H        0.924     0.070     2.086     2.258
   102   1 H        0.925     0.059     2.207     2.323
   103   1 H        0.925     0.053     2.288     2.365
   104   1 H        0.925     0.065     2.138     2.287
   105   1 H        0.925     0.084     1.934     2.175
   106   1 H        0.926     0.081     1.964     2.191
   107   1 H        0.926     0.077     2.009     2.216
   108   1 H        0.926     0.071     2.070     2.250

 Mol. C6AA /au·bohr⁶  :     200680.691947
 Mol. C8AA /au·bohr⁸  :    5568864.983210
 Mol. α(0) /au        :        707.515645


Wiberg/Mayer (AO) data.
largest (>0.10) Wiberg bond orders for each atom

 ---------------------------------------------------------------------------
     #   Z sym  total        # sym  WBO       # sym  WBO       # sym  WBO
 ---------------------------------------------------------------------------
     1   6 C    3.942 --     2 C    1.496    24 C    1.283    73 H    0.933
     2   6 C    3.949 --     1 C    1.496    11 C    1.148     3 C    1.050
     3   6 C    3.914 --     4 O    1.713     2 C    1.050     5 C    1.027
     4   8 O    2.004 --     3 C    1.713
     5   6 C    3.973 --     6 C    1.380    10 C    1.313     3 C    1.027
     6   6 C    3.980 --     7 C    1.443     5 C    1.380    74 H    0.964
     7   6 C    3.955 --     6 C    1.443     8 C    1.325    23 C    0.992
     8   6 C    3.966 --     9 C    1.450     7 C    1.325    17 C    0.993
     9   6 C    3.977 --     8 C    1.450    10 C    1.364    75 H    0.958
    10   6 C    3.977 --     9 C    1.364     5 C    1.313    11 C    1.089
    11   6 C    3.966 --    12 C    1.465     2 C    1.148    10 C    1.089
    12   6 C    3.948 --    11 C    1.465    15 C    1.104    13 C    1.101
    13   6 C    3.941 --    14 N    2.749    12 C    1.101
    14   7 N    2.957 --    13 C    2.749
    15   6 C    3.941 --    16 N    2.733    12 C    1.104
    16   7 N    2.948 --    15 C    2.733
    17   6 C    3.985 --     8 C    0.993    23 C    0.975    76 H    0.961
                            18 C    0.951
    18   6 C    3.989 --    19 C    1.004    22 C    0.989    77 H    0.971
                            17 C    0.951
    19   6 C    3.982 --    20 C    1.923    18 C    1.004    78 H    0.971
    20   6 C    3.982 --    19 C    1.923    21 C    1.004    79 H    0.971
    21   6 C    3.989 --    20 C    1.004    22 C    0.989    80 H    0.971
                            23 C    0.951
    22   6 C    3.994 --    21 C    0.989    18 C    0.989    81 H    0.978
                            82 H    0.974
    23   6 C    3.984 --     7 C    0.992    17 C    0.975    83 H    0.961
                            21 C    0.951
    24   6 C    3.925 --    25 C    1.317     1 C    1.283    28 N    1.128
    25   6 C    3.945 --    26 C    1.400    24 C    1.317    84 H    0.957
    26   6 C    3.935 --    25 C    1.400    27 C    1.209    51 N    1.128
    27   6 C    3.937 --    28 N    1.241    31 C    1.232    26 C    1.209
    28   7 N    3.613 --    27 C    1.241    24 C    1.128    29 C    0.984
    29   6 C    3.958 --    30 C    1.005    28 N    0.984    85 H    0.961
                            86 H    0.959
    30   6 C    3.991 --    29 C    1.005    88 H    0.987    89 H    0.985
                            87 H    0.983
    31   6 C    3.949 --    50 C    1.272    27 C    1.232    32 C    1.183
    32   6 C    3.970 --    36 N    1.418    31 C    1.183    33 C    1.161
                            35 S    0.102
    33   6 C    3.971 --    34 N    1.427    37 C    1.173    32 C    1.161
                            35 S    0.106
    34   7 N    3.062 --    33 C    1.427    35 S    1.387    36 N    0.142
    35  16 S    3.089 --    34 N    1.387    36 N    1.372    33 C    0.106
                            32 C    0.102
    36   7 N    3.059 --    32 C    1.418    35 S    1.372    34 N    0.142
    37   6 C    3.947 --    38 C    1.278    49 C    1.263    33 C    1.173
    38   6 C    3.920 --    47 C    1.297    37 C    1.278    39 S    1.112
    39  16 S    2.523 --    38 C    1.112    40 C    1.091
    40   6 C    3.929 --    41 C    1.316    46 C    1.313    39 S    1.091
    41   6 C    3.970 --    44 C    1.400    40 C    1.316    42 C    1.013
    42   6 C    3.994 --    41 C    1.013    43 C    1.002    90 H    0.970
                            91 H    0.956
    43   6 C    3.990 --    42 C    1.002    92 H    0.985    93 H    0.982
                            94 H    0.979
    44   6 C    3.925 --    41 C    1.400    56 C    1.246    45 S    1.068
    45  16 S    2.557 --    46 C    1.136    44 C    1.068
    46   6 C    3.934 --    40 C    1.313    47 C    1.257    45 S    1.136
    47   6 C    3.938 --    38 C    1.297    46 C    1.257    48 N    1.158
    48   7 N    3.557 --    49 C    1.175    47 C    1.158    54 C    0.976
    49   6 C    3.931 --    37 C    1.263    50 C    1.230    48 N    1.175
    50   6 C    3.918 --    31 C    1.272    49 C    1.230    51 N    1.170
    51   7 N    3.520 --    50 C    1.170    26 C    1.128    52 C    0.976
    52   6 C    3.961 --    53 C    1.007    51 N    0.976    96 H    0.968
                            95 H    0.960
    53   6 C    3.987 --    52 C    1.007    99 H    0.987    98 H    0.983
                            97 H    0.982
    54   6 C    3.959 --    55 C    1.009    48 N    0.976   101 H    0.967
                           100 H    0.964
    55   6 C    3.985 --    54 C    1.009   102 H    0.982   103 H    0.977
                           104 H    0.976
    56   6 C    3.939 --    57 C    1.533    44 C    1.246   105 H    0.945
    57   6 C    3.957 --    56 C    1.533    67 C    1.139    58 C    1.026
    58   6 C    3.913 --    59 O    1.755    57 C    1.026    60 C    1.010
    59   8 O    2.028 --    58 C    1.755
    60   6 C    3.975 --    61 C    1.425    66 C    1.293    58 C    1.010
    61   6 C    3.979 --    60 C    1.425    62 C    1.389   106 H    0.962
    62   6 C    3.924 --    64 C    1.403    61 C    1.389    63 Br   0.995
    63  35 Br   1.128 --    62 C    0.995
    64   6 C    3.977 --    65 C    1.431    62 C    1.403   107 H    0.965
    65   6 C    3.976 --    64 C    1.431    66 C    1.400   108 H    0.960
    66   6 C    3.984 --    65 C    1.400    60 C    1.293    67 C    1.079
    67   6 C    3.971 --    68 C    1.473    57 C    1.139    66 C    1.079
    68   6 C    3.966 --    67 C    1.473    69 C    1.101    71 C    1.100
    69   6 C    3.943 --    70 N    2.758    68 C    1.101
    70   7 N    2.972 --    69 C    2.758
    71   6 C    3.944 --    72 N    2.760    68 C    1.100
    72   7 N    2.963 --    71 C    2.760
    73   1 H    0.993 --     1 C    0.933
    74   1 H    0.996 --     6 C    0.964
    75   1 H    0.996 --     9 C    0.958
    76   1 H    0.997 --    17 C    0.961
    77   1 H    0.998 --    18 C    0.971
    78   1 H    0.998 --    19 C    0.971
    79   1 H    0.998 --    20 C    0.971
    80   1 H    0.998 --    21 C    0.971
    81   1 H    0.998 --    22 C    0.978
    82   1 H    0.999 --    22 C    0.974
    83   1 H    0.996 --    23 C    0.961
    84   1 H    0.993 --    25 C    0.957
    85   1 H    0.994 --    29 C    0.961
    86   1 H    0.992 --    29 C    0.959
    87   1 H    0.996 --    30 C    0.983
    88   1 H    0.998 --    30 C    0.987
    89   1 H    0.998 --    30 C    0.985
    90   1 H    0.998 --    42 C    0.970
    91   1 H    0.996 --    42 C    0.956
    92   1 H    0.997 --    43 C    0.985
    93   1 H    0.999 --    43 C    0.982
    94   1 H    0.997 --    43 C    0.979
    95   1 H    0.994 --    52 C    0.960
    96   1 H    0.994 --    52 C    0.968
    97   1 H    0.996 --    53 C    0.982
    98   1 H    0.996 --    53 C    0.983
    99   1 H    0.998 --    53 C    0.987
   100   1 H    0.994 --    54 C    0.964
   101   1 H    0.994 --    54 C    0.967
   102   1 H    0.996 --    55 C    0.982
   103   1 H    0.997 --    55 C    0.977
   104   1 H    0.996 --    55 C    0.976
   105   1 H    0.989 --    56 C    0.945
   106   1 H    0.993 --    61 C    0.962
   107   1 H    0.993 --    64 C    0.965
   108   1 H    0.994 --    65 C    0.960
 ---------------------------------------------------------------------------

Topologies differ in bond orders
Writing corrected topology to xtbtopo.mol

molecular dipole:
                 x           y           z       tot (Debye)
 q only:        0.638       0.613       1.295
   full:        0.784       1.082       1.379       4.882
molecular quadrupole (traceless):
                xx          xy          yy          xz          yz          zz
 q only:       23.638      53.842     -51.240      -0.458      71.995      27.602
  q+dip:       20.822      58.269     -59.245      -7.447      75.092      38.423
   full:       24.001      59.104     -58.995     -13.821      79.006      34.994


           -------------------------------------------------
          | TOTAL ENERGY             -188.671653494265 Eh   |
          | GRADIENT NORM               0.021540770527 Eh/α |
          | HOMO-LUMO GAP               0.898664161527 eV   |
           -------------------------------------------------

------------------------------------------------------------------------
 * finished run on 2022/02/02 at 11:28:27.808     
------------------------------------------------------------------------
 total:
 * wall-time:     0 d,  0 h,  0 min,  0.326 sec
 *  cpu-time:     0 d,  0 h,  0 min,  2.526 sec
 * ratio c/w:     7.745 speedup
 SCF:
 * wall-time:     0 d,  0 h,  0 min,  0.265 sec
 *  cpu-time:     0 d,  0 h,  0 min,  2.118 sec
 * ratio c/w:     7.977 speedup

