      -----------------------------------------------------------      
     |                   =====================                   |     
     |                           x T B                           |     
     |                   =====================                   |     
     |                         S. Grimme                         |     
     |          Mulliken Center for Theoretical Chemistry        |     
     |                    University of Bonn                     |     
      -----------------------------------------------------------      

   * xtb version 6.4.1 (unknown) compiled by 'oda6@login1.crc.pitt.edu' on 2021-06-25

   xtb is free software: you can redistribute it and/or modify it under
   the terms of the GNU Lesser General Public License as published by
   the Free Software Foundation, either version 3 of the License, or
   (at your option) any later version.
   
   xtb is distributed in the hope that it will be useful,
   but WITHOUT ANY WARRANTY; without even the implied warranty of
   MERCHANTABILITY or FITNESS FOR A PARTICULAR PURPOSE.  See the
   GNU Lesser General Public License for more details.
   
   Cite this work as:
   * C. Bannwarth, E. Caldeweyher, S. Ehlert, A. Hansen, P. Pracht,
     J. Seibert, S. Spicher, S. Grimme, WIREs Comput. Mol. Sci., 2020, 11,
     e01493. DOI: 10.1002/wcms.1493
   
   for GFN2-xTB:
   * C. Bannwarth, S. Ehlert and S. Grimme., J. Chem. Theory Comput., 2019,
     15, 1652-1671. DOI: 10.1021/acs.jctc.8b01176
   for GFN1-xTB:
   * S. Grimme, C. Bannwarth, P. Shushkov, J. Chem. Theory Comput., 2017,
     13, 1989-2009. DOI: 10.1021/acs.jctc.7b00118
   for GFN0-xTB:
   * P. Pracht, E. Caldeweyher, S. Ehlert, S. Grimme, ChemRxiv, 2019, preprint.
     DOI: 10.26434/chemrxiv.8326202.v1
   for GFN-FF:
   * S. Spicher and S. Grimme, Angew. Chem. Int. Ed., 2020, 59, 15665-15673.
     DOI: 10.1002/anie.202004239
   
   for DFT-D4:
   * E. Caldeweyher, C. Bannwarth and S. Grimme, J. Chem. Phys., 2017,
     147, 034112. DOI: 10.1063/1.4993215
   * E. Caldeweyher, S. Ehlert, A. Hansen, H. Neugebauer, S. Spicher,
     C. Bannwarth and S. Grimme, J. Chem. Phys., 2019, 150, 154122.
     DOI: 10.1063/1.5090222
   * E. Caldeweyher, J.-M. Mewes, S. Ehlert and S. Grimme, Phys. Chem. Chem. Phys.
     2020, 22, 8499-8512. DOI: 10.1039/D0CP00502A
   
   for sTDA-xTB:
   * S. Grimme and C. Bannwarth, J. Chem. Phys., 2016, 145, 054103.
     DOI: 10.1063/1.4959605
   
   in the mass-spec context:
   * V. Asgeirsson, C. Bauer and S. Grimme, Chem. Sci., 2017, 8, 4879.
     DOI: 10.1039/c7sc00601b
   * J. Koopman and S. Grimme, ACS Omega 2019, 4, 12, 15120-15133.
     DOI: 10.1021/acsomega.9b02011
   
   for metadynamics refer to:
   * S. Grimme, J. Chem. Theory Comput., 2019, 155, 2847-2862
     DOI: 10.1021/acs.jctc.9b00143
   
   for SPH calculations refer to:
   * S. Spicher and S. Grimme, J. Chem. Theory Comput., 2021, 17, 1701-1714
     DOI: 10.1021/acs.jctc.0c01306
   
   with help from (in alphabetical order)
   P. Atkinson, C. Bannwarth, F. Bohle, G. Brandenburg, E. Caldeweyher
   M. Checinski, S. Dohm, S. Ehlert, S. Ehrlich, I. Gerasimov, J. Koopman
   C. Lavigne, S. Lehtola, F. März, M. Müller, F. Musil, H. Neugebauer
   J. Pisarek, C. Plett, P. Pracht, J. Seibert, P. Shushkov, S. Spicher
   M. Stahn, M. Steiner, T. Strunk, J. Stückrath, T. Rose, and J. Unsleber
   
 * started run on 2022/02/11 at 07:41:15.697     

           -------------------------------------------------
          |                Calculation Setup                |
           -------------------------------------------------

          program call               : /ihome/ghutchison/oda6/xtb/xtb-641/bin/xtb ../../GFN2_output/39_34_36.mol --sp --alpb hexane
          hostname                   : smp-n28
          coordinate file            : ../../GFN2_output/39_34_36.mol
          omp threads                :                     8
          number of atoms            :                   116
          number of electrons        :                   378
          charge                     :                     0
          spin                       :                   0.0
          first test random number   :      0.25231648164191

   ID    Z sym.   atoms
    1    6 C      1-3, 5-13, 15, 17-25, 27-29, 31-34, 38, 39, 41, 42, 44-46,
                  48, 49, 51, 52, 54, 55, 57-63, 65-69, 71-75, 77
    2    8 O      4, 26, 43, 64, 70
    3    7 N      14, 16, 35, 37, 50, 53, 76, 78
    4   16 S      30, 36, 40, 47, 56
    5    1 H      79-116

           -------------------------------------------------
          |                 G F N 2 - x T B                 |
           -------------------------------------------------

        Reference                      10.1021/acs.jctc.8b01176
      * Hamiltonian:
        H0-scaling (s, p, d)           1.850000    2.230000    2.230000
        zeta-weighting                 0.500000
      * Dispersion:
        s8                             2.700000
        a1                             0.520000
        a2                             5.000000
        s9                             5.000000
      * Repulsion:
        kExp                           1.500000    1.000000
        rExp                           1.000000
      * Coulomb:
        alpha                          2.000000
        third order                    shell-resolved
        anisotropic                    true
        a3                             3.000000
        a5                             4.000000
        cn-shift                       1.200000
        cn-exp                         4.000000
        max-rad                        5.000000

      * Solvation model:               ALPB
        Solvent                        hexane
        Parameter file                 internal GFN2-xTB/ALPB
        Dielectric constant                1.8800E+00
        Reference state                gsolv [1 M gas/solution]
        Free energy shift                  4.8134E-03 Eh       3.0204E+00 kcal/mol
        Temperature                        2.9815E+02 K
        Density                            6.6000E-01 kg/L
        Solvent mass                       8.6180E+01 g/mol
        Interaction kernel             P16
        Born radius scaling (c1)           1.1040E+00
        Born radii integrator          GBOBC
        Born offset                        0.0000E+00 a0       0.0000E+00 AA
        H-bond correction              false
        Ion screening                  false
        Surface tension                    1.0000E-05 Eh       1.5569E+01 dyn/cm
        Grid points                               230 per atom

          ...................................................
          :                      SETUP                      :
          :.................................................:
          :  # basis functions                 380          :
          :  # atomic orbitals                 375          :
          :  # shells                          199          :
          :  # electrons                       378          :
          :  max. iterations                   250          :
          :  Hamiltonian                  GFN2-xTB          :
          :  restarted?                      false          :
          :  GBSA solvation                   true          :
          :  PC potential                    false          :
          :  electronic temp.          300.0000000     K    :
          :  accuracy                    1.0000000          :
          :  -> integral cutoff          0.2500000E+02      :
          :  -> integral neglect         0.1000000E-07      :
          :  -> SCF convergence          0.1000000E-05 Eh   :
          :  -> wf. convergence          0.1000000E-03 e    :
          :  Broyden damping             0.4000000          :
          ...................................................

 iter      E             dE          RMSdq      gap      omega  full diag
   1   -210.6347126 -0.210635E+03  0.501E+00    1.46       0.0  T
   2   -210.8393685 -0.204656E+00  0.295E+00    1.13       1.0  T
   3   -210.7519155  0.874530E-01  0.159E+00    1.13       1.0  T
   4   -210.8974683 -0.145553E+00  0.561E-01    1.22       1.0  T
   5   -210.9195373 -0.220690E-01  0.168E-01    1.13       1.0  T
   6   -210.9207489 -0.121162E-02  0.795E-02    1.18       1.0  T
   7   -210.9209419 -0.193058E-03  0.287E-02    1.17       1.0  T
   8   -210.9209675 -0.255871E-04  0.132E-02    1.17       1.0  T
   9   -210.9209722 -0.471653E-05  0.674E-03    1.17       1.4  T
  10   -210.9209735 -0.122850E-05  0.335E-03    1.17       2.8  T
  11   -210.9209741 -0.609407E-06  0.140E-03    1.17       6.6  T
  12   -210.9209741 -0.274876E-07  0.752E-04    1.17      12.3  T
  13   -210.9209741 -0.111974E-07  0.368E-04    1.17      25.2  T

   *** convergence criteria satisfied after 13 iterations ***

         #    Occupation            Energy/Eh            Energy/eV
      -------------------------------------------------------------
         1        2.0000           -0.7559311             -20.5699
       ...           ...                  ...                  ...
       183        2.0000           -0.4016191             -10.9286
       184        2.0000           -0.3986663             -10.8483
       185        2.0000           -0.3981299             -10.8337
       186        2.0000           -0.3873617             -10.5406
       187        2.0000           -0.3822916             -10.4027
       188        2.0000           -0.3747306             -10.1969
       189        2.0000           -0.3704313             -10.0799 (HOMO)
       190                         -0.3274668              -8.9108 (LUMO)
       191                         -0.3231158              -8.7924
       192                         -0.3164842              -8.6120
       193                         -0.3129266              -8.5152
       194                         -0.2972042              -8.0873
       ...                                ...                  ...
       375                          1.1577336              31.5035
      -------------------------------------------------------------
                  HL-Gap            0.0429645 Eh            1.1691 eV
             Fermi-level           -0.3489488 Eh           -9.4954 eV

 SCC (total)                   0 d,  0 h,  0 min,  0.283 sec
 SCC setup                      ...        0 min,  0.003 sec (  0.895%)
 Dispersion                     ...        0 min,  0.004 sec (  1.381%)
 classical contributions        ...        0 min,  0.000 sec (  0.054%)
 integral evaluation            ...        0 min,  0.016 sec (  5.508%)
 iterations                     ...        0 min,  0.217 sec ( 76.808%)
 molecular gradient             ...        0 min,  0.042 sec ( 14.918%)
 printout                       ...        0 min,  0.001 sec (  0.407%)

         :::::::::::::::::::::::::::::::::::::::::::::::::::::
         ::                     SUMMARY                     ::
         :::::::::::::::::::::::::::::::::::::::::::::::::::::
         :: total energy            -207.791258812092 Eh    ::
         :: total w/o Gsasa/hb      -207.723724691142 Eh    ::
         :: gradient norm              0.021402733994 Eh/a0 ::
         :: HOMO-LUMO gap              1.169123336242 eV    ::
         ::.................................................::
         :: SCC energy              -210.920974114110 Eh    ::
         :: -> isotropic ES            0.180776131754 Eh    ::
         :: -> anisotropic ES          0.010131810905 Eh    ::
         :: -> anisotropic XC          0.124232638829 Eh    ::
         :: -> dispersion             -0.187502541599 Eh    ::
         :: -> Gsolv                  -0.093899564852 Eh    ::
         ::    -> Gelec               -0.026365443902 Eh    ::
         ::    -> Gsasa               -0.072347476770 Eh    ::
         ::    -> Ghb                  0.000000000000 Eh    ::
         ::    -> Gshift               0.004813355820 Eh    ::
         :: repulsion energy           3.129713208081 Eh    ::
         :: add. restraining           0.000000000000 Eh    ::
         :: total charge               0.000000000000 e     ::
         :::::::::::::::::::::::::::::::::::::::::::::::::::::

           -------------------------------------------------
          |                Property Printout                |
           -------------------------------------------------

    * Orbital Energies and Occupations

         #    Occupation            Energy/Eh            Energy/eV
      -------------------------------------------------------------
         1        2.0000           -0.7559311             -20.5699
       ...           ...                  ...                  ...
       177        2.0000           -0.4141525             -11.2697
       178        2.0000           -0.4121789             -11.2160
       179        2.0000           -0.4094592             -11.1420
       180        2.0000           -0.4056073             -11.0371
       181        2.0000           -0.4046095             -11.0100
       182        2.0000           -0.4037279             -10.9860
       183        2.0000           -0.4016191             -10.9286
       184        2.0000           -0.3986663             -10.8483
       185        2.0000           -0.3981299             -10.8337
       186        2.0000           -0.3873617             -10.5406
       187        2.0000           -0.3822916             -10.4027
       188        2.0000           -0.3747306             -10.1969
       189        2.0000           -0.3704313             -10.0799 (HOMO)
       190                         -0.3274668              -8.9108 (LUMO)
       191                         -0.3231158              -8.7924
       192                         -0.3164842              -8.6120
       193                         -0.3129266              -8.5152
       194                         -0.2972042              -8.0873
       195                         -0.2713827              -7.3847
       196                         -0.2642107              -7.1895
       197                         -0.2464471              -6.7062
       198                         -0.2456667              -6.6849
       199                         -0.2426812              -6.6037
       200                         -0.2411314              -6.5615
       ...                                ...                  ...
       375                          1.1577336              31.5035
      -------------------------------------------------------------
                  HL-Gap            0.0429645 Eh            1.1691 eV
             Fermi-level           -0.3489488 Eh           -9.4954 eV

     #   Z          covCN         q      C6AA      α(0)
     1   6 C        2.920    -0.014    28.361     8.733
     2   6 C        3.004    -0.046    29.127     8.853
     3   6 C        2.877     0.230    23.186     7.894
     4   8 O        0.981    -0.402    21.667     6.244
     5   6 C        3.061    -0.021    28.475     8.751
     6   6 C        2.904    -0.022    28.557     8.762
     7   6 C        3.261     0.009    26.641     8.338
     8   6 C        3.257     0.011    26.645     8.345
     9   6 C        2.905    -0.034    28.849     8.807
    10   6 C        3.050     0.004    27.887     8.661
    11   6 C        3.022     0.035    27.188     8.553
    12   6 C        2.947     0.002    27.989     8.677
    13   6 C        1.952     0.133    27.824     8.518
    14   7 N        0.911    -0.273    27.056     7.523
    15   6 C        1.952     0.132    27.860     8.524
    16   7 N        0.911    -0.285    27.359     7.565
    17   6 C        4.163    -0.024    20.922     6.496
    18   6 C        4.012    -0.015    20.766     6.474
    19   6 C        2.988    -0.041    29.012     8.835
    20   6 C        2.987    -0.042    29.038     8.839
    21   6 C        4.012    -0.015    20.766     6.474
    22   6 C        3.926    -0.060    21.593     6.604
    23   6 C        4.162    -0.025    20.925     6.497
    24   6 C        2.980    -0.006    28.173     8.707
    25   6 C        2.969     0.148    24.774     8.164
    26   8 O        1.704    -0.268    18.440     5.798
    27   6 C        3.680     0.072    19.584     6.338
    28   6 C        3.750    -0.116    22.780     6.807
    29   6 C        3.182    -0.008    27.772     8.601
    30  16 S        2.165    -0.008   141.376    20.012
    31   6 C        3.098     0.007    27.742     8.632
    32   6 C        3.085    -0.036    28.794     8.796
    33   6 C        3.341     0.071    23.990     7.744
    34   6 C        3.342     0.070    23.993     7.742
    35   7 N        1.854    -0.293    28.448     7.905
    36  16 S        2.688     0.351   127.573    19.010
    37   7 N        1.854    -0.294    28.470     7.908
    38   6 C        3.085    -0.033    28.724     8.786
    39   6 C        3.097     0.004    27.813     8.643
    40  16 S        2.181     0.013   140.522    19.951
    41   6 C        3.192    -0.008    27.710     8.585
    42   6 C        2.985     0.151    24.709     8.154
    43   8 O        1.705    -0.253    18.198     5.760
    44   6 C        3.687     0.083    19.385     6.303
    45   6 C        3.751    -0.118    22.828     6.814
    46   6 C        2.983    -0.012    28.307     8.727
    47  16 S        2.270    -0.065   143.738    20.178
    48   6 C        3.120     0.014    27.536     8.594
    49   6 C        3.268     0.031    26.052     8.234
    50   7 N        2.793    -0.034    21.906     6.951
    51   6 C        3.077     0.033    27.171     8.546
    52   6 C        3.076     0.033    27.192     8.550
    53   7 N        2.799    -0.020    21.631     6.908
    54   6 C        3.255     0.028    26.296     8.294
    55   6 C        3.105    -0.000    27.902     8.655
    56  16 S        2.348    -0.009   141.429    20.016
    57   6 C        3.742    -0.004    20.725     6.495
    58   6 C        3.751    -0.123    22.918     6.827
    59   6 C        3.749    -0.011    20.832     6.510
    60   6 C        3.752    -0.112    22.700     6.794
    61   6 C        2.936    -0.012    28.312     8.727
    62   6 C        3.017    -0.040    28.982     8.831
    63   6 C        2.874     0.234    23.117     7.882
    64   8 O        0.856    -0.414    21.958     6.283
    65   6 C        3.046    -0.017    28.388     8.739
    66   6 C        2.911    -0.027    28.672     8.780
    67   6 C        2.922    -0.024    28.593     8.769
    68   6 C        2.918    -0.060    29.480     8.904
    69   6 C        2.858     0.157    24.609     8.131
    70   8 O        1.706    -0.271    18.486     5.805
    71   6 C        3.643     0.031    20.386     6.491
    72   6 C        3.040    -0.014    28.320     8.728
    73   6 C        3.020     0.045    26.973     8.519
    74   6 C        2.948     0.009    27.823     8.651
    75   6 C        1.949     0.134    27.810     8.516
    76   7 N        0.911    -0.286    27.373     7.567
    77   6 C        1.938     0.136    27.757     8.508
    78   7 N        0.911    -0.271    27.013     7.517
    79   1 H        0.926     0.073     2.052     2.240
    80   1 H        0.926     0.061     2.192     2.315
    81   1 H        0.926     0.058     2.221     2.330
    82   1 H        0.925     0.049     2.330     2.387
    83   1 H        0.925     0.039     2.457     2.451
    84   1 H        0.926     0.032     2.553     2.499
    85   1 H        0.926     0.032     2.561     2.502
    86   1 H        0.925     0.038     2.478     2.462
    87   1 H        0.925     0.041     2.429     2.437
    88   1 H        0.925     0.042     2.417     2.431
    89   1 H        0.925     0.048     2.342     2.393
    90   1 H        0.924     0.064     2.148     2.292
    91   1 H        0.924     0.075     2.034     2.230
    92   1 H        0.925     0.044     2.396     2.421
    93   1 H        0.925     0.056     2.248     2.345
    94   1 H        0.925     0.059     2.208     2.323
    95   1 H        0.924     0.050     2.326     2.385
    96   1 H        0.924     0.050     2.322     2.383
    97   1 H        0.925     0.064     2.151     2.293
    98   1 H        0.925     0.061     2.192     2.315
    99   1 H        0.925     0.065     2.144     2.290
   100   1 H        0.924     0.069     2.097     2.265
   101   1 H        0.924     0.066     2.130     2.282
   102   1 H        0.925     0.068     2.106     2.269
   103   1 H        0.925     0.055     2.258     2.350
   104   1 H        0.925     0.058     2.220     2.330
   105   1 H        0.924     0.068     2.107     2.270
   106   1 H        0.925     0.084     1.942     2.180
   107   1 H        0.925     0.058     2.220     2.330
   108   1 H        0.925     0.048     2.345     2.395
   109   1 H        0.925     0.046     2.371     2.408
   110   1 H        0.925     0.077     2.013     2.218
   111   1 H        0.926     0.065     2.137     2.286
   112   1 H        0.926     0.059     2.208     2.324
   113   1 H        0.926     0.060     2.198     2.318
   114   1 H        0.924     0.056     2.247     2.344
   115   1 H        0.924     0.054     2.267     2.355
   116   1 H        0.925     0.083     1.947     2.182

 Mol. C6AA /au·bohr⁶  :     233283.577374
 Mol. C8AA /au·bohr⁸  :    6439775.216842
 Mol. α(0) /au        :        762.587820


Wiberg/Mayer (AO) data.
largest (>0.10) Wiberg bond orders for each atom

 ---------------------------------------------------------------------------
     #   Z sym  total        # sym  WBO       # sym  WBO       # sym  WBO
 ---------------------------------------------------------------------------
     1   6 C    3.948 --     2 C    1.455    24 C    1.348    79 H    0.930
     2   6 C    3.954 --     1 C    1.455    11 C    1.156     3 C    1.076
     3   6 C    3.909 --     4 O    1.671     2 C    1.076     5 C    1.032
     4   8 O    2.086 --     3 C    1.671    56 S    0.140
     5   6 C    3.971 --     6 C    1.382    10 C    1.309     3 C    1.032
     6   6 C    3.980 --     7 C    1.440     5 C    1.382    80 H    0.963
     7   6 C    3.955 --     6 C    1.440     8 C    1.329    23 C    0.996
     8   6 C    3.965 --     9 C    1.445     7 C    1.329    17 C    0.997
     9   6 C    3.977 --     8 C    1.445    10 C    1.370    81 H    0.957
    10   6 C    3.977 --     9 C    1.370     5 C    1.309    11 C    1.085
    11   6 C    3.969 --    12 C    1.460     2 C    1.156    10 C    1.085
    12   6 C    3.945 --    11 C    1.460    15 C    1.110    13 C    1.100
    13   6 C    3.941 --    14 N    2.749    12 C    1.100
    14   7 N    2.957 --    13 C    2.749
    15   6 C    3.941 --    16 N    2.718    12 C    1.110
    16   7 N    2.957 --    15 C    2.718
    17   6 C    3.985 --     8 C    0.997    23 C    0.978    82 H    0.959
                            18 C    0.947
    18   6 C    3.989 --    19 C    1.010    22 C    0.985    83 H    0.972
                            17 C    0.947
    19   6 C    3.987 --    20 C    1.924    18 C    1.010    84 H    0.971
    20   6 C    3.987 --    19 C    1.924    21 C    1.010    85 H    0.971
    21   6 C    3.989 --    20 C    1.010    22 C    0.985    86 H    0.972
                            23 C    0.947
    22   6 C    3.993 --    21 C    0.985    18 C    0.985    87 H    0.977
                            88 H    0.976
    23   6 C    3.984 --     7 C    0.996    17 C    0.978    89 H    0.959
                            21 C    0.947
    24   6 C    3.924 --     1 C    1.348    25 C    1.273    56 S    1.063
    25   6 C    3.912 --    29 C    1.300    24 C    1.273    26 O    1.111
    26   8 O    2.257 --    25 C    1.111    27 C    0.932
    27   6 C    3.917 --    28 C    1.014    91 H    0.965    90 H    0.946
                            26 O    0.932
    28   6 C    3.991 --    27 C    1.014    93 H    0.985    92 H    0.982
                            94 H    0.982
    29   6 C    3.928 --    55 C    1.313    25 C    1.300    30 S    1.082
    30  16 S    2.515 --    31 C    1.121    29 C    1.082
    31   6 C    3.920 --    54 C    1.297    32 C    1.278    30 S    1.121
    32   6 C    3.955 --    31 C    1.278    52 C    1.262    33 C    1.173
    33   6 C    3.972 --    37 N    1.424    32 C    1.173    34 C    1.167
                            36 S    0.102
    34   6 C    3.973 --    35 N    1.423    38 C    1.173    33 C    1.167
                            36 S    0.103
    35   7 N    3.064 --    34 C    1.423    36 S    1.391    37 N    0.144
    36  16 S    3.107 --    35 N    1.391    37 N    1.388    34 C    0.103
                            33 C    0.102
    37   7 N    3.063 --    33 C    1.424    36 S    1.388    35 N    0.144
    38   6 C    3.955 --    51 C    1.278    39 C    1.264    34 C    1.173
    39   6 C    3.924 --    49 C    1.306    38 C    1.264    40 S    1.125
    40  16 S    2.537 --    39 C    1.125    41 C    1.099
    41   6 C    3.927 --    48 C    1.349    42 C    1.240    40 S    1.099
    42   6 C    3.918 --    46 C    1.350    41 C    1.240    43 O    1.121
    43   8 O    2.277 --    42 C    1.121    44 C    0.938
    44   6 C    3.922 --    45 C    1.014    95 H    0.965    96 H    0.964
                            43 O    0.938
    45   6 C    3.987 --    44 C    1.014    97 H    0.985    99 H    0.984
                            98 H    0.982
    46   6 C    3.914 --    42 C    1.350    61 C    1.255    47 S    1.055
    47  16 S    2.522 --    48 C    1.111    46 C    1.055
    48   6 C    3.939 --    41 C    1.349    49 C    1.253    47 S    1.111
    49   6 C    3.941 --    39 C    1.306    48 C    1.253    50 N    1.155
    50   7 N    3.540 --    51 C    1.164    49 C    1.155    59 C    0.973
    51   6 C    3.933 --    38 C    1.278    52 C    1.223    50 N    1.164
    52   6 C    3.931 --    32 C    1.262    51 C    1.223    53 N    1.183
    53   7 N    3.569 --    52 C    1.183    54 C    1.159    57 C    0.978
    54   6 C    3.939 --    31 C    1.297    55 C    1.255    53 N    1.159
    55   6 C    3.945 --    29 C    1.313    54 C    1.255    56 S    1.137
    56  16 S    2.699 --    55 C    1.137    24 C    1.063     4 O    0.140
    57   6 C    3.959 --    58 C    1.006    53 N    0.978   100 H    0.964
                           101 H    0.963
    58   6 C    3.985 --    57 C    1.006   104 H    0.983   103 H    0.980
                           102 H    0.977
    59   6 C    3.955 --    60 C    1.005    50 N    0.973   105 H    0.965
                           106 H    0.954
    60   6 C    3.989 --    59 C    1.005   108 H    0.986   109 H    0.986
                           107 H    0.982
    61   6 C    3.955 --    62 C    1.540    46 C    1.255   110 H    0.943
    62   6 C    3.958 --    61 C    1.540    73 C    1.124    63 C    1.031
    63   6 C    3.917 --    64 O    1.741    62 C    1.031    65 C    1.017
    64   8 O    2.011 --    63 C    1.741
    65   6 C    3.967 --    66 C    1.420    72 C    1.297    63 C    1.017
    66   6 C    3.982 --    65 C    1.420    67 C    1.408   111 H    0.965
    67   6 C    3.971 --    68 C    1.455    66 C    1.408   112 H    0.968
    68   6 C    3.981 --    67 C    1.455    69 C    1.341   113 H    0.964
    69   6 C    3.926 --    68 C    1.341    72 C    1.311    70 O    1.095
    70   8 O    2.264 --    69 C    1.095    71 C    0.965
    71   6 C    3.925 --   116 H    0.976   114 H    0.976   115 H    0.975
                            70 O    0.965
    72   6 C    3.977 --    69 C    1.311    65 C    1.297    73 C    1.095
    73   6 C    3.973 --    74 C    1.474    62 C    1.124    72 C    1.095
    74   6 C    3.970 --    73 C    1.474    77 C    1.103    75 C    1.097
    75   6 C    3.943 --    76 N    2.750    74 C    1.097
    76   7 N    2.965 --    75 C    2.750
    77   6 C    3.943 --    78 N    2.753    74 C    1.103
    78   7 N    2.955 --    77 C    2.753
    79   1 H    0.994 --     1 C    0.930
    80   1 H    0.996 --     6 C    0.963
    81   1 H    0.996 --     9 C    0.957
    82   1 H    0.996 --    17 C    0.959
    83   1 H    0.998 --    18 C    0.972
    84   1 H    0.999 --    19 C    0.971
    85   1 H    0.999 --    20 C    0.971
    86   1 H    0.998 --    21 C    0.972
    87   1 H    0.998 --    22 C    0.977
    88   1 H    0.996 --    22 C    0.976
    89   1 H    0.996 --    23 C    0.959
    90   1 H    0.995 --    27 C    0.946
    91   1 H    0.993 --    27 C    0.965
    92   1 H    0.998 --    28 C    0.982
    93   1 H    0.996 --    28 C    0.985
    94   1 H    0.996 --    28 C    0.982
    95   1 H    0.996 --    44 C    0.965
    96   1 H    0.997 --    44 C    0.964
    97   1 H    0.996 --    45 C    0.985
    98   1 H    0.995 --    45 C    0.982
    99   1 H    0.995 --    45 C    0.984
   100   1 H    0.993 --    57 C    0.964
   101   1 H    0.995 --    57 C    0.963
   102   1 H    0.995 --    58 C    0.977
   103   1 H    0.997 --    58 C    0.980
   104   1 H    0.996 --    58 C    0.983
   105   1 H    0.994 --    59 C    0.965
   106   1 H    0.992 --    59 C    0.954
   107   1 H    0.996 --    60 C    0.982
   108   1 H    0.998 --    60 C    0.986
   109   1 H    0.998 --    60 C    0.986
   110   1 H    0.992 --    61 C    0.943
   111   1 H    0.995 --    66 C    0.965
   112   1 H    0.996 --    67 C    0.968
   113   1 H    0.996 --    68 C    0.964
   114   1 H    0.996 --    71 C    0.976
   115   1 H    0.997 --    71 C    0.975
   116   1 H    0.993 --    71 C    0.976
 ---------------------------------------------------------------------------

Topologies differ in bond orders
Writing corrected topology to xtbtopo.mol

molecular dipole:
                 x           y           z       tot (Debye)
 q only:        0.141      -3.301       0.257
   full:        0.391      -4.390       0.159      11.210
molecular quadrupole (traceless):
                xx          xy          yy          xz          yz          zz
 q only:      -61.526      47.560      70.163     -42.640      13.763      -8.637
  q+dip:      -50.223      34.703      60.103     -45.015      10.930      -9.881
   full:      -54.978      34.376      52.996     -45.498      12.679       1.982


           -------------------------------------------------
          | TOTAL ENERGY             -207.791258812092 Eh   |
          | GRADIENT NORM               0.021402733994 Eh/α |
          | HOMO-LUMO GAP               1.169123336242 eV   |
           -------------------------------------------------

------------------------------------------------------------------------
 * finished run on 2022/02/11 at 07:41:16.043     
------------------------------------------------------------------------
 total:
 * wall-time:     0 d,  0 h,  0 min,  0.346 sec
 *  cpu-time:     0 d,  0 h,  0 min,  2.670 sec
 * ratio c/w:     7.725 speedup
 SCF:
 * wall-time:     0 d,  0 h,  0 min,  0.285 sec
 *  cpu-time:     0 d,  0 h,  0 min,  2.265 sec
 * ratio c/w:     7.952 speedup

