      -----------------------------------------------------------      
     |                   =====================                   |     
     |                           x T B                           |     
     |                   =====================                   |     
     |                         S. Grimme                         |     
     |          Mulliken Center for Theoretical Chemistry        |     
     |                    University of Bonn                     |     
      -----------------------------------------------------------      

   * xtb version 6.4.1 (unknown) compiled by 'oda6@login1.crc.pitt.edu' on 2021-06-25

   xtb is free software: you can redistribute it and/or modify it under
   the terms of the GNU Lesser General Public License as published by
   the Free Software Foundation, either version 3 of the License, or
   (at your option) any later version.
   
   xtb is distributed in the hope that it will be useful,
   but WITHOUT ANY WARRANTY; without even the implied warranty of
   MERCHANTABILITY or FITNESS FOR A PARTICULAR PURPOSE.  See the
   GNU Lesser General Public License for more details.
   
   Cite this work as:
   * C. Bannwarth, E. Caldeweyher, S. Ehlert, A. Hansen, P. Pracht,
     J. Seibert, S. Spicher, S. Grimme, WIREs Comput. Mol. Sci., 2020, 11,
     e01493. DOI: 10.1002/wcms.1493
   
   for GFN2-xTB:
   * C. Bannwarth, S. Ehlert and S. Grimme., J. Chem. Theory Comput., 2019,
     15, 1652-1671. DOI: 10.1021/acs.jctc.8b01176
   for GFN1-xTB:
   * S. Grimme, C. Bannwarth, P. Shushkov, J. Chem. Theory Comput., 2017,
     13, 1989-2009. DOI: 10.1021/acs.jctc.7b00118
   for GFN0-xTB:
   * P. Pracht, E. Caldeweyher, S. Ehlert, S. Grimme, ChemRxiv, 2019, preprint.
     DOI: 10.26434/chemrxiv.8326202.v1
   for GFN-FF:
   * S. Spicher and S. Grimme, Angew. Chem. Int. Ed., 2020, 59, 15665-15673.
     DOI: 10.1002/anie.202004239
   
   for DFT-D4:
   * E. Caldeweyher, C. Bannwarth and S. Grimme, J. Chem. Phys., 2017,
     147, 034112. DOI: 10.1063/1.4993215
   * E. Caldeweyher, S. Ehlert, A. Hansen, H. Neugebauer, S. Spicher,
     C. Bannwarth and S. Grimme, J. Chem. Phys., 2019, 150, 154122.
     DOI: 10.1063/1.5090222
   * E. Caldeweyher, J.-M. Mewes, S. Ehlert and S. Grimme, Phys. Chem. Chem. Phys.
     2020, 22, 8499-8512. DOI: 10.1039/D0CP00502A
   
   for sTDA-xTB:
   * S. Grimme and C. Bannwarth, J. Chem. Phys., 2016, 145, 054103.
     DOI: 10.1063/1.4959605
   
   in the mass-spec context:
   * V. Asgeirsson, C. Bauer and S. Grimme, Chem. Sci., 2017, 8, 4879.
     DOI: 10.1039/c7sc00601b
   * J. Koopman and S. Grimme, ACS Omega 2019, 4, 12, 15120-15133.
     DOI: 10.1021/acsomega.9b02011
   
   for metadynamics refer to:
   * S. Grimme, J. Chem. Theory Comput., 2019, 155, 2847-2862
     DOI: 10.1021/acs.jctc.9b00143
   
   for SPH calculations refer to:
   * S. Spicher and S. Grimme, J. Chem. Theory Comput., 2021, 17, 1701-1714
     DOI: 10.1021/acs.jctc.0c01306
   
   with help from (in alphabetical order)
   P. Atkinson, C. Bannwarth, F. Bohle, G. Brandenburg, E. Caldeweyher
   M. Checinski, S. Dohm, S. Ehlert, S. Ehrlich, I. Gerasimov, J. Koopman
   C. Lavigne, S. Lehtola, F. März, M. Müller, F. Musil, H. Neugebauer
   J. Pisarek, C. Plett, P. Pracht, J. Seibert, P. Shushkov, S. Spicher
   M. Stahn, M. Steiner, T. Strunk, J. Stückrath, T. Rose, and J. Unsleber
   
 * started run on 2022/02/02 at 00:47:04.990     

           -------------------------------------------------
          |                Calculation Setup                |
           -------------------------------------------------

          program call               : /ihome/ghutchison/oda6/xtb/xtb-641/bin/xtb ../../GFN2_output/39_60_39.mol --sp --alpb hexane
          hostname                   : smp-n98
          coordinate file            : ../../GFN2_output/39_60_39.mol
          omp threads                :                     8
          number of atoms            :                   184
          number of electrons        :                   538
          charge                     :                     0
          spin                       :                   0.0
          first test random number   :      0.98561404774766

   ID    Z sym.   atoms
    1    6 C      1-3, 5-13, 15, 17-24, 26, 27, 29-73, 75-78, 80, 81, 83-85,
                  87-92, 94-102, 104, 106-112
    2    8 O      4, 93
    3    7 N      14, 16, 74, 86, 103, 105
    4   16 S      25, 28, 79, 82
    5    1 H      113-184

           -------------------------------------------------
          |                 G F N 2 - x T B                 |
           -------------------------------------------------

        Reference                      10.1021/acs.jctc.8b01176
      * Hamiltonian:
        H0-scaling (s, p, d)           1.850000    2.230000    2.230000
        zeta-weighting                 0.500000
      * Dispersion:
        s8                             2.700000
        a1                             0.520000
        a2                             5.000000
        s9                             5.000000
      * Repulsion:
        kExp                           1.500000    1.000000
        rExp                           1.000000
      * Coulomb:
        alpha                          2.000000
        third order                    shell-resolved
        anisotropic                    true
        a3                             3.000000
        a5                             4.000000
        cn-shift                       1.200000
        cn-exp                         4.000000
        max-rad                        5.000000

      * Solvation model:               ALPB
        Solvent                        hexane
        Parameter file                 internal GFN2-xTB/ALPB
        Dielectric constant                1.8800E+00
        Reference state                gsolv [1 M gas/solution]
        Free energy shift                  4.8134E-03 Eh       3.0204E+00 kcal/mol
        Temperature                        2.9815E+02 K
        Density                            6.6000E-01 kg/L
        Solvent mass                       8.6180E+01 g/mol
        Interaction kernel             P16
        Born radius scaling (c1)           1.1040E+00
        Born radii integrator          GBOBC
        Born offset                        0.0000E+00 a0       0.0000E+00 AA
        H-bond correction              false
        Ion screening                  false
        Surface tension                    1.0000E-05 Eh       1.5569E+01 dyn/cm
        Grid points                               230 per atom

          ...................................................
          :                      SETUP                      :
          :.................................................:
          :  # basis functions                 544          :
          :  # atomic orbitals                 540          :
          :  # shells                          300          :
          :  # electrons                       538          :
          :  max. iterations                   250          :
          :  Hamiltonian                  GFN2-xTB          :
          :  restarted?                      false          :
          :  GBSA solvation                   true          :
          :  PC potential                    false          :
          :  electronic temp.          300.0000000     K    :
          :  accuracy                    1.0000000          :
          :  -> integral cutoff          0.2500000E+02      :
          :  -> integral neglect         0.1000000E-07      :
          :  -> SCF convergence          0.1000000E-05 Eh   :
          :  -> wf. convergence          0.1000000E-03 e    :
          :  Broyden damping             0.4000000          :
          ...................................................

 iter      E             dE          RMSdq      gap      omega  full diag
   1   -294.2394801 -0.294239E+03  0.432E+00    1.21       0.0  T
   2   -294.4275914 -0.188111E+00  0.251E+00    1.09       1.0  T
   3   -294.3161456  0.111446E+00  0.121E+00    1.03       1.0  T
   4   -294.4567635 -0.140618E+00  0.424E-01    1.07       1.0  T
   5   -294.4767585 -0.199950E-01  0.113E-01    1.01       1.0  T
   6   -294.4774653 -0.706804E-03  0.629E-02    1.06       1.0  T
   7   -294.4777918 -0.326544E-03  0.219E-02    1.04       1.0  T
   8   -294.4778275 -0.356756E-04  0.917E-03    1.04       1.0  T
   9   -294.4778329 -0.543042E-05  0.404E-03    1.04       1.8  T
  10   -294.4778338 -0.846115E-06  0.186E-03    1.04       4.0  T
  11   -294.4778340 -0.256732E-06  0.718E-04    1.04      10.3  T
  12   -294.4778340 -0.130790E-07  0.385E-04    1.04      19.2  T

   *** convergence criteria satisfied after 12 iterations ***

         #    Occupation            Energy/Eh            Energy/eV
      -------------------------------------------------------------
         1        2.0000           -0.7402817             -20.1441
       ...           ...                  ...                  ...
       263        2.0000           -0.3947197             -10.7409
       264        2.0000           -0.3943356             -10.7304
       265        2.0000           -0.3934364             -10.7059
       266        2.0000           -0.3774004             -10.2696
       267        2.0000           -0.3758188             -10.2265
       268        2.0000           -0.3740313             -10.1779
       269        2.0000           -0.3614876              -9.8366 (HOMO)
       270                         -0.3231642              -8.7937 (LUMO)
       271                         -0.3204830              -8.7208
       272                         -0.3125255              -8.5043
       273                         -0.3093011              -8.4165
       274                         -0.2804047              -7.6302
       ...                                ...                  ...
       540                          1.1636620              31.6649
      -------------------------------------------------------------
                  HL-Gap            0.0383235 Eh            1.0428 eV
             Fermi-level           -0.3423533 Eh           -9.3159 eV

 SCC (total)                   0 d,  0 h,  0 min,  0.514 sec
 SCC setup                      ...        0 min,  0.005 sec (  1.051%)
 Dispersion                     ...        0 min,  0.008 sec (  1.638%)
 classical contributions        ...        0 min,  0.000 sec (  0.062%)
 integral evaluation            ...        0 min,  0.029 sec (  5.680%)
 iterations                     ...        0 min,  0.376 sec ( 73.083%)
 molecular gradient             ...        0 min,  0.093 sec ( 17.989%)
 printout                       ...        0 min,  0.002 sec (  0.478%)

         :::::::::::::::::::::::::::::::::::::::::::::::::::::
         ::                     SUMMARY                     ::
         :::::::::::::::::::::::::::::::::::::::::::::::::::::
         :: total energy            -289.511091837178 Eh    ::
         :: total w/o Gsasa/hb      -289.407440160296 Eh    ::
         :: gradient norm              0.020786935372 Eh/a0 ::
         :: HOMO-LUMO gap              1.042834841356 eV    ::
         ::.................................................::
         :: SCC energy              -294.477834025577 Eh    ::
         :: -> isotropic ES            0.124878666447 Eh    ::
         :: -> anisotropic ES          0.021867926230 Eh    ::
         :: -> anisotropic XC          0.184840030867 Eh    ::
         :: -> dispersion             -0.284104707789 Eh    ::
         :: -> Gsolv                  -0.123750135746 Eh    ::
         ::    -> Gelec               -0.020098458864 Eh    ::
         ::    -> Gsasa               -0.108465032702 Eh    ::
         ::    -> Ghb                  0.000000000000 Eh    ::
         ::    -> Gshift               0.004813355820 Eh    ::
         :: repulsion energy           4.962707619297 Eh    ::
         :: add. restraining           0.000000000000 Eh    ::
         :: total charge              -0.000000000207 e     ::
         :::::::::::::::::::::::::::::::::::::::::::::::::::::

           -------------------------------------------------
          |                Property Printout                |
           -------------------------------------------------

    * Orbital Energies and Occupations

         #    Occupation            Energy/Eh            Energy/eV
      -------------------------------------------------------------
         1        2.0000           -0.7402817             -20.1441
       ...           ...                  ...                  ...
       257        2.0000           -0.4027194             -10.9586
       258        2.0000           -0.4000918             -10.8871
       259        2.0000           -0.3985745             -10.8458
       260        2.0000           -0.3970891             -10.8053
       261        2.0000           -0.3954961             -10.7620
       262        2.0000           -0.3954280             -10.7601
       263        2.0000           -0.3947197             -10.7409
       264        2.0000           -0.3943356             -10.7304
       265        2.0000           -0.3934364             -10.7059
       266        2.0000           -0.3774004             -10.2696
       267        2.0000           -0.3758188             -10.2265
       268        2.0000           -0.3740313             -10.1779
       269        2.0000           -0.3614876              -9.8366 (HOMO)
       270                         -0.3231642              -8.7937 (LUMO)
       271                         -0.3204830              -8.7208
       272                         -0.3125255              -8.5043
       273                         -0.3093011              -8.4165
       274                         -0.2804047              -7.6302
       275                         -0.2595815              -7.0636
       276                         -0.2502443              -6.8095
       277                         -0.2437489              -6.6327
       278                         -0.2421891              -6.5903
       279                         -0.2403415              -6.5400
       280                         -0.2379707              -6.4755
       ...                                ...                  ...
       540                          1.1636620              31.6649
      -------------------------------------------------------------
                  HL-Gap            0.0383235 Eh            1.0428 eV
             Fermi-level           -0.3423533 Eh           -9.3159 eV

     #   Z          covCN         q      C6AA      α(0)
     1   6 C        2.949    -0.012    28.306     8.726
     2   6 C        3.002    -0.041    29.004     8.834
     3   6 C        2.869     0.232    23.139     7.885
     4   8 O        0.856    -0.433    22.348     6.338
     5   6 C        3.063    -0.022    28.486     8.752
     6   6 C        2.904    -0.023    28.568     8.764
     7   6 C        3.261     0.008    26.660     8.342
     8   6 C        3.257     0.011    26.663     8.348
     9   6 C        2.904    -0.034    28.851     8.807
    10   6 C        3.045     0.005    27.869     8.658
    11   6 C        3.026     0.036    27.176     8.551
    12   6 C        2.947     0.005    27.915     8.666
    13   6 C        1.943     0.129    27.915     8.532
    14   7 N        0.911    -0.272    27.028     7.519
    15   6 C        1.944     0.133    27.823     8.518
    16   7 N        0.911    -0.273    27.055     7.523
    17   6 C        4.163    -0.024    20.921     6.496
    18   6 C        4.012    -0.015    20.766     6.474
    19   6 C        2.988    -0.041    29.010     8.835
    20   6 C        2.988    -0.042    29.036     8.839
    21   6 C        4.012    -0.015    20.766     6.474
    22   6 C        3.926    -0.060    21.591     6.604
    23   6 C        4.161    -0.025    20.924     6.497
    24   6 C        2.997     0.030    27.317     8.574
    25  16 S        2.251    -0.047   143.004    20.127
    26   6 C        3.087     0.007    27.776     8.639
    27   6 C        3.113    -0.008    28.073     8.680
    28  16 S        2.161    -0.054   143.292    20.147
    29   6 C        3.092     0.020    27.464     8.590
    30   6 C        3.042     0.000    27.977     8.675
    31   6 C        2.909    -0.038    28.956     8.824
    32   6 C        3.081     0.003    27.868     8.654
    33   6 C        3.949     0.017    20.225     6.390
    34   6 C        2.979     0.009    27.808     8.650
    35   6 C        2.922    -0.041    29.019     8.834
    36   6 C        2.925    -0.042    29.034     8.836
    37   6 C        2.971     0.012    27.755     8.642
    38   6 C        3.806    -0.060    21.651     6.624
    39   6 C        3.754    -0.100    22.474     6.760
    40   6 C        2.925    -0.041    29.012     8.833
    41   6 C        2.923    -0.038    28.938     8.822
    42   6 C        2.976     0.008    27.847     8.656
    43   6 C        2.921    -0.042    29.051     8.839
    44   6 C        2.925    -0.042    29.052     8.839
    45   6 C        2.970     0.012    27.739     8.639
    46   6 C        3.806    -0.060    21.654     6.624
    47   6 C        3.754    -0.100    22.472     6.760
    48   6 C        2.925    -0.039    28.981     8.828
    49   6 C        2.924    -0.038    28.951     8.824
    50   6 C        3.160    -0.025    28.291     8.695
    51   6 C        3.093     0.019    27.469     8.590
    52   6 C        3.043     0.000    27.976     8.675
    53   6 C        2.909    -0.039    28.980     8.827
    54   6 C        3.081     0.003    27.873     8.655
    55   6 C        3.949     0.017    20.226     6.391
    56   6 C        2.979     0.008    27.826     8.653
    57   6 C        2.922    -0.042    29.035     8.836
    58   6 C        2.926    -0.042    29.032     8.836
    59   6 C        2.970     0.012    27.736     8.639
    60   6 C        3.806    -0.060    21.654     6.624
    61   6 C        3.754    -0.100    22.472     6.760
    62   6 C        2.925    -0.039    28.980     8.828
    63   6 C        2.924    -0.039    28.971     8.827
    64   6 C        2.977     0.007    27.868     8.659
    65   6 C        2.923    -0.038    28.953     8.824
    66   6 C        2.925    -0.040    29.006     8.832
    67   6 C        2.971     0.012    27.750     8.641
    68   6 C        3.806    -0.060    21.649     6.624
    69   6 C        3.754    -0.100    22.468     6.759
    70   6 C        2.925    -0.041    29.007     8.832
    71   6 C        2.923    -0.039    28.982     8.828
    72   6 C        3.164    -0.024    28.265     8.689
    73   6 C        3.243     0.036    26.252     8.303
    74   7 N        2.793    -0.032    21.854     6.943
    75   6 C        3.293     0.038    25.529     8.104
    76   6 C        3.026    -0.049    29.180     8.861
    77   6 C        3.739     0.001    20.646     6.484
    78   6 C        3.752    -0.117    22.800     6.809
    79  16 S        2.162    -0.049   143.098    20.133
    80   6 C        3.119    -0.007    28.025     8.671
    81   6 C        3.087    -0.007    28.097     8.689
    82  16 S        2.286     0.006   140.812    19.972
    83   6 C        2.993     0.026    27.402     8.587
    84   6 C        3.036    -0.057    29.381     8.891
    85   6 C        3.273     0.037    25.867     8.197
    86   7 N        2.791    -0.036    21.945     6.957
    87   6 C        3.738    -0.002    20.694     6.491
    88   6 C        3.752    -0.114    22.751     6.802
    89   6 C        3.236     0.037    26.308     8.321
    90   6 C        2.918    -0.016    28.402     8.739
    91   6 C        3.005    -0.041    29.003     8.834
    92   6 C        2.875     0.231    23.167     7.890
    93   8 O        0.952    -0.401    21.657     6.242
    94   6 C        3.060    -0.021    28.466     8.749
    95   6 C        2.904    -0.022    28.556     8.762
    96   6 C        3.261     0.009    26.651     8.340
    97   6 C        3.257     0.010    26.669     8.349
    98   6 C        2.905    -0.034    28.853     8.808
    99   6 C        3.049     0.004    27.880     8.660
   100   6 C        3.021     0.036    27.179     8.552
   101   6 C        2.947     0.003    27.958     8.672
   102   6 C        1.948     0.131    27.866     8.525
   103   7 N        0.911    -0.280    27.232     7.547
   104   6 C        1.950     0.133    27.821     8.518
   105   7 N        0.911    -0.275    27.101     7.529
   106   6 C        4.163    -0.024    20.922     6.496
   107   6 C        4.012    -0.015    20.767     6.474
   108   6 C        2.988    -0.041    29.014     8.836
   109   6 C        2.987    -0.042    29.032     8.838
   110   6 C        4.012    -0.015    20.765     6.473
   111   6 C        3.926    -0.060    21.591     6.604
   112   6 C        4.162    -0.024    20.922     6.496
   113   1 H        0.925     0.069     2.100     2.266
   114   1 H        0.926     0.059     2.208     2.324
   115   1 H        0.926     0.057     2.232     2.336
   116   1 H        0.925     0.048     2.343     2.393
   117   1 H        0.925     0.039     2.460     2.453
   118   1 H        0.926     0.033     2.548     2.496
   119   1 H        0.926     0.032     2.562     2.503
   120   1 H        0.925     0.037     2.484     2.465
   121   1 H        0.925     0.042     2.421     2.433
   122   1 H        0.925     0.041     2.436     2.441
   123   1 H        0.925     0.047     2.354     2.399
   124   1 H        0.926     0.046     2.370     2.407
   125   1 H        0.926     0.031     2.574     2.509
   126   1 H        0.926     0.034     2.528     2.487
   127   1 H        0.924     0.040     2.454     2.450
   128   1 H        0.924     0.039     2.461     2.453
   129   1 H        0.925     0.039     2.459     2.452
   130   1 H        0.925     0.037     2.490     2.467
   131   1 H        0.925     0.037     2.488     2.467
   132   1 H        0.926     0.036     2.502     2.474
   133   1 H        0.926     0.038     2.476     2.461
   134   1 H        0.926     0.040     2.447     2.446
   135   1 H        0.926     0.036     2.504     2.474
   136   1 H        0.924     0.040     2.453     2.449
   137   1 H        0.924     0.039     2.460     2.453
   138   1 H        0.925     0.039     2.457     2.451
   139   1 H        0.925     0.038     2.481     2.463
   140   1 H        0.925     0.037     2.485     2.465
   141   1 H        0.926     0.035     2.516     2.481
   142   1 H        0.926     0.028     2.621     2.531
   143   1 H        0.926     0.049     2.338     2.391
   144   1 H        0.926     0.037     2.494     2.470
   145   1 H        0.926     0.036     2.500     2.473
   146   1 H        0.924     0.040     2.448     2.447
   147   1 H        0.924     0.040     2.451     2.448
   148   1 H        0.925     0.037     2.495     2.470
   149   1 H        0.925     0.040     2.454     2.450
   150   1 H        0.925     0.037     2.490     2.467
   151   1 H        0.926     0.036     2.509     2.477
   152   1 H        0.926     0.030     2.587     2.515
   153   1 H        0.926     0.037     2.484     2.465
   154   1 H        0.926     0.036     2.505     2.475
   155   1 H        0.924     0.039     2.465     2.455
   156   1 H        0.924     0.040     2.455     2.450
   157   1 H        0.925     0.039     2.464     2.455
   158   1 H        0.925     0.038     2.478     2.461
   159   1 H        0.925     0.036     2.502     2.473
   160   1 H        0.926     0.033     2.550     2.497
   161   1 H        0.926     0.028     2.614     2.528
   162   1 H        0.926     0.093     1.851     2.128
   163   1 H        0.925     0.069     2.094     2.263
   164   1 H        0.924     0.057     2.231     2.336
   165   1 H        0.925     0.049     2.327     2.386
   166   1 H        0.925     0.051     2.304     2.374
   167   1 H        0.925     0.061     2.185     2.311
   168   1 H        0.926     0.059     2.214     2.327
   169   1 H        0.924     0.067     2.119     2.277
   170   1 H        0.924     0.059     2.215     2.327
   171   1 H        0.925     0.049     2.336     2.390
   172   1 H        0.925     0.051     2.301     2.372
   173   1 H        0.925     0.051     2.302     2.373
   174   1 H        0.925     0.070     2.085     2.258
   175   1 H        0.926     0.061     2.193     2.316
   176   1 H        0.926     0.057     2.233     2.337
   177   1 H        0.925     0.048     2.344     2.394
   178   1 H        0.925     0.039     2.464     2.455
   179   1 H        0.926     0.032     2.552     2.498
   180   1 H        0.926     0.032     2.555     2.500
   181   1 H        0.925     0.038     2.481     2.463
   182   1 H        0.925     0.041     2.437     2.441
   183   1 H        0.925     0.042     2.423     2.434
   184   1 H        0.925     0.047     2.351     2.398

 Mol. C6AA /au·bohr⁶  :     505833.248409
 Mol. C8AA /au·bohr⁸  :   13405604.725649
 Mol. α(0) /au        :       1127.544898


Wiberg/Mayer (AO) data.
largest (>0.10) Wiberg bond orders for each atom

 ---------------------------------------------------------------------------
     #   Z sym  total        # sym  WBO       # sym  WBO       # sym  WBO
 ---------------------------------------------------------------------------
     1   6 C    3.941 --     2 C    1.498    24 C    1.290   113 H    0.945
     2   6 C    3.947 --     1 C    1.498    11 C    1.141     3 C    1.049
     3   6 C    3.910 --     4 O    1.708     2 C    1.049     5 C    1.029
     4   8 O    2.004 --     3 C    1.708
     5   6 C    3.973 --     6 C    1.380    10 C    1.309     3 C    1.029
     6   6 C    3.981 --     7 C    1.443     5 C    1.380   114 H    0.964
     7   6 C    3.956 --     6 C    1.443     8 C    1.327    23 C    0.996
     8   6 C    3.965 --     9 C    1.448     7 C    1.327    17 C    0.997
     9   6 C    3.978 --     8 C    1.448    10 C    1.367   115 H    0.959
    10   6 C    3.977 --     9 C    1.367     5 C    1.309    11 C    1.087
    11   6 C    3.968 --    12 C    1.474     2 C    1.141    10 C    1.087
    12   6 C    3.948 --    11 C    1.474    15 C    1.102    13 C    1.099
    13   6 C    3.942 --    14 N    2.748    12 C    1.099
    14   7 N    2.954 --    13 C    2.748
    15   6 C    3.941 --    16 N    2.751    12 C    1.102
    16   7 N    2.958 --    15 C    2.751
    17   6 C    3.985 --     8 C    0.997    23 C    0.978   116 H    0.959
                            18 C    0.947
    18   6 C    3.989 --    19 C    1.010    22 C    0.985   117 H    0.972
                            17 C    0.947
    19   6 C    3.987 --    20 C    1.924    18 C    1.010   118 H    0.971
    20   6 C    3.987 --    19 C    1.924    21 C    1.010   119 H    0.971
    21   6 C    3.989 --    20 C    1.010    22 C    0.985   120 H    0.972
                            23 C    0.947
    22   6 C    3.993 --    21 C    0.985    18 C    0.985   122 H    0.978
                           121 H    0.976
    23   6 C    3.984 --     7 C    0.996    17 C    0.978   123 H    0.960
                            21 C    0.947
    24   6 C    3.919 --    76 C    1.404     1 C    1.290    25 S    1.059
    25  16 S    2.518 --    26 C    1.144    24 C    1.059
    26   6 C    3.928 --    27 C    1.336    75 C    1.226    25 S    1.144
    27   6 C    3.917 --    26 C    1.336    73 C    1.250    28 S    1.099
    28  16 S    2.521 --    29 C    1.125    27 C    1.099
    29   6 C    3.887 --    72 C    1.432    30 C    1.148    28 S    1.125
    30   6 C    3.957 --    31 C    1.344    54 C    1.283    29 C    1.148
    31   6 C    3.972 --    32 C    1.469    30 C    1.344   124 H    0.962
    32   6 C    3.964 --    31 C    1.469    52 C    1.285    33 C    0.958
    33   6 C    3.987 --    50 C    0.970    42 C    0.960    32 C    0.958
                            34 C    0.957
    34   6 C    3.982 --    35 C    1.412    41 C    1.398    33 C    0.957
                            37 C    0.105
    35   6 C    3.990 --    36 C    1.441    34 C    1.412   125 H    0.964
                            40 C    0.106
    36   6 C    3.991 --    35 C    1.441    37 C    1.414   126 H    0.969
                            41 C    0.109
    37   6 C    3.986 --    36 C    1.414    40 C    1.404    38 C    1.013
                            34 C    0.105
    38   6 C    3.997 --    37 C    1.013    39 C    1.000   127 H    0.974
                           128 H    0.974
    39   6 C    3.995 --    38 C    1.000   131 H    0.988   130 H    0.988
                           129 H    0.986
    40   6 C    3.990 --    41 C    1.454    37 C    1.404   132 H    0.969
                            35 C    0.106
    41   6 C    3.990 --    40 C    1.454    34 C    1.398   133 H    0.965
                            36 C    0.109
    42   6 C    3.984 --    43 C    1.408    49 C    1.403    33 C    0.960
                            45 C    0.106
    43   6 C    3.989 --    44 C    1.438    42 C    1.408   134 H    0.962
                            48 C    0.106
    44   6 C    3.990 --    43 C    1.438    45 C    1.414   135 H    0.969
                            49 C    0.109
    45   6 C    3.986 --    44 C    1.414    48 C    1.403    46 C    1.013
                            42 C    0.106
    46   6 C    3.997 --    45 C    1.013    47 C    1.000   137 H    0.974
                           136 H    0.974
    47   6 C    3.995 --    46 C    1.000   140 H    0.988   139 H    0.988
                           138 H    0.986
    48   6 C    3.991 --    49 C    1.456    45 C    1.403   141 H    0.969
                            43 C    0.106
    49   6 C    3.991 --    48 C    1.456    42 C    1.403   142 H    0.968
                            44 C    0.109
    50   6 C    3.955 --    51 C    1.426    89 C    1.275    33 C    0.970
    51   6 C    3.884 --    50 C    1.426    52 C    1.150    79 S    1.132
    52   6 C    3.959 --    53 C    1.343    32 C    1.285    51 C    1.150
    53   6 C    3.972 --    54 C    1.472    52 C    1.343   143 H    0.962
    54   6 C    3.965 --    53 C    1.472    30 C    1.283    55 C    0.960
    55   6 C    3.986 --    64 C    0.969    72 C    0.968    54 C    0.960
                            56 C    0.947
    56   6 C    3.982 --    57 C    1.412    63 C    1.403    55 C    0.947
                            59 C    0.106
    57   6 C    3.988 --    58 C    1.440    56 C    1.412   144 H    0.959
                            62 C    0.106
    58   6 C    3.989 --    57 C    1.440    59 C    1.414   145 H    0.969
                            63 C    0.109
    59   6 C    3.985 --    58 C    1.414    62 C    1.404    60 C    1.013
                            56 C    0.106
    60   6 C    3.997 --    59 C    1.013    61 C    1.000   147 H    0.974
                           146 H    0.974
    61   6 C    3.995 --    60 C    1.000   150 H    0.988   148 H    0.988
                           149 H    0.986
    62   6 C    3.990 --    63 C    1.456    59 C    1.404   151 H    0.969
                            57 C    0.106
    63   6 C    3.991 --    62 C    1.456    56 C    1.403   152 H    0.967
                            58 C    0.109
    64   6 C    3.984 --    71 C    1.411    65 C    1.399    55 C    0.969
                            67 C    0.105
    65   6 C    3.990 --    66 C    1.452    64 C    1.399   153 H    0.965
                            70 C    0.108
    66   6 C    3.990 --    65 C    1.452    67 C    1.406   154 H    0.969
                            71 C    0.107
    67   6 C    3.986 --    70 C    1.412    66 C    1.406    68 C    1.013
                            64 C    0.105
    68   6 C    3.997 --    67 C    1.013    69 C    1.000   155 H    0.974
                           156 H    0.974
    69   6 C    3.995 --    68 C    1.000   159 H    0.988   158 H    0.988
                           157 H    0.986
    70   6 C    3.991 --    71 C    1.444    67 C    1.412   160 H    0.969
                            65 C    0.108
    71   6 C    3.991 --    70 C    1.444    64 C    1.411   161 H    0.965
                            66 C    0.107
    72   6 C    3.955 --    29 C    1.432    73 C    1.268    55 C    0.968
    73   6 C    3.921 --    72 C    1.268    27 C    1.250    74 N    1.176
    74   7 N    3.582 --    73 C    1.176    75 C    1.155    77 C    0.980
    75   6 C    3.939 --    76 C    1.344    26 C    1.226    74 N    1.155
    76   6 C    3.950 --    24 C    1.404    75 C    1.344   162 H    0.942
    77   6 C    3.961 --    78 C    1.007    74 N    0.980   164 H    0.967
                           163 H    0.961
    78   6 C    3.987 --    77 C    1.007   166 H    0.983   165 H    0.983
                           167 H    0.983
    79  16 S    2.529 --    51 C    1.132    80 C    1.100
    80   6 C    3.915 --    81 C    1.333    89 C    1.254    79 S    1.100
    81   6 C    3.938 --    80 C    1.333    85 C    1.213    82 S    1.158
    82  16 S    2.688 --    81 C    1.158    83 C    1.087    93 O    0.122
                            84 C    0.109
    83   6 C    3.926 --    84 C    1.357    90 C    1.317    82 S    1.087
    84   6 C    3.963 --    85 C    1.373    83 C    1.357   168 H    0.960
                            82 S    0.109
    85   6 C    3.936 --    84 C    1.373    81 C    1.213    86 N    1.151
    86   7 N    3.572 --    89 C    1.167    85 C    1.151    87 C    0.983
    87   6 C    3.962 --    88 C    1.006    86 N    0.983   170 H    0.969
                           169 H    0.956
    88   6 C    3.988 --    87 C    1.006   171 H    0.986   173 H    0.984
                           172 H    0.980
    89   6 C    3.919 --    50 C    1.275    80 C    1.254    86 N    1.167
    90   6 C    3.940 --    91 C    1.478    83 C    1.317   174 H    0.938
    91   6 C    3.949 --    90 C    1.478   100 C    1.149    92 C    1.067
    92   6 C    3.909 --    93 O    1.686    91 C    1.067    94 C    1.029
    93   8 O    2.080 --    92 C    1.686    82 S    0.122
    94   6 C    3.971 --    95 C    1.383    99 C    1.309    92 C    1.029
    95   6 C    3.980 --    96 C    1.440    94 C    1.383   175 H    0.963
    96   6 C    3.955 --    95 C    1.440    97 C    1.329   112 C    0.996
    97   6 C    3.965 --    98 C    1.446    96 C    1.329   106 C    0.997
    98   6 C    3.977 --    97 C    1.446    99 C    1.369   176 H    0.958
    99   6 C    3.977 --    98 C    1.369    94 C    1.309   100 C    1.086
   100   6 C    3.965 --   101 C    1.466    91 C    1.149    99 C    1.086
   101   6 C    3.952 --   100 C    1.466   102 C    1.104   104 C    1.101
   102   6 C    3.941 --   103 N    2.737   101 C    1.104
   103   7 N    2.951 --   102 C    2.737
   104   6 C    3.941 --   105 N    2.748   101 C    1.101
   105   7 N    2.956 --   104 C    2.748
   106   6 C    3.985 --    97 C    0.997   112 C    0.978   177 H    0.959
                           107 C    0.947
   107   6 C    3.989 --   108 C    1.010   111 C    0.985   178 H    0.972
                           106 C    0.947
   108   6 C    3.987 --   109 C    1.924   107 C    1.010   179 H    0.971
   109   6 C    3.987 --   108 C    1.924   110 C    1.010   180 H    0.971
   110   6 C    3.989 --   109 C    1.010   111 C    0.985   181 H    0.972
                           112 C    0.947
   111   6 C    3.993 --   110 C    0.985   107 C    0.985   182 H    0.978
                           183 H    0.976
   112   6 C    3.984 --    96 C    0.996   106 C    0.978   184 H    0.959
                           110 C    0.947
   113   1 H    0.994 --     1 C    0.945
   114   1 H    0.996 --     6 C    0.964
   115   1 H    0.996 --     9 C    0.959
   116   1 H    0.996 --    17 C    0.959
   117   1 H    0.998 --    18 C    0.972
   118   1 H    0.999 --    19 C    0.971
   119   1 H    0.999 --    20 C    0.971
   120   1 H    0.998 --    21 C    0.972
   121   1 H    0.996 --    22 C    0.976
   122   1 H    0.998 --    22 C    0.978
   123   1 H    0.996 --    23 C    0.960
   124   1 H    0.997 --    31 C    0.962
   125   1 H    0.999 --    35 C    0.964
   126   1 H    0.998 --    36 C    0.969
   127   1 H    0.998 --    38 C    0.974
   128   1 H    0.998 --    38 C    0.974
   129   1 H    0.998 --    39 C    0.986
   130   1 H    0.999 --    39 C    0.988
   131   1 H    0.999 --    39 C    0.988
   132   1 H    0.998 --    40 C    0.969
   133   1 H    0.998 --    41 C    0.965
   134   1 H    0.998 --    43 C    0.962
   135   1 H    0.998 --    44 C    0.969
   136   1 H    0.998 --    46 C    0.974
   137   1 H    0.998 --    46 C    0.974
   138   1 H    0.998 --    47 C    0.986
   139   1 H    0.999 --    47 C    0.988
   140   1 H    0.999 --    47 C    0.988
   141   1 H    0.998 --    48 C    0.969
   142   1 H    0.999 --    49 C    0.968
   143   1 H    0.996 --    53 C    0.962
   144   1 H    0.998 --    57 C    0.959
   145   1 H    0.998 --    58 C    0.969
   146   1 H    0.998 --    60 C    0.974
   147   1 H    0.998 --    60 C    0.974
   148   1 H    0.999 --    61 C    0.988
   149   1 H    0.998 --    61 C    0.986
   150   1 H    0.999 --    61 C    0.988
   151   1 H    0.998 --    62 C    0.969
   152   1 H    0.999 --    63 C    0.967
   153   1 H    0.998 --    65 C    0.965
   154   1 H    0.998 --    66 C    0.969
   155   1 H    0.998 --    68 C    0.974
   156   1 H    0.998 --    68 C    0.974
   157   1 H    0.998 --    69 C    0.986
   158   1 H    0.999 --    69 C    0.988
   159   1 H    0.999 --    69 C    0.988
   160   1 H    0.998 --    70 C    0.969
   161   1 H    0.999 --    71 C    0.965
   162   1 H    0.991 --    76 C    0.942
   163   1 H    0.994 --    77 C    0.961
   164   1 H    0.995 --    77 C    0.967
   165   1 H    0.998 --    78 C    0.983
   166   1 H    0.996 --    78 C    0.983
   167   1 H    0.996 --    78 C    0.983
   168   1 H    0.996 --    84 C    0.960
   169   1 H    0.995 --    87 C    0.956
   170   1 H    0.995 --    87 C    0.969
   171   1 H    0.997 --    88 C    0.986
   172   1 H    0.997 --    88 C    0.980
   173   1 H    0.996 --    88 C    0.984
   174   1 H    0.994 --    90 C    0.938
   175   1 H    0.996 --    95 C    0.963
   176   1 H    0.996 --    98 C    0.958
   177   1 H    0.996 --   106 C    0.959
   178   1 H    0.998 --   107 C    0.972
   179   1 H    0.999 --   108 C    0.971
   180   1 H    0.999 --   109 C    0.971
   181   1 H    0.998 --   110 C    0.972
   182   1 H    0.998 --   111 C    0.978
   183   1 H    0.996 --   111 C    0.976
   184   1 H    0.996 --   112 C    0.959
 ---------------------------------------------------------------------------

Topologies differ in bond orders
Writing corrected topology to xtbtopo.mol

molecular dipole:
                 x           y           z       tot (Debye)
 q only:       -0.495      -2.644      -0.382
   full:       -0.397      -3.284      -0.318       8.446
molecular quadrupole (traceless):
                xx          xy          yy          xz          yz          zz
 q only:       57.784     -41.102      95.527      63.513      62.172    -153.311
  q+dip:       68.460     -48.500     103.175      69.219      69.109    -171.634
   full:       75.111     -50.313      93.771      75.056      69.250    -168.882


           -------------------------------------------------
          | TOTAL ENERGY             -289.511091837178 Eh   |
          | GRADIENT NORM               0.020786935372 Eh/α |
          | HOMO-LUMO GAP               1.042834841356 eV   |
           -------------------------------------------------

------------------------------------------------------------------------
 * finished run on 2022/02/02 at 00:47:05.597     
------------------------------------------------------------------------
 total:
 * wall-time:     0 d,  0 h,  0 min,  0.607 sec
 *  cpu-time:     0 d,  0 h,  0 min,  4.740 sec
 * ratio c/w:     7.812 speedup
 SCF:
 * wall-time:     0 d,  0 h,  0 min,  0.517 sec
 *  cpu-time:     0 d,  0 h,  0 min,  4.120 sec
 * ratio c/w:     7.973 speedup

