      -----------------------------------------------------------      
     |                   =====================                   |     
     |                           x T B                           |     
     |                   =====================                   |     
     |                         S. Grimme                         |     
     |          Mulliken Center for Theoretical Chemistry        |     
     |                    University of Bonn                     |     
      -----------------------------------------------------------      

   * xtb version 6.4.1 (unknown) compiled by 'oda6@login1.crc.pitt.edu' on 2021-06-25

   xtb is free software: you can redistribute it and/or modify it under
   the terms of the GNU Lesser General Public License as published by
   the Free Software Foundation, either version 3 of the License, or
   (at your option) any later version.
   
   xtb is distributed in the hope that it will be useful,
   but WITHOUT ANY WARRANTY; without even the implied warranty of
   MERCHANTABILITY or FITNESS FOR A PARTICULAR PURPOSE.  See the
   GNU Lesser General Public License for more details.
   
   Cite this work as:
   * C. Bannwarth, E. Caldeweyher, S. Ehlert, A. Hansen, P. Pracht,
     J. Seibert, S. Spicher, S. Grimme, WIREs Comput. Mol. Sci., 2020, 11,
     e01493. DOI: 10.1002/wcms.1493
   
   for GFN2-xTB:
   * C. Bannwarth, S. Ehlert and S. Grimme., J. Chem. Theory Comput., 2019,
     15, 1652-1671. DOI: 10.1021/acs.jctc.8b01176
   for GFN1-xTB:
   * S. Grimme, C. Bannwarth, P. Shushkov, J. Chem. Theory Comput., 2017,
     13, 1989-2009. DOI: 10.1021/acs.jctc.7b00118
   for GFN0-xTB:
   * P. Pracht, E. Caldeweyher, S. Ehlert, S. Grimme, ChemRxiv, 2019, preprint.
     DOI: 10.26434/chemrxiv.8326202.v1
   for GFN-FF:
   * S. Spicher and S. Grimme, Angew. Chem. Int. Ed., 2020, 59, 15665-15673.
     DOI: 10.1002/anie.202004239
   
   for DFT-D4:
   * E. Caldeweyher, C. Bannwarth and S. Grimme, J. Chem. Phys., 2017,
     147, 034112. DOI: 10.1063/1.4993215
   * E. Caldeweyher, S. Ehlert, A. Hansen, H. Neugebauer, S. Spicher,
     C. Bannwarth and S. Grimme, J. Chem. Phys., 2019, 150, 154122.
     DOI: 10.1063/1.5090222
   * E. Caldeweyher, J.-M. Mewes, S. Ehlert and S. Grimme, Phys. Chem. Chem. Phys.
     2020, 22, 8499-8512. DOI: 10.1039/D0CP00502A
   
   for sTDA-xTB:
   * S. Grimme and C. Bannwarth, J. Chem. Phys., 2016, 145, 054103.
     DOI: 10.1063/1.4959605
   
   in the mass-spec context:
   * V. Asgeirsson, C. Bauer and S. Grimme, Chem. Sci., 2017, 8, 4879.
     DOI: 10.1039/c7sc00601b
   * J. Koopman and S. Grimme, ACS Omega 2019, 4, 12, 15120-15133.
     DOI: 10.1021/acsomega.9b02011
   
   for metadynamics refer to:
   * S. Grimme, J. Chem. Theory Comput., 2019, 155, 2847-2862
     DOI: 10.1021/acs.jctc.9b00143
   
   for SPH calculations refer to:
   * S. Spicher and S. Grimme, J. Chem. Theory Comput., 2021, 17, 1701-1714
     DOI: 10.1021/acs.jctc.0c01306
   
   with help from (in alphabetical order)
   P. Atkinson, C. Bannwarth, F. Bohle, G. Brandenburg, E. Caldeweyher
   M. Checinski, S. Dohm, S. Ehlert, S. Ehrlich, I. Gerasimov, J. Koopman
   C. Lavigne, S. Lehtola, F. März, M. Müller, F. Musil, H. Neugebauer
   J. Pisarek, C. Plett, P. Pracht, J. Seibert, P. Shushkov, S. Spicher
   M. Stahn, M. Steiner, T. Strunk, J. Stückrath, T. Rose, and J. Unsleber
   
 * started run on 2022/02/02 at 06:26:24.164     

           -------------------------------------------------
          |                Calculation Setup                |
           -------------------------------------------------

          program call               : /ihome/ghutchison/oda6/xtb/xtb-641/bin/xtb ../../GFN2_output/40_100_39.mol --sp --alpb hexane
          hostname                   : smp-n98
          coordinate file            : ../../GFN2_output/40_100_39.mol
          omp threads                :                     8
          number of atoms            :                   129
          number of electrons        :                   406
          charge                     :                     0
          spin                       :                   0.0
          first test random number   :      0.58580524697595

   ID    Z sym.   atoms
    1    6 C      1, 2, 4-6, 8, 11-13, 15-25, 27-30, 34, 35, 37-47, 49, 50,
                  52, 53, 55, 56, 58-64, 66-74, 76, 78-84
    2   16 S      3, 26, 32, 36, 48, 57
    3    7 N      7, 9, 10, 31, 33, 51, 54, 75, 77
    4    8 O      14, 65
    5    1 H      85-129

           -------------------------------------------------
          |                 G F N 2 - x T B                 |
           -------------------------------------------------

        Reference                      10.1021/acs.jctc.8b01176
      * Hamiltonian:
        H0-scaling (s, p, d)           1.850000    2.230000    2.230000
        zeta-weighting                 0.500000
      * Dispersion:
        s8                             2.700000
        a1                             0.520000
        a2                             5.000000
        s9                             5.000000
      * Repulsion:
        kExp                           1.500000    1.000000
        rExp                           1.000000
      * Coulomb:
        alpha                          2.000000
        third order                    shell-resolved
        anisotropic                    true
        a3                             3.000000
        a5                             4.000000
        cn-shift                       1.200000
        cn-exp                         4.000000
        max-rad                        5.000000

      * Solvation model:               ALPB
        Solvent                        hexane
        Parameter file                 internal GFN2-xTB/ALPB
        Dielectric constant                1.8800E+00
        Reference state                gsolv [1 M gas/solution]
        Free energy shift                  4.8134E-03 Eh       3.0204E+00 kcal/mol
        Temperature                        2.9815E+02 K
        Density                            6.6000E-01 kg/L
        Solvent mass                       8.6180E+01 g/mol
        Interaction kernel             P16
        Born radius scaling (c1)           1.1040E+00
        Born radii integrator          GBOBC
        Born offset                        0.0000E+00 a0       0.0000E+00 AA
        H-bond correction              false
        Ion screening                  false
        Surface tension                    1.0000E-05 Eh       1.5569E+01 dyn/cm
        Grid points                               230 per atom

          ...................................................
          :                      SETUP                      :
          :.................................................:
          :  # basis functions                 417          :
          :  # atomic orbitals                 411          :
          :  # shells                          219          :
          :  # electrons                       406          :
          :  max. iterations                   250          :
          :  Hamiltonian                  GFN2-xTB          :
          :  restarted?                      false          :
          :  GBSA solvation                   true          :
          :  PC potential                    false          :
          :  electronic temp.          300.0000000     K    :
          :  accuracy                    1.0000000          :
          :  -> integral cutoff          0.2500000E+02      :
          :  -> integral neglect         0.1000000E-07      :
          :  -> SCF convergence          0.1000000E-05 Eh   :
          :  -> wf. convergence          0.1000000E-03 e    :
          :  Broyden damping             0.4000000          :
          ...................................................

 iter      E             dE          RMSdq      gap      omega  full diag
   1   -223.6368051 -0.223637E+03  0.449E+00    1.26       0.0  T
   2   -223.8376474 -0.200842E+00  0.267E+00    1.07       1.0  T
   3   -223.7711007  0.665467E-01  0.136E+00    1.15       1.0  T
   4   -223.8921994 -0.121099E+00  0.480E-01    1.15       1.0  T
   5   -223.9065011 -0.143017E-01  0.169E-01    1.11       1.0  T
   6   -223.9079501 -0.144905E-02  0.833E-02    1.15       1.0  T
   7   -223.9082431 -0.292934E-03  0.297E-02    1.14       1.0  T
   8   -223.9082742 -0.311018E-04  0.149E-02    1.14       1.0  T
   9   -223.9082827 -0.855172E-05  0.700E-03    1.14       1.3  T
  10   -223.9082843 -0.161082E-05  0.328E-03    1.14       2.7  T
  11   -223.9082847 -0.373472E-06  0.171E-03    1.14       5.2  T
  12   -223.9082847 -0.337663E-07  0.853E-04    1.14      10.3  T
  13   -223.9082847 -0.160033E-07  0.433E-04    1.14      20.3  T

   *** convergence criteria satisfied after 13 iterations ***

         #    Occupation            Energy/Eh            Energy/eV
      -------------------------------------------------------------
         1        2.0000           -0.7665420             -20.8587
       ...           ...                  ...                  ...
       197        2.0000           -0.4023464             -10.9484
       198        2.0000           -0.3976410             -10.8204
       199        2.0000           -0.3973540             -10.8126
       200        2.0000           -0.3885909             -10.5741
       201        2.0000           -0.3876560             -10.5487
       202        2.0000           -0.3793119             -10.3216
       203        2.0000           -0.3717678             -10.1163 (HOMO)
       204                         -0.3299601              -8.9787 (LUMO)
       205                         -0.3252635              -8.8509
       206                         -0.3168989              -8.6233
       207                         -0.3015376              -8.2053
       208                         -0.2853076              -7.7636
       ...                                ...                  ...
       411                          1.1620373              31.6206
      -------------------------------------------------------------
                  HL-Gap            0.0418077 Eh            1.1376 eV
             Fermi-level           -0.3508671 Eh           -9.5476 eV

 SCC (total)                   0 d,  0 h,  0 min,  0.315 sec
 SCC setup                      ...        0 min,  0.003 sec (  0.978%)
 Dispersion                     ...        0 min,  0.005 sec (  1.734%)
 classical contributions        ...        0 min,  0.000 sec (  0.059%)
 integral evaluation            ...        0 min,  0.018 sec (  5.596%)
 iterations                     ...        0 min,  0.237 sec ( 75.259%)
 molecular gradient             ...        0 min,  0.050 sec ( 15.880%)
 printout                       ...        0 min,  0.001 sec (  0.465%)

         :::::::::::::::::::::::::::::::::::::::::::::::::::::
         ::                     SUMMARY                     ::
         :::::::::::::::::::::::::::::::::::::::::::::::::::::
         :: total energy            -220.390196599403 Eh    ::
         :: total w/o Gsasa/hb      -220.313831299627 Eh    ::
         :: gradient norm              0.022340420647 Eh/a0 ::
         :: HOMO-LUMO gap              1.137645304536 eV    ::
         ::.................................................::
         :: SCC energy              -223.908284738685 Eh    ::
         :: -> isotropic ES            0.146517117397 Eh    ::
         :: -> anisotropic ES          0.018819764859 Eh    ::
         :: -> anisotropic XC          0.145175797067 Eh    ::
         :: -> dispersion             -0.210446598681 Eh    ::
         :: -> Gsolv                  -0.099289168897 Eh    ::
         ::    -> Gelec               -0.022923869120 Eh    ::
         ::    -> Gsasa               -0.081178655596 Eh    ::
         ::    -> Ghb                  0.000000000000 Eh    ::
         ::    -> Gshift               0.004813355820 Eh    ::
         :: repulsion energy           3.517566245225 Eh    ::
         :: add. restraining           0.000000000000 Eh    ::
         :: total charge              -0.000000000004 e     ::
         :::::::::::::::::::::::::::::::::::::::::::::::::::::

           -------------------------------------------------
          |                Property Printout                |
           -------------------------------------------------

    * Orbital Energies and Occupations

         #    Occupation            Energy/Eh            Energy/eV
      -------------------------------------------------------------
         1        2.0000           -0.7665420             -20.8587
       ...           ...                  ...                  ...
       191        2.0000           -0.4135049             -11.2520
       192        2.0000           -0.4099841             -11.1562
       193        2.0000           -0.4076101             -11.0916
       194        2.0000           -0.4066475             -11.0654
       195        2.0000           -0.4045652             -11.0088
       196        2.0000           -0.4040133             -10.9938
       197        2.0000           -0.4023464             -10.9484
       198        2.0000           -0.3976410             -10.8204
       199        2.0000           -0.3973540             -10.8126
       200        2.0000           -0.3885909             -10.5741
       201        2.0000           -0.3876560             -10.5487
       202        2.0000           -0.3793119             -10.3216
       203        2.0000           -0.3717678             -10.1163 (HOMO)
       204                         -0.3299601              -8.9787 (LUMO)
       205                         -0.3252635              -8.8509
       206                         -0.3168989              -8.6233
       207                         -0.3015376              -8.2053
       208                         -0.2853076              -7.7636
       209                         -0.2689735              -7.3191
       210                         -0.2620600              -7.1310
       211                         -0.2574875              -7.0066
       212                         -0.2447396              -6.6597
       213                         -0.2437019              -6.6315
       214                         -0.2421022              -6.5879
       ...                                ...                  ...
       411                          1.1620373              31.6206
      -------------------------------------------------------------
                  HL-Gap            0.0418077 Eh            1.1376 eV
             Fermi-level           -0.3508671 Eh           -9.5476 eV

     #   Z          covCN         q      C6AA      α(0)
     1   6 C        2.954    -0.020    28.515     8.759
     2   6 C        2.958    -0.012    28.317     8.728
     3  16 S        2.346    -0.038   142.633    20.101
     4   6 C        2.934     0.115    25.466     8.276
     5   6 C        3.002    -0.026    28.625     8.776
     6   6 C        1.939     0.127    27.979     8.542
     7   7 N        0.911    -0.266    26.887     7.499
     8   6 C        1.922     0.127    27.972     8.541
     9   7 N        0.911    -0.277    27.148     7.536
    10   7 N        2.840    -0.058    22.361     7.023
    11   6 C        3.744     0.005    20.559     6.468
    12   6 C        3.752    -0.111    22.688     6.793
    13   6 C        2.899     0.275    22.362     7.753
    14   8 O        0.858    -0.454    22.780     6.399
    15   6 C        2.997     0.019    27.566     8.613
    16   6 C        3.105     0.005    27.781     8.636
    17   6 C        2.978     0.002    27.976     8.676
    18   6 C        2.928    -0.033    28.817     8.803
    19   6 C        2.919    -0.033    28.812     8.802
    20   6 C        2.918    -0.030    28.758     8.794
    21   6 C        2.927    -0.036    28.901     8.816
    22   6 C        2.968     0.012    27.747     8.640
    23   6 C        3.806    -0.059    21.629     6.621
    24   6 C        3.752    -0.103    22.522     6.768
    25   6 C        3.185     0.011    27.326     8.531
    26  16 S        2.172    -0.025   142.103    20.063
    27   6 C        3.106     0.007    27.736     8.629
    28   6 C        3.074    -0.036    28.805     8.800
    29   6 C        3.337     0.070    24.090     7.770
    30   6 C        3.336     0.070    24.090     7.772
    31   7 N        1.853    -0.294    28.460     7.907
    32  16 S        2.680     0.346   127.724    19.021
    33   7 N        1.853    -0.295    28.496     7.912
    34   6 C        3.074    -0.036    28.803     8.799
    35   6 C        3.102     0.008    27.701     8.625
    36  16 S        2.162    -0.037   142.576    20.097
    37   6 C        3.174     0.014    27.317     8.536
    38   6 C        3.109     0.007    27.716     8.625
    39   6 C        2.979     0.002    27.968     8.675
    40   6 C        2.973     0.013    27.720     8.636
    41   6 C        3.806    -0.058    21.605     6.617
    42   6 C        3.754    -0.099    22.443     6.755
    43   6 C        2.926    -0.030    28.751     8.793
    44   6 C        2.919    -0.025    28.628     8.774
    45   6 C        2.919    -0.031    28.776     8.797
    46   6 C        2.926    -0.033    28.821     8.804
    47   6 C        2.993     0.020    27.563     8.612
    48  16 S        2.325     0.008   140.746    19.967
    49   6 C        3.108    -0.003    27.943     8.661
    50   6 C        3.254     0.031    26.239     8.287
    51   7 N        2.792    -0.035    21.915     6.953
    52   6 C        3.098     0.033    27.152     8.539
    53   6 C        3.099     0.034    27.128     8.535
    54   7 N        2.791    -0.039    21.985     6.964
    55   6 C        3.249     0.031    26.305     8.303
    56   6 C        3.116     0.011    27.612     8.607
    57  16 S        2.350    -0.040   142.697    20.105
    58   6 C        3.742    -0.003    20.714     6.493
    59   6 C        3.752    -0.115    22.768     6.804
    60   6 C        3.742    -0.005    20.735     6.497
    61   6 C        3.752    -0.116    22.774     6.805
    62   6 C        2.918    -0.012    28.322     8.727
    63   6 C        3.006    -0.040    28.987     8.832
    64   6 C        2.876     0.231    23.168     7.890
    65   8 O        0.975    -0.403    21.677     6.245
    66   6 C        3.060    -0.021    28.464     8.749
    67   6 C        2.904    -0.022    28.546     8.761
    68   6 C        3.261     0.010    26.620     8.335
    69   6 C        3.257     0.012    26.635     8.344
    70   6 C        2.904    -0.034    28.839     8.806
    71   6 C        3.050     0.005    27.866     8.658
    72   6 C        3.020     0.036    27.175     8.551
    73   6 C        2.947     0.007    27.869     8.658
    74   6 C        1.949     0.131    27.879     8.527
    75   7 N        0.911    -0.272    27.034     7.520
    76   6 C        1.950     0.134    27.802     8.515
    77   7 N        0.911    -0.269    26.953     7.509
    78   6 C        4.164    -0.024    20.922     6.496
    79   6 C        4.012    -0.015    20.765     6.474
    80   6 C        2.988    -0.041    29.016     8.836
    81   6 C        2.987    -0.042    29.034     8.839
    82   6 C        4.012    -0.015    20.765     6.473
    83   6 C        3.926    -0.060    21.593     6.604
    84   6 C        4.162    -0.024    20.922     6.496
    85   1 H        0.925     0.092     1.859     2.132
    86   1 H        0.924     0.065     2.138     2.287
    87   1 H        0.924     0.086     1.916     2.165
    88   1 H        0.925     0.065     2.144     2.290
    89   1 H        0.925     0.048     2.339     2.392
    90   1 H        0.925     0.054     2.269     2.355
    91   1 H        0.926     0.037     2.485     2.465
    92   1 H        0.926     0.041     2.438     2.442
    93   1 H        0.926     0.041     2.442     2.444
    94   1 H        0.926     0.044     2.401     2.423
    95   1 H        0.924     0.047     2.357     2.401
    96   1 H        0.924     0.031     2.566     2.505
    97   1 H        0.925     0.043     2.412     2.429
    98   1 H        0.925     0.039     2.456     2.450
    99   1 H        0.925     0.037     2.493     2.469
   100   1 H        0.924     0.030     2.589     2.516
   101   1 H        0.924     0.041     2.433     2.439
   102   1 H        0.925     0.041     2.439     2.442
   103   1 H        0.925     0.038     2.477     2.461
   104   1 H        0.925     0.035     2.517     2.481
   105   1 H        0.926     0.044     2.400     2.422
   106   1 H        0.926     0.043     2.414     2.430
   107   1 H        0.926     0.040     2.455     2.450
   108   1 H        0.926     0.033     2.537     2.491
   109   1 H        0.925     0.073     2.050     2.239
   110   1 H        0.924     0.066     2.126     2.280
   111   1 H        0.925     0.052     2.295     2.369
   112   1 H        0.925     0.047     2.353     2.399
   113   1 H        0.925     0.060     2.196     2.317
   114   1 H        0.925     0.071     2.074     2.252
   115   1 H        0.924     0.070     2.082     2.257
   116   1 H        0.925     0.056     2.250     2.346
   117   1 H        0.925     0.059     2.214     2.327
   118   1 H        0.925     0.046     2.368     2.406
   119   1 H        0.925     0.073     2.052     2.240
   120   1 H        0.926     0.061     2.182     2.310
   121   1 H        0.926     0.059     2.215     2.328
   122   1 H        0.925     0.049     2.326     2.385
   123   1 H        0.925     0.040     2.455     2.450
   124   1 H        0.926     0.032     2.552     2.498
   125   1 H        0.926     0.032     2.553     2.498
   126   1 H        0.925     0.039     2.468     2.457
   127   1 H        0.925     0.043     2.411     2.428
   128   1 H        0.925     0.042     2.427     2.436
   129   1 H        0.925     0.049     2.335     2.389

 Mol. C6AA /au·bohr⁶  :     287841.424848
 Mol. C8AA /au·bohr⁸  :    8010903.354232
 Mol. α(0) /au        :        851.674571


Wiberg/Mayer (AO) data.
largest (>0.10) Wiberg bond orders for each atom

 ---------------------------------------------------------------------------
     #   Z sym  total        # sym  WBO       # sym  WBO       # sym  WBO
 ---------------------------------------------------------------------------
     1   6 C    3.957 --     2 C    1.543    15 C    1.272    85 H    0.935
     2   6 C    3.911 --     1 C    1.543    13 C    1.075     3 S    1.062
     3  16 S    2.529 --     4 C    1.094     2 C    1.062
     4   6 C    3.947 --     5 C    1.419    10 N    1.210     3 S    1.094
     5   6 C    3.934 --     4 C    1.419     8 C    1.115     6 C    1.102
     6   6 C    3.946 --     7 N    2.761     5 C    1.102
     7   7 N    2.977 --     6 C    2.761
     8   6 C    3.947 --     9 N    2.742     5 C    1.115
     9   7 N    2.972 --     8 C    2.742
    10   7 N    3.593 --     4 C    1.210    13 C    1.100    11 C    0.960
                            14 O    0.126
    11   6 C    3.948 --    12 C    1.008    86 H    0.962    87 H    0.961
                            10 N    0.960
    12   6 C    3.989 --    11 C    1.008    90 H    0.986    89 H    0.984
                            88 H    0.980
    13   6 C    3.928 --    14 O    1.643    10 N    1.100     2 C    1.075
    14   8 O    1.976 --    13 C    1.643    10 N    0.126
    15   6 C    3.926 --    16 C    1.365     1 C    1.272    57 S    1.074
    16   6 C    3.962 --    15 C    1.365    25 C    1.314    17 C    1.024
    17   6 C    3.985 --    18 C    1.385    22 C    1.373    16 C    1.024
                            20 C    0.103
    18   6 C    3.985 --    19 C    1.453    17 C    1.385    91 H    0.970
                            21 C    0.110
    19   6 C    3.990 --    18 C    1.453    20 C    1.425    92 H    0.969
                            22 C    0.106
    20   6 C    3.987 --    21 C    1.452    19 C    1.425    93 H    0.970
                            17 C    0.103
    21   6 C    3.990 --    20 C    1.452    22 C    1.408    94 H    0.966
                            18 C    0.110
    22   6 C    3.985 --    21 C    1.408    17 C    1.373    23 C    1.013
                            19 C    0.106
    23   6 C    3.997 --    22 C    1.013    24 C    1.006    96 H    0.974
                            95 H    0.963
    24   6 C    3.994 --    23 C    1.006    99 H    0.987    97 H    0.985
                            98 H    0.983
    25   6 C    3.927 --    16 C    1.314    56 C    1.309    26 S    1.091
    26  16 S    2.516 --    27 C    1.117    25 C    1.091
    27   6 C    3.916 --    55 C    1.304    28 C    1.266    26 S    1.117
    28   6 C    3.954 --    53 C    1.276    27 C    1.266    29 C    1.171
    29   6 C    3.971 --    33 N    1.427    28 C    1.171    30 C    1.162
                            32 S    0.104
    30   6 C    3.971 --    31 N    1.428    34 C    1.172    29 C    1.162
                            32 S    0.103
    31   7 N    3.064 --    30 C    1.428    32 S    1.387    33 N    0.143
    32  16 S    3.098 --    33 N    1.387    31 N    1.387    29 C    0.104
                            30 C    0.103
    33   7 N    3.063 --    29 C    1.427    32 S    1.387    31 N    0.143
    34   6 C    3.955 --    35 C    1.271    52 C    1.270    30 C    1.172
    35   6 C    3.914 --    50 C    1.303    34 C    1.271    36 S    1.116
    36  16 S    2.502 --    35 C    1.116    37 C    1.079
    37   6 C    3.927 --    38 C    1.351    49 C    1.290    36 S    1.079
    38   6 C    3.956 --    37 C    1.351    47 C    1.323    39 C    1.020
    39   6 C    3.985 --    46 C    1.394    40 C    1.367    38 C    1.020
                            44 C    0.106
    40   6 C    3.985 --    43 C    1.415    39 C    1.367    41 C    1.013
                            45 C    0.107
    41   6 C    3.997 --    40 C    1.013    42 C    1.000   101 H    0.974
                           100 H    0.970
    42   6 C    3.996 --    41 C    1.000   102 H    0.988   104 H    0.987
                           103 H    0.986
    43   6 C    3.990 --    44 C    1.444    40 C    1.415   105 H    0.967
                            46 C    0.109
    44   6 C    3.988 --    43 C    1.444    45 C    1.433   106 H    0.970
                            39 C    0.106
    45   6 C    3.990 --    46 C    1.445    44 C    1.433   107 H    0.969
                            40 C    0.107
    46   6 C    3.988 --    45 C    1.445    39 C    1.394   108 H    0.970
                            43 C    0.109
    47   6 C    3.930 --    38 C    1.323    62 C    1.311    48 S    1.083
    48  16 S    2.726 --    49 C    1.153    47 C    1.083    65 O    0.136
    49   6 C    3.942 --    37 C    1.290    50 C    1.258    48 S    1.153
    50   6 C    3.938 --    35 C    1.303    49 C    1.258    51 N    1.150
    51   7 N    3.543 --    52 C    1.172    50 C    1.150    60 C    0.973
    52   6 C    3.933 --    34 C    1.270    53 C    1.227    51 N    1.172
    53   6 C    3.932 --    28 C    1.276    52 C    1.227    54 N    1.167
    54   7 N    3.536 --    53 C    1.167    55 C    1.148    58 C    0.973
    55   6 C    3.938 --    27 C    1.304    56 C    1.259    54 N    1.148
    56   6 C    3.924 --    25 C    1.309    55 C    1.259    57 S    1.125
    57  16 S    2.565 --    56 C    1.125    15 C    1.074
    58   6 C    3.959 --    59 C    1.006    54 N    0.973   110 H    0.967
                           109 H    0.965
    59   6 C    3.988 --    58 C    1.006   112 H    0.987   111 H    0.983
                           113 H    0.982
    60   6 C    3.958 --    61 C    1.005    51 N    0.973   115 H    0.966
                           114 H    0.965
    61   6 C    3.988 --    60 C    1.005   118 H    0.987   116 H    0.983
                           117 H    0.982
    62   6 C    3.945 --    63 C    1.487    47 C    1.311   119 H    0.933
    63   6 C    3.952 --    62 C    1.487    72 C    1.140    64 C    1.071
    64   6 C    3.910 --    65 O    1.674    63 C    1.071    66 C    1.035
    65   8 O    2.085 --    64 C    1.674    48 S    0.136
    66   6 C    3.971 --    67 C    1.380    71 C    1.306    64 C    1.035
    67   6 C    3.980 --    68 C    1.442    66 C    1.380   120 H    0.963
    68   6 C    3.955 --    67 C    1.442    69 C    1.327    84 C    0.996
    69   6 C    3.964 --    70 C    1.447    68 C    1.327    78 C    0.997
    70   6 C    3.977 --    69 C    1.447    71 C    1.368   121 H    0.958
    71   6 C    3.976 --    70 C    1.368    66 C    1.306    72 C    1.088
    72   6 C    3.970 --    73 C    1.477    63 C    1.140    71 C    1.088
    73   6 C    3.947 --    72 C    1.477    74 C    1.100    76 C    1.098
    74   6 C    3.942 --    75 N    2.743    73 C    1.100
    75   7 N    2.957 --    74 C    2.743
    76   6 C    3.941 --    77 N    2.752    73 C    1.098
    77   7 N    2.960 --    76 C    2.752
    78   6 C    3.985 --    69 C    0.997    84 C    0.978   122 H    0.959
                            79 C    0.947
    79   6 C    3.989 --    80 C    1.010    83 C    0.985   123 H    0.972
                            78 C    0.947
    80   6 C    3.987 --    81 C    1.924    79 C    1.010   124 H    0.971
    81   6 C    3.987 --    80 C    1.924    82 C    1.010   125 H    0.971
    82   6 C    3.989 --    81 C    1.010    83 C    0.985   126 H    0.972
                            84 C    0.947
    83   6 C    3.993 --    79 C    0.985    82 C    0.985   128 H    0.977
                           127 H    0.976
    84   6 C    3.984 --    68 C    0.996    78 C    0.978   129 H    0.959
                            82 C    0.947
    85   1 H    0.991 --     1 C    0.935
    86   1 H    0.995 --    11 C    0.962
    87   1 H    0.992 --    11 C    0.961
    88   1 H    0.995 --    12 C    0.980
    89   1 H    0.998 --    12 C    0.984
    90   1 H    0.997 --    12 C    0.986
    91   1 H    0.998 --    18 C    0.970
    92   1 H    0.997 --    19 C    0.969
    93   1 H    0.998 --    20 C    0.970
    94   1 H    0.997 --    21 C    0.966
    95   1 H    0.998 --    23 C    0.963
    96   1 H    0.999 --    23 C    0.974
    97   1 H    0.998 --    24 C    0.985
    98   1 H    0.998 --    24 C    0.983
    99   1 H    0.998 --    24 C    0.987
   100   1 H    0.999 --    41 C    0.970
   101   1 H    0.998 --    41 C    0.974
   102   1 H    0.998 --    42 C    0.988
   103   1 H    0.998 --    42 C    0.986
   104   1 H    0.999 --    42 C    0.987
   105   1 H    0.997 --    43 C    0.967
   106   1 H    0.997 --    44 C    0.970
   107   1 H    0.997 --    45 C    0.969
   108   1 H    0.999 --    46 C    0.970
   109   1 H    0.994 --    58 C    0.965
   110   1 H    0.993 --    58 C    0.967
   111   1 H    0.997 --    59 C    0.983
   112   1 H    0.998 --    59 C    0.987
   113   1 H    0.996 --    59 C    0.982
   114   1 H    0.994 --    60 C    0.965
   115   1 H    0.993 --    60 C    0.966
   116   1 H    0.997 --    61 C    0.983
   117   1 H    0.996 --    61 C    0.982
   118   1 H    0.998 --    61 C    0.987
   119   1 H    0.994 --    62 C    0.933
   120   1 H    0.996 --    67 C    0.963
   121   1 H    0.996 --    70 C    0.958
   122   1 H    0.996 --    78 C    0.959
   123   1 H    0.998 --    79 C    0.972
   124   1 H    0.999 --    80 C    0.971
   125   1 H    0.999 --    81 C    0.971
   126   1 H    0.998 --    82 C    0.972
   127   1 H    0.996 --    83 C    0.976
   128   1 H    0.998 --    83 C    0.977
   129   1 H    0.996 --    84 C    0.959
 ---------------------------------------------------------------------------

Topologies differ in bond orders
Writing corrected topology to xtbtopo.mol

molecular dipole:
                 x           y           z       tot (Debye)
 q only:        1.147       0.834      -0.172
   full:        1.438       0.791      -0.560       4.408
molecular quadrupole (traceless):
                xx          xy          yy          xz          yz          zz
 q only:       29.750      -7.846      63.322      41.264     -51.596     -93.073
  q+dip:       42.367      -9.055      50.975      47.092     -67.475     -93.343
   full:       50.913      -7.413      48.540      51.978     -65.775     -99.453


           -------------------------------------------------
          | TOTAL ENERGY             -220.390196599403 Eh   |
          | GRADIENT NORM               0.022340420647 Eh/α |
          | HOMO-LUMO GAP               1.137645304536 eV   |
           -------------------------------------------------

------------------------------------------------------------------------
 * finished run on 2022/02/02 at 06:26:24.553     
------------------------------------------------------------------------
 total:
 * wall-time:     0 d,  0 h,  0 min,  0.389 sec
 *  cpu-time:     0 d,  0 h,  0 min,  3.009 sec
 * ratio c/w:     7.735 speedup
 SCF:
 * wall-time:     0 d,  0 h,  0 min,  0.317 sec
 *  cpu-time:     0 d,  0 h,  0 min,  2.530 sec
 * ratio c/w:     7.971 speedup

