      -----------------------------------------------------------      
     |                   =====================                   |     
     |                           x T B                           |     
     |                   =====================                   |     
     |                         S. Grimme                         |     
     |          Mulliken Center for Theoretical Chemistry        |     
     |                    University of Bonn                     |     
      -----------------------------------------------------------      

   * xtb version 6.4.1 (unknown) compiled by 'oda6@login1.crc.pitt.edu' on 2021-06-25

   xtb is free software: you can redistribute it and/or modify it under
   the terms of the GNU Lesser General Public License as published by
   the Free Software Foundation, either version 3 of the License, or
   (at your option) any later version.
   
   xtb is distributed in the hope that it will be useful,
   but WITHOUT ANY WARRANTY; without even the implied warranty of
   MERCHANTABILITY or FITNESS FOR A PARTICULAR PURPOSE.  See the
   GNU Lesser General Public License for more details.
   
   Cite this work as:
   * C. Bannwarth, E. Caldeweyher, S. Ehlert, A. Hansen, P. Pracht,
     J. Seibert, S. Spicher, S. Grimme, WIREs Comput. Mol. Sci., 2020, 11,
     e01493. DOI: 10.1002/wcms.1493
   
   for GFN2-xTB:
   * C. Bannwarth, S. Ehlert and S. Grimme., J. Chem. Theory Comput., 2019,
     15, 1652-1671. DOI: 10.1021/acs.jctc.8b01176
   for GFN1-xTB:
   * S. Grimme, C. Bannwarth, P. Shushkov, J. Chem. Theory Comput., 2017,
     13, 1989-2009. DOI: 10.1021/acs.jctc.7b00118
   for GFN0-xTB:
   * P. Pracht, E. Caldeweyher, S. Ehlert, S. Grimme, ChemRxiv, 2019, preprint.
     DOI: 10.26434/chemrxiv.8326202.v1
   for GFN-FF:
   * S. Spicher and S. Grimme, Angew. Chem. Int. Ed., 2020, 59, 15665-15673.
     DOI: 10.1002/anie.202004239
   
   for DFT-D4:
   * E. Caldeweyher, C. Bannwarth and S. Grimme, J. Chem. Phys., 2017,
     147, 034112. DOI: 10.1063/1.4993215
   * E. Caldeweyher, S. Ehlert, A. Hansen, H. Neugebauer, S. Spicher,
     C. Bannwarth and S. Grimme, J. Chem. Phys., 2019, 150, 154122.
     DOI: 10.1063/1.5090222
   * E. Caldeweyher, J.-M. Mewes, S. Ehlert and S. Grimme, Phys. Chem. Chem. Phys.
     2020, 22, 8499-8512. DOI: 10.1039/D0CP00502A
   
   for sTDA-xTB:
   * S. Grimme and C. Bannwarth, J. Chem. Phys., 2016, 145, 054103.
     DOI: 10.1063/1.4959605
   
   in the mass-spec context:
   * V. Asgeirsson, C. Bauer and S. Grimme, Chem. Sci., 2017, 8, 4879.
     DOI: 10.1039/c7sc00601b
   * J. Koopman and S. Grimme, ACS Omega 2019, 4, 12, 15120-15133.
     DOI: 10.1021/acsomega.9b02011
   
   for metadynamics refer to:
   * S. Grimme, J. Chem. Theory Comput., 2019, 155, 2847-2862
     DOI: 10.1021/acs.jctc.9b00143
   
   for SPH calculations refer to:
   * S. Spicher and S. Grimme, J. Chem. Theory Comput., 2021, 17, 1701-1714
     DOI: 10.1021/acs.jctc.0c01306
   
   with help from (in alphabetical order)
   P. Atkinson, C. Bannwarth, F. Bohle, G. Brandenburg, E. Caldeweyher
   M. Checinski, S. Dohm, S. Ehlert, S. Ehrlich, I. Gerasimov, J. Koopman
   C. Lavigne, S. Lehtola, F. März, M. Müller, F. Musil, H. Neugebauer
   J. Pisarek, C. Plett, P. Pracht, J. Seibert, P. Shushkov, S. Spicher
   M. Stahn, M. Steiner, T. Strunk, J. Stückrath, T. Rose, and J. Unsleber
   
 * started run on 2022/02/01 at 23:40:04.206     

           -------------------------------------------------
          |                Calculation Setup                |
           -------------------------------------------------

          program call               : /ihome/ghutchison/oda6/xtb/xtb-641/bin/xtb ../../GFN2_output/54_51_57.mol --sp --alpb hexane
          hostname                   : smp-n66
          coordinate file            : ../../GFN2_output/54_51_57.mol
          omp threads                :                     8
          number of atoms            :                   103
          number of electrons        :                   348
          charge                     :                     0
          spin                       :                   0.0
          first test random number   :      0.73131928088243

   ID    Z sym.   atoms
    1    6 C      1-3, 5-8, 10-14, 16, 18-22, 24-27, 31, 32, 34-38, 40, 41,
                  43, 44, 46, 47, 49-55, 57-60, 63-69, 71
    2    8 O      4, 56, 61, 62
    3    9 F      9
    4    7 N      15, 17, 28, 30, 42, 45, 70, 72
    5   16 S      23, 29, 33, 39, 48
    6    1 H      73-103

           -------------------------------------------------
          |                 G F N 2 - x T B                 |
           -------------------------------------------------

        Reference                      10.1021/acs.jctc.8b01176
      * Hamiltonian:
        H0-scaling (s, p, d)           1.850000    2.230000    2.230000
        zeta-weighting                 0.500000
      * Dispersion:
        s8                             2.700000
        a1                             0.520000
        a2                             5.000000
        s9                             5.000000
      * Repulsion:
        kExp                           1.500000    1.000000
        rExp                           1.000000
      * Coulomb:
        alpha                          2.000000
        third order                    shell-resolved
        anisotropic                    true
        a3                             3.000000
        a5                             4.000000
        cn-shift                       1.200000
        cn-exp                         4.000000
        max-rad                        5.000000

      * Solvation model:               ALPB
        Solvent                        hexane
        Parameter file                 internal GFN2-xTB/ALPB
        Dielectric constant                1.8800E+00
        Reference state                gsolv [1 M gas/solution]
        Free energy shift                  4.8134E-03 Eh       3.0204E+00 kcal/mol
        Temperature                        2.9815E+02 K
        Density                            6.6000E-01 kg/L
        Solvent mass                       8.6180E+01 g/mol
        Interaction kernel             P16
        Born radius scaling (c1)           1.1040E+00
        Born radii integrator          GBOBC
        Born offset                        0.0000E+00 a0       0.0000E+00 AA
        H-bond correction              false
        Ion screening                  false
        Surface tension                    1.0000E-05 Eh       1.5569E+01 dyn/cm
        Grid points                               230 per atom

          ...................................................
          :                      SETUP                      :
          :.................................................:
          :  # basis functions                 349          :
          :  # atomic orbitals                 344          :
          :  # shells                          180          :
          :  # electrons                       348          :
          :  max. iterations                   250          :
          :  Hamiltonian                  GFN2-xTB          :
          :  restarted?                      false          :
          :  GBSA solvation                   true          :
          :  PC potential                    false          :
          :  electronic temp.          300.0000000     K    :
          :  accuracy                    1.0000000          :
          :  -> integral cutoff          0.2500000E+02      :
          :  -> integral neglect         0.1000000E-07      :
          :  -> SCF convergence          0.1000000E-05 Eh   :
          :  -> wf. convergence          0.1000000E-03 e    :
          :  Broyden damping             0.4000000          :
          ...................................................

 iter      E             dE          RMSdq      gap      omega  full diag
   1   -194.7234196 -0.194723E+03  0.489E+00    1.28       0.0  T
   2   -194.9300006 -0.206581E+00  0.288E+00    0.99       1.0  T
   3   -194.8780590  0.519417E-01  0.153E+00    1.04       1.0  T
   4   -194.9824219 -0.104363E+00  0.555E-01    1.07       1.0  T
   5   -195.0019965 -0.195745E-01  0.163E-01    0.99       1.0  T
   6   -195.0030432 -0.104673E-02  0.835E-02    1.04       1.0  T
   7   -195.0033067 -0.263523E-03  0.313E-02    1.02       1.0  T
   8   -195.0033439 -0.371863E-04  0.136E-02    1.03       1.0  T
   9   -195.0033495 -0.565414E-05  0.663E-03    1.03       1.5  T
  10   -195.0033508 -0.124071E-05  0.316E-03    1.03       3.1  T
  11   -195.0033512 -0.366555E-06  0.153E-03    1.03       6.5  T
  12   -195.0033512 -0.299298E-07  0.807E-04    1.03      12.2  T
  13   -195.0033512 -0.199284E-07  0.352E-04    1.03      28.0  T

   *** convergence criteria satisfied after 13 iterations ***

         #    Occupation            Energy/Eh            Energy/eV
      -------------------------------------------------------------
         1        2.0000           -0.8432397             -22.9457
       ...           ...                  ...                  ...
       168        2.0000           -0.4126319             -11.2283
       169        2.0000           -0.4116257             -11.2009
       170        2.0000           -0.4087337             -11.1222
       171        2.0000           -0.3972567             -10.8099
       172        2.0000           -0.3911174             -10.6428
       173        2.0000           -0.3824492             -10.4070
       174        2.0000           -0.3772492             -10.2655 (HOMO)
       175                         -0.3395329              -9.2392 (LUMO)
       176                         -0.3362464              -9.1497
       177                         -0.3262087              -8.8766
       178                         -0.3224885              -8.7754
       179                         -0.3039707              -8.2715
       ...                                ...                  ...
       344                          1.1525519              31.3625
      -------------------------------------------------------------
                  HL-Gap            0.0377163 Eh            1.0263 eV
             Fermi-level           -0.3584037 Eh           -9.7527 eV

 SCC (total)                   0 d,  0 h,  0 min,  0.228 sec
 SCC setup                      ...        0 min,  0.002 sec (  0.954%)
 Dispersion                     ...        0 min,  0.004 sec (  1.729%)
 classical contributions        ...        0 min,  0.000 sec (  0.054%)
 integral evaluation            ...        0 min,  0.012 sec (  5.409%)
 iterations                     ...        0 min,  0.176 sec ( 77.322%)
 molecular gradient             ...        0 min,  0.032 sec ( 14.172%)
 printout                       ...        0 min,  0.001 sec (  0.329%)

         :::::::::::::::::::::::::::::::::::::::::::::::::::::
         ::                     SUMMARY                     ::
         :::::::::::::::::::::::::::::::::::::::::::::::::::::
         :: total energy            -192.093380345727 Eh    ::
         :: total w/o Gsasa/hb      -192.031831112721 Eh    ::
         :: gradient norm              0.024294824870 Eh/a0 ::
         :: HOMO-LUMO gap              1.026313023704 eV    ::
         ::.................................................::
         :: SCC energy              -195.003351204709 Eh    ::
         :: -> isotropic ES            0.193923159381 Eh    ::
         :: -> anisotropic ES          0.005351815816 Eh    ::
         :: -> anisotropic XC          0.115919680819 Eh    ::
         :: -> dispersion             -0.167076122153 Eh    ::
         :: -> Gsolv                  -0.089203137866 Eh    ::
         ::    -> Gelec               -0.027653904860 Eh    ::
         ::    -> Gsasa               -0.066362588826 Eh    ::
         ::    -> Ghb                  0.000000000000 Eh    ::
         ::    -> Gshift               0.004813355820 Eh    ::
         :: repulsion energy           2.910487600279 Eh    ::
         :: add. restraining           0.000000000000 Eh    ::
         :: total charge              -0.000000000131 e     ::
         :::::::::::::::::::::::::::::::::::::::::::::::::::::

           -------------------------------------------------
          |                Property Printout                |
           -------------------------------------------------

    * Orbital Energies and Occupations

         #    Occupation            Energy/Eh            Energy/eV
      -------------------------------------------------------------
         1        2.0000           -0.8432397             -22.9457
       ...           ...                  ...                  ...
       162        2.0000           -0.4301682             -11.7055
       163        2.0000           -0.4274683             -11.6320
       164        2.0000           -0.4254143             -11.5761
       165        2.0000           -0.4229472             -11.5090
       166        2.0000           -0.4190654             -11.4033
       167        2.0000           -0.4166976             -11.3389
       168        2.0000           -0.4126319             -11.2283
       169        2.0000           -0.4116257             -11.2009
       170        2.0000           -0.4087337             -11.1222
       171        2.0000           -0.3972567             -10.8099
       172        2.0000           -0.3911174             -10.6428
       173        2.0000           -0.3824492             -10.4070
       174        2.0000           -0.3772492             -10.2655 (HOMO)
       175                         -0.3395329              -9.2392 (LUMO)
       176                         -0.3362464              -9.1497
       177                         -0.3262087              -8.8766
       178                         -0.3224885              -8.7754
       179                         -0.3039707              -8.2715
       180                         -0.2850973              -7.7579
       181                         -0.2790277              -7.5927
       182                         -0.2690768              -7.3220
       183                         -0.2577201              -7.0129
       184                         -0.2508775              -6.8267
       185                         -0.2501476              -6.8069
       ...                                ...                  ...
       344                          1.1525519              31.3625
      -------------------------------------------------------------
                  HL-Gap            0.0377163 Eh            1.0263 eV
             Fermi-level           -0.3584037 Eh           -9.7527 eV

     #   Z          covCN         q      C6AA      α(0)
     1   6 C        2.928    -0.007    28.200     8.709
     2   6 C        3.011    -0.036    28.875     8.815
     3   6 C        2.871     0.236    23.078     7.875
     4   8 O        0.856    -0.404    21.770     6.256
     5   6 C        3.042    -0.020    28.457     8.750
     6   6 C        2.916    -0.012    28.323     8.727
     7   6 C        2.919    -0.040    28.993     8.830
     8   6 C        2.789     0.185    24.029     8.030
     9   9 F        0.788    -0.226    11.503     4.006
    10   6 C        2.911    -0.044    29.087     8.844
    11   6 C        3.043     0.015    27.646     8.624
    12   6 C        3.021     0.042    27.042     8.530
    13   6 C        2.948     0.012    27.756     8.641
    14   6 C        1.935     0.134    27.812     8.517
    15   7 N        0.911    -0.270    26.985     7.513
    16   6 C        1.930     0.131    27.877     8.527
    17   7 N        0.911    -0.262    26.794     7.486
    18   6 C        2.996     0.021    27.528     8.607
    19   6 C        3.100     0.014    27.569     8.604
    20   6 C        3.804    -0.056    21.572     6.612
    21   6 C        3.754    -0.103    22.517     6.766
    22   6 C        3.195     0.011    27.248     8.511
    23  16 S        2.176    -0.011   141.529    20.023
    24   6 C        3.099     0.006    27.769     8.636
    25   6 C        3.088    -0.035    28.765     8.791
    26   6 C        3.343     0.070    23.962     7.734
    27   6 C        3.342     0.070    23.970     7.737
    28   7 N        1.855    -0.295    28.501     7.913
    29  16 S        2.689     0.355   127.425    18.999
    30   7 N        1.854    -0.296    28.511     7.914
    31   6 C        3.088    -0.036    28.783     8.794
    32   6 C        3.095     0.008    27.716     8.628
    33  16 S        2.164    -0.031   142.316    20.078
    34   6 C        3.182     0.012    27.321     8.532
    35   6 C        3.094     0.009    27.711     8.628
    36   6 C        3.804    -0.058    21.605     6.617
    37   6 C        3.754    -0.103    22.519     6.767
    38   6 C        2.992     0.020    27.559     8.611
    39  16 S        2.325     0.001   141.001    19.985
    40   6 C        3.106    -0.002    27.927     8.659
    41   6 C        3.250     0.028    26.345     8.308
    42   7 N        2.799    -0.023    21.683     6.916
    43   6 C        3.069     0.035    27.155     8.545
    44   6 C        3.069     0.035    27.143     8.543
    45   7 N        2.798    -0.028    21.781     6.931
    46   6 C        3.251     0.030    26.312     8.303
    47   6 C        3.119     0.013    27.543     8.596
    48  16 S        2.255    -0.065   143.769    20.181
    49   6 C        3.744    -0.006    20.762     6.500
    50   6 C        3.752    -0.114    22.747     6.801
    51   6 C        3.744    -0.010    20.832     6.511
    52   6 C        3.752    -0.114    22.751     6.802
    53   6 C        2.920    -0.013    28.335     8.729
    54   6 C        3.007    -0.040    28.979     8.830
    55   6 C        2.873     0.232    23.141     7.886
    56   8 O        0.967    -0.395    21.537     6.225
    57   6 C        3.044    -0.013    28.292     8.724
    58   6 C        2.913    -0.008    28.229     8.712
    59   6 C        2.974    -0.011    28.291     8.725
    60   6 C        2.732     0.360    20.891     7.483
    61   8 O        0.856    -0.439    22.480     6.357
    62   8 O        1.705    -0.264    18.383     5.789
    63   6 C        3.659     0.031    20.336     6.472
    64   6 C        2.926    -0.010    28.267     8.719
    65   6 C        2.912    -0.023    28.575     8.766
    66   6 C        3.035     0.017    27.604     8.618
    67   6 C        3.019     0.036    27.176     8.551
    68   6 C        2.947     0.011    27.781     8.645
    69   6 C        1.945     0.132    27.864     8.524
    70   7 N        0.911    -0.265    26.860     7.496
    71   6 C        1.947     0.133    27.833     8.520
    72   7 N        0.911    -0.260    26.744     7.479
    73   1 H        0.925     0.086     1.915     2.164
    74   1 H        0.926     0.078     1.995     2.209
    75   1 H        0.926     0.081     1.971     2.195
    76   1 H        0.926     0.082     1.963     2.191
    77   1 H        0.924     0.056     2.250     2.345
    78   1 H        0.924     0.061     2.192     2.315
    79   1 H        0.925     0.051     2.302     2.373
    80   1 H        0.925     0.043     2.411     2.428
    81   1 H        0.925     0.051     2.306     2.375
    82   1 H        0.924     0.057     2.237     2.339
    83   1 H        0.924     0.061     2.182     2.310
    84   1 H        0.925     0.057     2.234     2.337
    85   1 H        0.925     0.044     2.393     2.419
    86   1 H        0.925     0.042     2.421     2.433
    87   1 H        0.925     0.073     2.052     2.240
    88   1 H        0.924     0.072     2.059     2.244
    89   1 H        0.925     0.052     2.301     2.372
    90   1 H        0.925     0.058     2.219     2.329
    91   1 H        0.925     0.051     2.308     2.376
    92   1 H        0.925     0.072     2.060     2.245
    93   1 H        0.924     0.083     1.953     2.186
    94   1 H        0.925     0.050     2.326     2.385
    95   1 H        0.925     0.058     2.228     2.334
    96   1 H        0.925     0.051     2.306     2.375
    97   1 H        0.925     0.082     1.960     2.189
    98   1 H        0.926     0.081     1.971     2.196
    99   1 H        0.925     0.080     1.976     2.198
   100   1 H        0.924     0.069     2.092     2.262
   101   1 H        0.924     0.070     2.089     2.260
   102   1 H        0.926     0.081     1.965     2.192
   103   1 H        0.926     0.072     2.068     2.249

 Mol. C6AA /au·bohr⁶  :     196029.443540
 Mol. C8AA /au·bohr⁸  :    5486669.413615
 Mol. α(0) /au        :        702.075721


Wiberg/Mayer (AO) data.
largest (>0.10) Wiberg bond orders for each atom

 ---------------------------------------------------------------------------
     #   Z sym  total        # sym  WBO       # sym  WBO       # sym  WBO
 ---------------------------------------------------------------------------
     1   6 C    3.943 --     2 C    1.529    18 C    1.263    73 H    0.939
     2   6 C    3.954 --     1 C    1.529    12 C    1.143     3 C    1.023
     3   6 C    3.916 --     4 O    1.750     2 C    1.023     5 C    1.018
     4   8 O    2.024 --     3 C    1.750
     5   6 C    3.974 --     6 C    1.417    11 C    1.293     3 C    1.018
     6   6 C    3.979 --     7 C    1.427     5 C    1.417    74 H    0.964
     7   6 C    3.968 --     6 C    1.427     8 C    1.392    75 H    0.964
     8   6 C    3.874 --     7 C    1.392    10 C    1.382     9 F    0.962
     9   9 F    1.091 --     8 C    0.962
    10   6 C    3.975 --    11 C    1.412     8 C    1.382    76 H    0.958
    11   6 C    3.982 --    10 C    1.412     5 C    1.293    12 C    1.075
    12   6 C    3.972 --    13 C    1.476     2 C    1.143    11 C    1.075
    13   6 C    3.970 --    12 C    1.476    16 C    1.104    14 C    1.098
    14   6 C    3.945 --    15 N    2.758    13 C    1.098
    15   7 N    2.974 --    14 C    2.758
    16   6 C    3.944 --    17 N    2.759    13 C    1.104
    17   7 N    2.963 --    16 C    2.759
    18   6 C    3.923 --    19 C    1.388     1 C    1.263    48 S    1.062
    19   6 C    3.964 --    18 C    1.388    22 C    1.317    20 C    1.019
    20   6 C    3.991 --    19 C    1.019    21 C    0.990    78 H    0.969
                            77 H    0.962
    21   6 C    3.987 --    20 C    0.990    79 H    0.987    80 H    0.987
                            81 H    0.984
    22   6 C    3.930 --    19 C    1.317    47 C    1.315    23 S    1.090
    23  16 S    2.522 --    24 C    1.119    22 C    1.090
    24   6 C    3.918 --    46 C    1.291    25 C    1.279    23 S    1.119
    25   6 C    3.954 --    24 C    1.279    44 C    1.267    26 C    1.170
    26   6 C    3.972 --    30 N    1.422    27 C    1.171    25 C    1.170
                            29 S    0.103
    27   6 C    3.972 --    28 N    1.422    26 C    1.171    31 C    1.171
                            29 S    0.102
    28   7 N    3.062 --    27 C    1.422    29 S    1.390    30 N    0.144
    29  16 S    3.108 --    28 N    1.390    30 N    1.390    26 C    0.103
                            27 C    0.102
    30   7 N    3.062 --    26 C    1.422    29 S    1.390    28 N    0.144
    31   6 C    3.954 --    32 C    1.286    43 C    1.259    27 C    1.171
    32   6 C    3.914 --    41 C    1.293    31 C    1.286    33 S    1.113
    33  16 S    2.501 --    32 C    1.113    34 C    1.077
    34   6 C    3.927 --    35 C    1.371    40 C    1.284    33 S    1.077
    35   6 C    3.955 --    34 C    1.371    38 C    1.319    36 C    1.019
    36   6 C    3.992 --    35 C    1.019    37 C    0.990    83 H    0.967
                            82 H    0.963
    37   6 C    3.988 --    36 C    0.990    85 H    0.988    86 H    0.987
                            84 H    0.983
    38   6 C    3.930 --    53 C    1.336    35 C    1.319    39 S    1.071
    39  16 S    2.722 --    40 C    1.158    38 C    1.071    56 O    0.132
    40   6 C    3.941 --    34 C    1.284    41 C    1.257    39 S    1.158
    41   6 C    3.937 --    32 C    1.293    40 C    1.257    42 N    1.161
    42   7 N    3.566 --    43 C    1.179    41 C    1.161    51 C    0.978
    43   6 C    3.926 --    31 C    1.259    44 C    1.226    42 N    1.179
    44   6 C    3.926 --    25 C    1.267    43 C    1.226    45 N    1.170
    45   7 N    3.559 --    44 C    1.170    46 C    1.161    49 C    0.977
    46   6 C    3.939 --    24 C    1.291    47 C    1.260    45 N    1.161
    47   6 C    3.935 --    22 C    1.315    46 C    1.260    48 S    1.123
    48  16 S    2.546 --    47 C    1.123    18 C    1.062
    49   6 C    3.957 --    50 C    1.007    45 N    0.977    88 H    0.962
                            87 H    0.953
    50   6 C    3.987 --    49 C    1.007    91 H    0.986    89 H    0.983
                            90 H    0.982
    51   6 C    3.956 --    52 C    1.007    42 N    0.978    93 H    0.961
                            92 H    0.953
    52   6 C    3.988 --    51 C    1.007    96 H    0.986    94 H    0.983
                            95 H    0.982
    53   6 C    3.943 --    54 C    1.461    38 C    1.336    97 H    0.930
    54   6 C    3.952 --    53 C    1.461    67 C    1.151    55 C    1.079
    55   6 C    3.911 --    56 O    1.684    54 C    1.079    57 C    1.021
    56   8 O    2.091 --    55 C    1.684    39 S    0.132
    57   6 C    3.976 --    58 C    1.437    66 C    1.289    55 C    1.021
    58   6 C    3.975 --    57 C    1.437    59 C    1.370    98 H    0.961
    59   6 C    3.970 --    64 C    1.391    58 C    1.370    60 C    0.999
    60   6 C    3.915 --    61 O    1.710    62 O    1.133    59 C    0.999
    61   8 O    2.010 --    60 C    1.710    62 O    0.172
    62   8 O    2.308 --    60 C    1.133    63 C    0.950    61 O    0.172
    63   6 C    3.914 --    99 H    0.980   101 H    0.975   100 H    0.975
                            62 O    0.950
    64   6 C    3.974 --    65 C    1.434    59 C    1.391   102 H    0.963
    65   6 C    3.974 --    64 C    1.434    66 C    1.404   103 H    0.958
    66   6 C    3.980 --    65 C    1.404    57 C    1.289    67 C    1.079
    67   6 C    3.969 --    68 C    1.476    54 C    1.151    66 C    1.079
    68   6 C    3.942 --    67 C    1.476    69 C    1.101    71 C    1.097
    69   6 C    3.943 --    70 N    2.743    68 C    1.101
    70   7 N    2.958 --    69 C    2.743
    71   6 C    3.942 --    72 N    2.757    68 C    1.097
    72   7 N    2.962 --    71 C    2.757
    73   1 H    0.990 --     1 C    0.939
    74   1 H    0.993 --     6 C    0.964
    75   1 H    0.993 --     7 C    0.964
    76   1 H    0.993 --    10 C    0.958
    77   1 H    0.996 --    20 C    0.962
    78   1 H    0.995 --    20 C    0.969
    79   1 H    0.997 --    21 C    0.987
    80   1 H    0.998 --    21 C    0.987
    81   1 H    0.996 --    21 C    0.984
    82   1 H    0.996 --    36 C    0.963
    83   1 H    0.995 --    36 C    0.967
    84   1 H    0.995 --    37 C    0.983
    85   1 H    0.998 --    37 C    0.988
    86   1 H    0.998 --    37 C    0.987
    87   1 H    0.992 --    49 C    0.953
    88   1 H    0.994 --    49 C    0.962
    89   1 H    0.997 --    50 C    0.983
    90   1 H    0.995 --    50 C    0.982
    91   1 H    0.997 --    50 C    0.986
    92   1 H    0.992 --    51 C    0.953
    93   1 H    0.993 --    51 C    0.961
    94   1 H    0.997 --    52 C    0.983
    95   1 H    0.996 --    52 C    0.982
    96   1 H    0.997 --    52 C    0.986
    97   1 H    0.992 --    53 C    0.930
    98   1 H    0.993 --    58 C    0.961
    99   1 H    0.993 --    63 C    0.980
   100   1 H    0.995 --    63 C    0.975
   101   1 H    0.995 --    63 C    0.975
   102   1 H    0.993 --    64 C    0.963
   103   1 H    0.994 --    65 C    0.958
 ---------------------------------------------------------------------------

Topologies differ in bond orders
Writing corrected topology to xtbtopo.mol

molecular dipole:
                 x           y           z       tot (Debye)
 q only:        0.367       2.687       0.346
   full:       -0.497       3.129       0.732       8.266
molecular quadrupole (traceless):
                xx          xy          yy          xz          yz          zz
 q only:       47.946     -25.009       5.569     -20.947     -54.464     -53.515
  q+dip:       41.626     -28.457       7.390     -20.197     -51.894     -49.016
   full:       35.282     -31.990       8.418     -16.522     -61.780     -43.700


           -------------------------------------------------
          | TOTAL ENERGY             -192.093380345727 Eh   |
          | GRADIENT NORM               0.024294824870 Eh/α |
          | HOMO-LUMO GAP               1.026313023704 eV   |
           -------------------------------------------------

------------------------------------------------------------------------
 * finished run on 2022/02/01 at 23:40:04.499     
------------------------------------------------------------------------
 total:
 * wall-time:     0 d,  0 h,  0 min,  0.293 sec
 *  cpu-time:     0 d,  0 h,  0 min,  2.251 sec
 * ratio c/w:     7.690 speedup
 SCF:
 * wall-time:     0 d,  0 h,  0 min,  0.230 sec
 *  cpu-time:     0 d,  0 h,  0 min,  1.830 sec
 * ratio c/w:     7.956 speedup

