      -----------------------------------------------------------      
     |                   =====================                   |     
     |                           x T B                           |     
     |                   =====================                   |     
     |                         S. Grimme                         |     
     |          Mulliken Center for Theoretical Chemistry        |     
     |                    University of Bonn                     |     
      -----------------------------------------------------------      

   * xtb version 6.4.1 (unknown) compiled by 'oda6@login1.crc.pitt.edu' on 2021-06-25

   xtb is free software: you can redistribute it and/or modify it under
   the terms of the GNU Lesser General Public License as published by
   the Free Software Foundation, either version 3 of the License, or
   (at your option) any later version.
   
   xtb is distributed in the hope that it will be useful,
   but WITHOUT ANY WARRANTY; without even the implied warranty of
   MERCHANTABILITY or FITNESS FOR A PARTICULAR PURPOSE.  See the
   GNU Lesser General Public License for more details.
   
   Cite this work as:
   * C. Bannwarth, E. Caldeweyher, S. Ehlert, A. Hansen, P. Pracht,
     J. Seibert, S. Spicher, S. Grimme, WIREs Comput. Mol. Sci., 2020, 11,
     e01493. DOI: 10.1002/wcms.1493
   
   for GFN2-xTB:
   * C. Bannwarth, S. Ehlert and S. Grimme., J. Chem. Theory Comput., 2019,
     15, 1652-1671. DOI: 10.1021/acs.jctc.8b01176
   for GFN1-xTB:
   * S. Grimme, C. Bannwarth, P. Shushkov, J. Chem. Theory Comput., 2017,
     13, 1989-2009. DOI: 10.1021/acs.jctc.7b00118
   for GFN0-xTB:
   * P. Pracht, E. Caldeweyher, S. Ehlert, S. Grimme, ChemRxiv, 2019, preprint.
     DOI: 10.26434/chemrxiv.8326202.v1
   for GFN-FF:
   * S. Spicher and S. Grimme, Angew. Chem. Int. Ed., 2020, 59, 15665-15673.
     DOI: 10.1002/anie.202004239
   
   for DFT-D4:
   * E. Caldeweyher, C. Bannwarth and S. Grimme, J. Chem. Phys., 2017,
     147, 034112. DOI: 10.1063/1.4993215
   * E. Caldeweyher, S. Ehlert, A. Hansen, H. Neugebauer, S. Spicher,
     C. Bannwarth and S. Grimme, J. Chem. Phys., 2019, 150, 154122.
     DOI: 10.1063/1.5090222
   * E. Caldeweyher, J.-M. Mewes, S. Ehlert and S. Grimme, Phys. Chem. Chem. Phys.
     2020, 22, 8499-8512. DOI: 10.1039/D0CP00502A
   
   for sTDA-xTB:
   * S. Grimme and C. Bannwarth, J. Chem. Phys., 2016, 145, 054103.
     DOI: 10.1063/1.4959605
   
   in the mass-spec context:
   * V. Asgeirsson, C. Bauer and S. Grimme, Chem. Sci., 2017, 8, 4879.
     DOI: 10.1039/c7sc00601b
   * J. Koopman and S. Grimme, ACS Omega 2019, 4, 12, 15120-15133.
     DOI: 10.1021/acsomega.9b02011
   
   for metadynamics refer to:
   * S. Grimme, J. Chem. Theory Comput., 2019, 155, 2847-2862
     DOI: 10.1021/acs.jctc.9b00143
   
   for SPH calculations refer to:
   * S. Spicher and S. Grimme, J. Chem. Theory Comput., 2021, 17, 1701-1714
     DOI: 10.1021/acs.jctc.0c01306
   
   with help from (in alphabetical order)
   P. Atkinson, C. Bannwarth, F. Bohle, G. Brandenburg, E. Caldeweyher
   M. Checinski, S. Dohm, S. Ehlert, S. Ehrlich, I. Gerasimov, J. Koopman
   C. Lavigne, S. Lehtola, F. März, M. Müller, F. Musil, H. Neugebauer
   J. Pisarek, C. Plett, P. Pracht, J. Seibert, P. Shushkov, S. Spicher
   M. Stahn, M. Steiner, T. Strunk, J. Stückrath, T. Rose, and J. Unsleber
   
 * started run on 2022/01/27 at 09:17:24.101     

           -------------------------------------------------
          |                Calculation Setup                |
           -------------------------------------------------

          program call               : /ihome/ghutchison/oda6/xtb/xtb-641/bin/xtb ../../GFN2_output/61_22_2.mol --sp --alpb hexane
          hostname                   : smp-n24
          coordinate file            : ../../GFN2_output/61_22_2.mol
          omp threads                :                     8
          number of atoms            :                    95
          number of electrons        :                   334
          charge                     :                     0
          spin                       :                   0.0
          first test random number   :      0.09545587520755

   ID    Z sym.   atoms
    1    6 C      1-3, 5-8, 10, 12, 14-16, 18, 20, 22, 23, 25-28, 32, 33,
                  35-39, 41, 42, 44, 45, 47-57, 59-61, 63-66, 68
    2    8 O      4, 58
    3    9 F      9, 11, 13
    4    7 N      17, 19, 29, 31, 40, 43, 46, 67, 69
    5   16 S      21, 24, 30, 34, 62
    6    1 H      70-95

           -------------------------------------------------
          |                 G F N 2 - x T B                 |
           -------------------------------------------------

        Reference                      10.1021/acs.jctc.8b01176
      * Hamiltonian:
        H0-scaling (s, p, d)           1.850000    2.230000    2.230000
        zeta-weighting                 0.500000
      * Dispersion:
        s8                             2.700000
        a1                             0.520000
        a2                             5.000000
        s9                             5.000000
      * Repulsion:
        kExp                           1.500000    1.000000
        rExp                           1.000000
      * Coulomb:
        alpha                          2.000000
        third order                    shell-resolved
        anisotropic                    true
        a3                             3.000000
        a5                             4.000000
        cn-shift                       1.200000
        cn-exp                         4.000000
        max-rad                        5.000000

      * Solvation model:               ALPB
        Solvent                        hexane
        Parameter file                 internal GFN2-xTB/ALPB
        Dielectric constant                1.8800E+00
        Reference state                gsolv [1 M gas/solution]
        Free energy shift                  4.8134E-03 Eh       3.0204E+00 kcal/mol
        Temperature                        2.9815E+02 K
        Density                            6.6000E-01 kg/L
        Solvent mass                       8.6180E+01 g/mol
        Interaction kernel             P16
        Born radius scaling (c1)           1.1040E+00
        Born radii integrator          GBOBC
        Born offset                        0.0000E+00 a0       0.0000E+00 AA
        H-bond correction              false
        Ion screening                  false
        Surface tension                    1.0000E-05 Eh       1.5569E+01 dyn/cm
        Grid points                               230 per atom

          ...................................................
          :                      SETUP                      :
          :.................................................:
          :  # basis functions                 332          :
          :  # atomic orbitals                 327          :
          :  # shells                          169          :
          :  # electrons                       334          :
          :  max. iterations                   250          :
          :  Hamiltonian                  GFN2-xTB          :
          :  restarted?                      false          :
          :  GBSA solvation                   true          :
          :  PC potential                    false          :
          :  electronic temp.          300.0000000     K    :
          :  accuracy                    1.0000000          :
          :  -> integral cutoff          0.2500000E+02      :
          :  -> integral neglect         0.1000000E-07      :
          :  -> SCF convergence          0.1000000E-05 Eh   :
          :  -> wf. convergence          0.1000000E-03 e    :
          :  Broyden damping             0.4000000          :
          ...................................................

 iter      E             dE          RMSdq      gap      omega  full diag
   1   -187.5968706 -0.187597E+03  0.472E+00    1.25       0.0  T
   2   -187.8064652 -0.209595E+00  0.286E+00    0.98       1.0  T
   3   -187.7842884  0.221769E-01  0.155E+00    0.99       1.0  T
   4   -187.8662528 -0.819644E-01  0.560E-01    0.99       1.0  T
   5   -187.8856492 -0.193964E-01  0.168E-01    0.90       1.0  T
   6   -187.8866532 -0.100406E-02  0.876E-02    0.95       1.0  T
   7   -187.8869260 -0.272795E-03  0.321E-02    0.93       1.0  T
   8   -187.8869548 -0.287650E-04  0.142E-02    0.94       1.0  T
   9   -187.8869613 -0.648948E-05  0.626E-03    0.94       1.6  T
  10   -187.8869618 -0.539617E-06  0.327E-03    0.94       3.1  T
  11   -187.8869622 -0.434187E-06  0.143E-03    0.94       7.2  T
  12   -187.8869623 -0.126734E-07  0.847E-04    0.94      12.1  T
  13   -187.8869623 -0.206479E-07  0.358E-04    0.94      28.7  T

   *** convergence criteria satisfied after 13 iterations ***

         #    Occupation            Energy/Eh            Energy/eV
      -------------------------------------------------------------
         1        2.0000           -0.8604292             -23.4135
       ...           ...                  ...                  ...
       161        2.0000           -0.4119002             -11.2084
       162        2.0000           -0.4100632             -11.1584
       163        2.0000           -0.4067699             -11.0688
       164        2.0000           -0.3957395             -10.7686
       165        2.0000           -0.3887375             -10.5781
       166        2.0000           -0.3806646             -10.3584
       167        2.0000           -0.3758645             -10.2278 (HOMO)
       168                         -0.3414231              -9.2906 (LUMO)
       169                         -0.3351212              -9.1191
       170                         -0.3316647              -9.0251
       171                         -0.3186589              -8.6711
       172                         -0.3015634              -8.2060
       ...                                ...                  ...
       327                          1.1551213              31.4324
      -------------------------------------------------------------
                  HL-Gap            0.0344414 Eh            0.9372 eV
             Fermi-level           -0.3586414 Eh           -9.7591 eV

 SCC (total)                   0 d,  0 h,  0 min,  0.212 sec
 SCC setup                      ...        0 min,  0.006 sec (  2.806%)
 Dispersion                     ...        0 min,  0.004 sec (  1.686%)
 classical contributions        ...        0 min,  0.000 sec (  0.126%)
 integral evaluation            ...        0 min,  0.012 sec (  5.442%)
 iterations                     ...        0 min,  0.162 sec ( 76.459%)
 molecular gradient             ...        0 min,  0.028 sec ( 13.077%)
 printout                       ...        0 min,  0.001 sec (  0.368%)

         :::::::::::::::::::::::::::::::::::::::::::::::::::::
         ::                     SUMMARY                     ::
         :::::::::::::::::::::::::::::::::::::::::::::::::::::
         :: total energy            -185.183470060640 Eh    ::
         :: total w/o Gsasa/hb      -185.125364818695 Eh    ::
         :: gradient norm              0.022552984344 Eh/a0 ::
         :: HOMO-LUMO gap              0.937198155238 eV    ::
         ::.................................................::
         :: SCC energy              -187.886962273451 Eh    ::
         :: -> isotropic ES            0.171707235193 Eh    ::
         :: -> anisotropic ES          0.013898915631 Eh    ::
         :: -> anisotropic XC          0.100738736948 Eh    ::
         :: -> dispersion             -0.155209228098 Eh    ::
         :: -> Gsolv                  -0.084929230212 Eh    ::
         ::    -> Gelec               -0.026823988267 Eh    ::
         ::    -> Gsasa               -0.062918597765 Eh    ::
         ::    -> Ghb                  0.000000000000 Eh    ::
         ::    -> Gshift               0.004813355820 Eh    ::
         :: repulsion energy           2.703966379512 Eh    ::
         :: add. restraining           0.000000000000 Eh    ::
         :: total charge               0.000000000135 e     ::
         :::::::::::::::::::::::::::::::::::::::::::::::::::::

           -------------------------------------------------
          |                Property Printout                |
           -------------------------------------------------

    * Orbital Energies and Occupations

         #    Occupation            Energy/Eh            Energy/eV
      -------------------------------------------------------------
         1        2.0000           -0.8604292             -23.4135
       ...           ...                  ...                  ...
       155        2.0000           -0.4290627             -11.6754
       156        2.0000           -0.4223409             -11.4925
       157        2.0000           -0.4200856             -11.4311
       158        2.0000           -0.4195034             -11.4153
       159        2.0000           -0.4173033             -11.3554
       160        2.0000           -0.4164449             -11.3320
       161        2.0000           -0.4119002             -11.2084
       162        2.0000           -0.4100632             -11.1584
       163        2.0000           -0.4067699             -11.0688
       164        2.0000           -0.3957395             -10.7686
       165        2.0000           -0.3887375             -10.5781
       166        2.0000           -0.3806646             -10.3584
       167        2.0000           -0.3758645             -10.2278 (HOMO)
       168                         -0.3414231              -9.2906 (LUMO)
       169                         -0.3351212              -9.1191
       170                         -0.3316647              -9.0251
       171                         -0.3186589              -8.6711
       172                         -0.3015634              -8.2060
       173                         -0.2855290              -7.7696
       174                         -0.2648590              -7.2072
       175                         -0.2539197              -6.9095
       176                         -0.2525730              -6.8729
       177                         -0.2492042              -6.7812
       178                         -0.2468792              -6.7179
       ...                                ...                  ...
       327                          1.1551213              31.4324
      -------------------------------------------------------------
                  HL-Gap            0.0344414 Eh            0.9372 eV
             Fermi-level           -0.3586414 Eh           -9.7591 eV

     #   Z          covCN         q      C6AA      α(0)
     1   6 C        2.955    -0.010    28.263     8.720
     2   6 C        3.002    -0.040    28.986     8.832
     3   6 C        2.865     0.242    22.959     7.854
     4   8 O        0.856    -0.406    21.809     6.261
     5   6 C        3.043    -0.036    28.865     8.812
     6   6 C        3.032     0.014    27.659     8.626
     7   6 C        2.912    -0.051    29.275     8.872
     8   6 C        2.783     0.171    24.316     8.077
     9   9 F        0.788    -0.191    11.142     3.943
    10   6 C        2.777     0.149    24.747     8.148
    11   9 F        0.786    -0.185    11.085     3.933
    12   6 C        2.773     0.175    24.226     8.061
    13   9 F        0.787    -0.180    11.033     3.924
    14   6 C        3.023     0.039    27.110     8.541
    15   6 C        2.947     0.015    27.671     8.628
    16   6 C        1.948     0.132    27.844     8.521
    17   7 N        0.911    -0.254    26.588     7.458
    18   6 C        1.945     0.132    27.846     8.522
    19   7 N        0.911    -0.254    26.591     7.458
    20   6 C        2.996     0.030    27.313     8.573
    21  16 S        2.253    -0.020   141.861    20.046
    22   6 C        3.087     0.011    27.677     8.624
    23   6 C        3.113    -0.007    28.035     8.674
    24  16 S        2.136    -0.030   142.294    20.077
    25   6 C        3.115     0.008    27.677     8.618
    26   6 C        3.065    -0.033    28.763     8.794
    27   6 C        3.341     0.069    24.033     7.751
    28   6 C        3.338     0.069    24.077     7.765
    29   7 N        1.854    -0.292    28.412     7.900
    30  16 S        2.684     0.361   127.188    18.981
    31   7 N        1.853    -0.295    28.491     7.911
    32   6 C        3.066    -0.034    28.771     8.796
    33   6 C        3.093     0.002    27.880     8.654
    34  16 S        2.256     0.034   139.689    19.892
    35   6 C        3.000     0.015    27.670     8.629
    36   6 C        3.071    -0.007    28.132     8.697
    37   6 C        3.803    -0.060    21.649     6.624
    38   6 C        3.754    -0.104    22.540     6.770
    39   6 C        3.242     0.027    26.479     8.341
    40   7 N        2.783    -0.059    22.385     7.027
    41   6 C        3.084     0.039    27.033     8.523
    42   6 C        3.092     0.033    27.151     8.540
    43   7 N        2.792    -0.049    22.190     6.996
    44   6 C        3.196     0.024    26.952     8.464
    45   6 C        3.212     0.032    26.652     8.402
    46   7 N        2.789    -0.032    21.858     6.944
    47   6 C        3.288     0.038    25.614     8.129
    48   6 C        3.021    -0.053    29.298     8.879
    49   6 C        3.739    -0.005    20.748     6.499
    50   6 C        3.752    -0.115    22.764     6.804
    51   6 C        3.741    -0.003    20.710     6.493
    52   6 C        3.752    -0.115    22.758     6.803
    53   6 C        3.739     0.000    20.658     6.485
    54   6 C        3.751    -0.116    22.789     6.808
    55   6 C        2.921    -0.015    28.392     8.738
    56   6 C        3.023    -0.044    29.057     8.842
    57   6 C        2.877     0.235    23.099     7.879
    58   8 O        0.923    -0.390    21.447     6.211
    59   6 C        3.237    -0.030    27.834     8.558
    60   6 C        3.066    -0.030    28.691     8.783
    61   6 C        2.959    -0.019    28.477     8.753
    62  16 S        2.252     0.066   138.369    19.798
    63   6 C        3.081     0.011    27.688     8.627
    64   6 C        3.026     0.035    27.197     8.554
    65   6 C        2.947     0.004    27.943     8.670
    66   6 C        1.934     0.128    27.942     8.537
    67   7 N        0.911    -0.258    26.705     7.474
    68   6 C        1.926     0.132    27.871     8.526
    69   7 N        0.911    -0.275    27.106     7.530
    70   1 H        0.925     0.079     1.986     2.204
    71   1 H        0.926     0.109     1.709     2.044
    72   1 H        0.925     0.053     2.282     2.363
    73   1 H        0.924     0.058     2.223     2.332
    74   1 H        0.925     0.052     2.290     2.367
    75   1 H        0.925     0.040     2.451     2.448
    76   1 H        0.925     0.039     2.456     2.451
    77   1 H        0.926     0.104     1.750     2.068
    78   1 H        0.924     0.076     2.025     2.225
    79   1 H        0.924     0.067     2.123     2.279
    80   1 H        0.925     0.056     2.244     2.343
    81   1 H        0.925     0.051     2.303     2.373
    82   1 H        0.925     0.048     2.340     2.392
    83   1 H        0.925     0.074     2.043     2.235
    84   1 H        0.924     0.063     2.168     2.302
    85   1 H        0.925     0.055     2.263     2.353
    86   1 H        0.925     0.050     2.323     2.383
    87   1 H        0.925     0.047     2.355     2.400
    88   1 H        0.924     0.056     2.251     2.346
    89   1 H        0.924     0.070     2.080     2.255
    90   1 H        0.925     0.050     2.318     2.381
    91   1 H        0.925     0.048     2.341     2.393
    92   1 H        0.925     0.056     2.249     2.345
    93   1 H        0.925     0.082     1.958     2.188
    94   1 H        0.926     0.071     2.070     2.250
    95   1 H        0.926     0.073     2.057     2.243

 Mol. C6AA /au·bohr⁶  :     174043.633885
 Mol. C8AA /au·bohr⁸  :    4904661.581648
 Mol. α(0) /au        :        660.545072


Wiberg/Mayer (AO) data.
largest (>0.10) Wiberg bond orders for each atom

 ---------------------------------------------------------------------------
     #   Z sym  total        # sym  WBO       # sym  WBO       # sym  WBO
 ---------------------------------------------------------------------------
     1   6 C    3.933 --     2 C    1.452    20 C    1.330    70 H    0.941
     2   6 C    3.948 --     1 C    1.452    14 C    1.157     3 C    1.068
     3   6 C    3.916 --     4 O    1.719     2 C    1.068     5 C    1.011
     4   8 O    2.025 --     3 C    1.719
     5   6 C    3.973 --    12 C    1.373     6 C    1.299     3 C    1.011
     6   6 C    3.982 --     7 C    1.409     5 C    1.299    14 C    1.075
     7   6 C    3.966 --     6 C    1.409     8 C    1.377    71 H    0.950
     8   6 C    3.885 --     7 C    1.377    10 C    1.345     9 F    0.987
     9   9 F    1.126 --     8 C    0.987
    10   6 C    3.879 --     8 C    1.345    12 C    1.323    11 F    0.988
    11   9 F    1.126 --    10 C    0.988
    12   6 C    3.888 --     5 C    1.373    10 C    1.323    13 F    0.996
    13   9 F    1.145 --    12 C    0.996
    14   6 C    3.967 --    15 C    1.477     2 C    1.157     6 C    1.075
    15   6 C    3.942 --    14 C    1.477    16 C    1.098    18 C    1.097
    16   6 C    3.943 --    17 N    2.758    15 C    1.098
    17   7 N    2.962 --    16 C    2.758
    18   6 C    3.944 --    19 N    2.751    15 C    1.097
    19   7 N    2.958 --    18 C    2.751
    20   6 C    3.923 --    48 C    1.369     1 C    1.330    21 S    1.056
    21  16 S    2.544 --    22 C    1.159    20 C    1.056    48 C    0.103
    22   6 C    3.929 --    23 C    1.342    47 C    1.209    21 S    1.159
    23   6 C    3.919 --    22 C    1.342    45 C    1.259    24 S    1.092
    24  16 S    2.509 --    25 C    1.118    23 C    1.092
    25   6 C    3.908 --    44 C    1.309    26 C    1.266    24 S    1.118
    26   6 C    3.952 --    42 C    1.279    25 C    1.266    27 C    1.173
    27   6 C    3.972 --    31 N    1.422    26 C    1.173    28 C    1.165
                            30 S    0.103
    28   6 C    3.971 --    29 N    1.421    32 C    1.176    27 C    1.165
    29   7 N    3.067 --    28 C    1.421    30 S    1.397    31 N    0.145
    30  16 S    3.115 --    29 N    1.397    31 N    1.394    27 C    0.103
    31   7 N    3.064 --    27 C    1.422    30 S    1.394    29 N    0.145
    32   6 C    3.956 --    41 C    1.283    33 C    1.254    28 C    1.176
    33   6 C    3.941 --    39 C    1.267    32 C    1.254    34 S    1.185
    34  16 S    2.718 --    33 C    1.185    35 C    1.095    36 C    0.106
                            58 O    0.103
    35   6 C    3.929 --    36 C    1.334    55 C    1.306    34 S    1.095
    36   6 C    3.953 --    39 C    1.337    35 C    1.334    37 C    1.015
                            34 S    0.106
    37   6 C    3.993 --    36 C    1.015    38 C    0.993    72 H    0.965
                            73 H    0.961
    38   6 C    3.991 --    37 C    0.993    75 H    0.989    76 H    0.986
                            74 H    0.984
    39   6 C    3.937 --    36 C    1.337    33 C    1.267    40 N    1.121
    40   7 N    3.495 --    41 C    1.153    39 C    1.121    53 C    0.969
    41   6 C    3.930 --    32 C    1.283    42 C    1.241    40 N    1.153
    42   6 C    3.932 --    26 C    1.279    41 C    1.241    43 N    1.152
    43   7 N    3.511 --    42 C    1.152    44 C    1.134    51 C    0.974
    44   6 C    3.930 --    25 C    1.309    45 C    1.243    43 N    1.134
    45   6 C    3.914 --    23 C    1.259    44 C    1.243    46 N    1.166
    46   7 N    3.569 --    45 C    1.166    47 C    1.150    49 C    0.980
    47   6 C    3.938 --    48 C    1.372    22 C    1.209    46 N    1.150
    48   6 C    3.944 --    47 C    1.372    20 C    1.369    77 H    0.933
                            21 S    0.103
    49   6 C    3.960 --    50 C    1.006    46 N    0.980    78 H    0.967
                            79 H    0.960
    50   6 C    3.988 --    49 C    1.006    81 H    0.987    82 H    0.984
                            80 H    0.983
    51   6 C    3.960 --    52 C    1.007    43 N    0.974    83 H    0.963
                            84 H    0.963
    52   6 C    3.989 --    51 C    1.007    87 H    0.987    85 H    0.983
                            86 H    0.982
    53   6 C    3.962 --    54 C    1.013    40 N    0.969    89 H    0.962
                            88 H    0.961
    54   6 C    3.989 --    53 C    1.013    91 H    0.986    92 H    0.982
                            90 H    0.982
    55   6 C    3.949 --    56 C    1.504    35 C    1.306    93 H    0.930
    56   6 C    3.949 --    55 C    1.504    64 C    1.126    57 C    1.050
    57   6 C    3.915 --    58 O    1.705    56 C    1.050    59 C    1.031
    58   8 O    2.086 --    57 C    1.705    34 S    0.103
    59   6 C    3.961 --    63 C    1.385    60 C    1.289    57 C    1.031
    60   6 C    3.981 --    61 C    1.590    59 C    1.289    94 H    0.960
    61   6 C    3.926 --    60 C    1.590    62 S    1.210    95 H    0.967
    62  16 S    2.708 --    61 C    1.210    63 C    1.197
    63   6 C    3.942 --    59 C    1.385    62 S    1.197    64 C    1.139
    64   6 C    3.973 --    65 C    1.447    63 C    1.139    56 C    1.126
    65   6 C    3.954 --    64 C    1.447    68 C    1.112    66 C    1.101
    66   6 C    3.945 --    67 N    2.760    65 C    1.101
    67   7 N    2.971 --    66 C    2.760
    68   6 C    3.943 --    69 N    2.737    65 C    1.112
    69   7 N    2.947 --    68 C    2.737
    70   1 H    0.993 --     1 C    0.941
    71   1 H    0.988 --     7 C    0.950
    72   1 H    0.997 --    37 C    0.965
    73   1 H    0.995 --    37 C    0.961
    74   1 H    0.996 --    38 C    0.984
    75   1 H    0.998 --    38 C    0.989
    76   1 H    0.998 --    38 C    0.986
    77   1 H    0.988 --    48 C    0.933
    78   1 H    0.993 --    49 C    0.967
    79   1 H    0.994 --    49 C    0.960
    80   1 H    0.996 --    50 C    0.983
    81   1 H    0.997 --    50 C    0.987
    82   1 H    0.998 --    50 C    0.984
    83   1 H    0.994 --    51 C    0.963
    84   1 H    0.994 --    51 C    0.963
    85   1 H    0.996 --    52 C    0.983
    86   1 H    0.997 --    52 C    0.982
    87   1 H    0.998 --    52 C    0.987
    88   1 H    0.995 --    53 C    0.961
    89   1 H    0.994 --    53 C    0.962
    90   1 H    0.997 --    54 C    0.982
    91   1 H    0.998 --    54 C    0.986
    92   1 H    0.997 --    54 C    0.982
    93   1 H    0.992 --    55 C    0.930
    94   1 H    0.995 --    60 C    0.960
    95   1 H    0.994 --    61 C    0.967
 ---------------------------------------------------------------------------

Topologies differ in bond orders
Writing corrected topology to xtbtopo.mol

molecular dipole:
                 x           y           z       tot (Debye)
 q only:        2.364      -0.445      -1.951
   full:        2.330      -0.008      -2.249       8.231
molecular quadrupole (traceless):
                xx          xy          yy          xz          yz          zz
 q only:      -82.842      36.708      74.698     116.873      13.178       8.144
  q+dip:      -68.203      22.036      83.019     137.143      25.763     -14.816
   full:      -75.115      26.956      91.620     140.948      32.275     -16.504


           -------------------------------------------------
          | TOTAL ENERGY             -185.183470060640 Eh   |
          | GRADIENT NORM               0.022552984344 Eh/α |
          | HOMO-LUMO GAP               0.937198155238 eV   |
           -------------------------------------------------

------------------------------------------------------------------------
 * finished run on 2022/01/27 at 09:17:24.363     
------------------------------------------------------------------------
 total:
 * wall-time:     0 d,  0 h,  0 min,  0.262 sec
 *  cpu-time:     0 d,  0 h,  0 min,  2.013 sec
 * ratio c/w:     7.675 speedup
 SCF:
 * wall-time:     0 d,  0 h,  0 min,  0.214 sec
 *  cpu-time:     0 d,  0 h,  0 min,  1.693 sec
 * ratio c/w:     7.923 speedup

