      -----------------------------------------------------------      
     |                   =====================                   |     
     |                           x T B                           |     
     |                   =====================                   |     
     |                         S. Grimme                         |     
     |          Mulliken Center for Theoretical Chemistry        |     
     |                    University of Bonn                     |     
      -----------------------------------------------------------      

   * xtb version 6.4.1 (unknown) compiled by 'oda6@login1.crc.pitt.edu' on 2021-06-25

   xtb is free software: you can redistribute it and/or modify it under
   the terms of the GNU Lesser General Public License as published by
   the Free Software Foundation, either version 3 of the License, or
   (at your option) any later version.
   
   xtb is distributed in the hope that it will be useful,
   but WITHOUT ANY WARRANTY; without even the implied warranty of
   MERCHANTABILITY or FITNESS FOR A PARTICULAR PURPOSE.  See the
   GNU Lesser General Public License for more details.
   
   Cite this work as:
   * C. Bannwarth, E. Caldeweyher, S. Ehlert, A. Hansen, P. Pracht,
     J. Seibert, S. Spicher, S. Grimme, WIREs Comput. Mol. Sci., 2020, 11,
     e01493. DOI: 10.1002/wcms.1493
   
   for GFN2-xTB:
   * C. Bannwarth, S. Ehlert and S. Grimme., J. Chem. Theory Comput., 2019,
     15, 1652-1671. DOI: 10.1021/acs.jctc.8b01176
   for GFN1-xTB:
   * S. Grimme, C. Bannwarth, P. Shushkov, J. Chem. Theory Comput., 2017,
     13, 1989-2009. DOI: 10.1021/acs.jctc.7b00118
   for GFN0-xTB:
   * P. Pracht, E. Caldeweyher, S. Ehlert, S. Grimme, ChemRxiv, 2019, preprint.
     DOI: 10.26434/chemrxiv.8326202.v1
   for GFN-FF:
   * S. Spicher and S. Grimme, Angew. Chem. Int. Ed., 2020, 59, 15665-15673.
     DOI: 10.1002/anie.202004239
   
   for DFT-D4:
   * E. Caldeweyher, C. Bannwarth and S. Grimme, J. Chem. Phys., 2017,
     147, 034112. DOI: 10.1063/1.4993215
   * E. Caldeweyher, S. Ehlert, A. Hansen, H. Neugebauer, S. Spicher,
     C. Bannwarth and S. Grimme, J. Chem. Phys., 2019, 150, 154122.
     DOI: 10.1063/1.5090222
   * E. Caldeweyher, J.-M. Mewes, S. Ehlert and S. Grimme, Phys. Chem. Chem. Phys.
     2020, 22, 8499-8512. DOI: 10.1039/D0CP00502A
   
   for sTDA-xTB:
   * S. Grimme and C. Bannwarth, J. Chem. Phys., 2016, 145, 054103.
     DOI: 10.1063/1.4959605
   
   in the mass-spec context:
   * V. Asgeirsson, C. Bauer and S. Grimme, Chem. Sci., 2017, 8, 4879.
     DOI: 10.1039/c7sc00601b
   * J. Koopman and S. Grimme, ACS Omega 2019, 4, 12, 15120-15133.
     DOI: 10.1021/acsomega.9b02011
   
   for metadynamics refer to:
   * S. Grimme, J. Chem. Theory Comput., 2019, 155, 2847-2862
     DOI: 10.1021/acs.jctc.9b00143
   
   for SPH calculations refer to:
   * S. Spicher and S. Grimme, J. Chem. Theory Comput., 2021, 17, 1701-1714
     DOI: 10.1021/acs.jctc.0c01306
   
   with help from (in alphabetical order)
   P. Atkinson, C. Bannwarth, F. Bohle, G. Brandenburg, E. Caldeweyher
   M. Checinski, S. Dohm, S. Ehlert, S. Ehrlich, I. Gerasimov, J. Koopman
   C. Lavigne, S. Lehtola, F. März, M. Müller, F. Musil, H. Neugebauer
   J. Pisarek, C. Plett, P. Pracht, J. Seibert, P. Shushkov, S. Spicher
   M. Stahn, M. Steiner, T. Strunk, J. Stückrath, T. Rose, and J. Unsleber
   
 * started run on 2022/02/01 at 22:41:33.935     

           -------------------------------------------------
          |                Calculation Setup                |
           -------------------------------------------------

          program call               : /ihome/ghutchison/oda6/xtb/xtb-641/bin/xtb ../../GFN2_output/61_51_40.mol --sp --alpb hexane
          hostname                   : smp-n66
          coordinate file            : ../../GFN2_output/61_51_40.mol
          omp threads                :                     8
          number of atoms            :                    96
          number of electrons        :                   334
          charge                     :                     0
          spin                       :                   0.0
          first test random number   :      0.73611799700653

   ID    Z sym.   atoms
    1    6 C      1-3, 5-8, 10, 12, 14-16, 18, 20-24, 26-29, 33, 34, 36-40,
                  42, 43, 45, 46, 48, 49, 51-56, 58-60, 62, 65-67
    2    8 O      4, 68
    3    9 F      9, 11, 13
    4    7 N      17, 19, 30, 32, 44, 47, 61, 63, 64
    5   16 S      25, 31, 35, 41, 50, 57
    6    1 H      69-96

           -------------------------------------------------
          |                 G F N 2 - x T B                 |
           -------------------------------------------------

        Reference                      10.1021/acs.jctc.8b01176
      * Hamiltonian:
        H0-scaling (s, p, d)           1.850000    2.230000    2.230000
        zeta-weighting                 0.500000
      * Dispersion:
        s8                             2.700000
        a1                             0.520000
        a2                             5.000000
        s9                             5.000000
      * Repulsion:
        kExp                           1.500000    1.000000
        rExp                           1.000000
      * Coulomb:
        alpha                          2.000000
        third order                    shell-resolved
        anisotropic                    true
        a3                             3.000000
        a5                             4.000000
        cn-shift                       1.200000
        cn-exp                         4.000000
        max-rad                        5.000000

      * Solvation model:               ALPB
        Solvent                        hexane
        Parameter file                 internal GFN2-xTB/ALPB
        Dielectric constant                1.8800E+00
        Reference state                gsolv [1 M gas/solution]
        Free energy shift                  4.8134E-03 Eh       3.0204E+00 kcal/mol
        Temperature                        2.9815E+02 K
        Density                            6.6000E-01 kg/L
        Solvent mass                       8.6180E+01 g/mol
        Interaction kernel             P16
        Born radius scaling (c1)           1.1040E+00
        Born radii integrator          GBOBC
        Born offset                        0.0000E+00 a0       0.0000E+00 AA
        H-bond correction              false
        Ion screening                  false
        Surface tension                    1.0000E-05 Eh       1.5569E+01 dyn/cm
        Grid points                               230 per atom

          ...................................................
          :                      SETUP                      :
          :.................................................:
          :  # basis functions                 336          :
          :  # atomic orbitals                 330          :
          :  # shells                          170          :
          :  # electrons                       334          :
          :  max. iterations                   250          :
          :  Hamiltonian                  GFN2-xTB          :
          :  restarted?                      false          :
          :  GBSA solvation                   true          :
          :  PC potential                    false          :
          :  electronic temp.          300.0000000     K    :
          :  accuracy                    1.0000000          :
          :  -> integral cutoff          0.2500000E+02      :
          :  -> integral neglect         0.1000000E-07      :
          :  -> SCF convergence          0.1000000E-05 Eh   :
          :  -> wf. convergence          0.1000000E-03 e    :
          :  Broyden damping             0.4000000          :
          ...................................................

 iter      E             dE          RMSdq      gap      omega  full diag
   1   -187.5655548 -0.187566E+03  0.476E+00    1.28       0.0  T
   2   -187.7705343 -0.204980E+00  0.286E+00    1.00       1.0  T
   3   -187.7340954  0.364390E-01  0.152E+00    0.89       1.0  T
   4   -187.8354440 -0.101349E+00  0.546E-01    0.98       1.0  T
   5   -187.8500974 -0.146534E-01  0.192E-01    0.87       1.0  T
   6   -187.8514652 -0.136776E-02  0.964E-02    0.93       1.0  T
   7   -187.8517433 -0.278146E-03  0.345E-02    0.91       1.0  T
   8   -187.8517851 -0.417944E-04  0.166E-02    0.92       1.0  T
   9   -187.8517921 -0.695708E-05  0.809E-03    0.91       1.3  T
  10   -187.8517938 -0.165867E-05  0.376E-03    0.91       2.7  T
  11   -187.8517941 -0.386339E-06  0.184E-03    0.91       5.6  T
  12   -187.8517942 -0.443461E-07  0.916E-04    0.91      11.1  T
  13   -187.8517942 -0.194727E-07  0.405E-04    0.91      25.2  T

   *** convergence criteria satisfied after 13 iterations ***

         #    Occupation            Energy/Eh            Energy/eV
      -------------------------------------------------------------
         1        2.0000           -0.8631758             -23.4882
       ...           ...                  ...                  ...
       161        2.0000           -0.4220699             -11.4851
       162        2.0000           -0.4129653             -11.2374
       163        2.0000           -0.4089423             -11.1279
       164        2.0000           -0.3973032             -10.8112
       165        2.0000           -0.3934358             -10.7059
       166        2.0000           -0.3860862             -10.5059
       167        2.0000           -0.3795660             -10.3285 (HOMO)
       168                         -0.3459888              -9.4148 (LUMO)
       169                         -0.3355684              -9.1313
       170                         -0.3285265              -8.9397
       171                         -0.3079349              -8.3793
       172                         -0.2908105              -7.9134
       ...                                ...                  ...
       330                          1.1593168              31.5466
      -------------------------------------------------------------
                  HL-Gap            0.0335773 Eh            0.9137 eV
             Fermi-level           -0.3627769 Eh           -9.8717 eV

 SCC (total)                   0 d,  0 h,  0 min,  0.225 sec
 SCC setup                      ...        0 min,  0.011 sec (  4.771%)
 Dispersion                     ...        0 min,  0.004 sec (  1.582%)
 classical contributions        ...        0 min,  0.000 sec (  0.131%)
 integral evaluation            ...        0 min,  0.015 sec (  6.812%)
 iterations                     ...        0 min,  0.165 sec ( 73.401%)
 molecular gradient             ...        0 min,  0.029 sec ( 12.909%)
 printout                       ...        0 min,  0.001 sec (  0.359%)

         :::::::::::::::::::::::::::::::::::::::::::::::::::::
         ::                     SUMMARY                     ::
         :::::::::::::::::::::::::::::::::::::::::::::::::::::
         :: total energy            -185.225830264289 Eh    ::
         :: total w/o Gsasa/hb      -185.167585513940 Eh    ::
         :: gradient norm              0.023526467807 Eh/a0 ::
         :: HOMO-LUMO gap              0.913684373400 eV    ::
         ::.................................................::
         :: SCC energy              -187.851794204114 Eh    ::
         :: -> isotropic ES            0.174169913667 Eh    ::
         :: -> anisotropic ES          0.015373196995 Eh    ::
         :: -> anisotropic XC          0.099864642912 Eh    ::
         :: -> dispersion             -0.155323580540 Eh    ::
         :: -> Gsolv                  -0.084032605736 Eh    ::
         ::    -> Gelec               -0.025787855388 Eh    ::
         ::    -> Gsasa               -0.063058106169 Eh    ::
         ::    -> Ghb                  0.000000000000 Eh    ::
         ::    -> Gshift               0.004813355820 Eh    ::
         :: repulsion energy           2.626889197183 Eh    ::
         :: add. restraining           0.000000000000 Eh    ::
         :: total charge               0.000000000043 e     ::
         :::::::::::::::::::::::::::::::::::::::::::::::::::::

           -------------------------------------------------
          |                Property Printout                |
           -------------------------------------------------

    * Orbital Energies and Occupations

         #    Occupation            Energy/Eh            Energy/eV
      -------------------------------------------------------------
         1        2.0000           -0.8631758             -23.4882
       ...           ...                  ...                  ...
       155        2.0000           -0.4364282             -11.8758
       156        2.0000           -0.4332374             -11.7890
       157        2.0000           -0.4280656             -11.6483
       158        2.0000           -0.4264252             -11.6036
       159        2.0000           -0.4247490             -11.5580
       160        2.0000           -0.4227402             -11.5033
       161        2.0000           -0.4220699             -11.4851
       162        2.0000           -0.4129653             -11.2374
       163        2.0000           -0.4089423             -11.1279
       164        2.0000           -0.3973032             -10.8112
       165        2.0000           -0.3934358             -10.7059
       166        2.0000           -0.3860862             -10.5059
       167        2.0000           -0.3795660             -10.3285 (HOMO)
       168                         -0.3459888              -9.4148 (LUMO)
       169                         -0.3355684              -9.1313
       170                         -0.3285265              -8.9397
       171                         -0.3079349              -8.3793
       172                         -0.2908105              -7.9134
       173                         -0.2880804              -7.8391
       174                         -0.2684050              -7.3037
       175                         -0.2619011              -7.1267
       176                         -0.2591512              -7.0519
       177                         -0.2574998              -7.0069
       178                         -0.2506526              -6.8206
       ...                                ...                  ...
       330                          1.1593168              31.5466
      -------------------------------------------------------------
                  HL-Gap            0.0335773 Eh            0.9137 eV
             Fermi-level           -0.3627769 Eh           -9.8717 eV

     #   Z          covCN         q      C6AA      α(0)
     1   6 C        2.920    -0.013    28.327     8.728
     2   6 C        3.009    -0.042    29.020     8.837
     3   6 C        2.870     0.241    22.989     7.860
     4   8 O        0.963    -0.380    21.230     6.180
     5   6 C        3.042    -0.036    28.850     8.810
     6   6 C        3.037     0.014    27.667     8.627
     7   6 C        2.912    -0.051    29.264     8.871
     8   6 C        2.783     0.171    24.307     8.075
     9   9 F        0.788    -0.190    11.130     3.941
    10   6 C        2.776     0.150    24.732     8.145
    11   9 F        0.787    -0.184    11.070     3.930
    12   6 C        2.773     0.176    24.215     8.059
    13   9 F        0.787    -0.179    11.019     3.921
    14   6 C        3.020     0.038    27.122     8.543
    15   6 C        2.947     0.014    27.703     8.633
    16   6 C        1.946     0.132    27.857     8.523
    17   7 N        0.911    -0.253    26.581     7.457
    18   6 C        1.945     0.133    27.822     8.518
    19   7 N        0.911    -0.259    26.711     7.475
    20   6 C        2.992     0.019    27.570     8.613
    21   6 C        3.090     0.011    27.671     8.622
    22   6 C        3.804    -0.060    21.642     6.623
    23   6 C        3.754    -0.103    22.529     6.768
    24   6 C        3.176     0.011    27.361     8.542
    25  16 S        2.165    -0.024   142.055    20.060
    26   6 C        3.101     0.010    27.655     8.618
    27   6 C        3.073    -0.035    28.796     8.798
    28   6 C        3.337     0.070    24.090     7.771
    29   6 C        3.337     0.069    24.088     7.769
    30   7 N        1.854    -0.295    28.486     7.911
    31  16 S        2.681     0.357   127.346    18.993
    32   7 N        1.854    -0.295    28.484     7.910
    33   6 C        3.074    -0.034    28.764     8.793
    34   6 C        3.106     0.003    27.810     8.641
    35  16 S        2.181    -0.022   141.963    20.053
    36   6 C        3.203     0.009    27.244     8.503
    37   6 C        3.092     0.006    27.781     8.639
    38   6 C        3.805    -0.059    21.638     6.622
    39   6 C        3.754    -0.105    22.559     6.773
    40   6 C        2.995     0.016    27.641     8.624
    41  16 S        2.295    -0.041   142.730    20.108
    42   6 C        3.117     0.008    27.686     8.618
    43   6 C        3.253     0.031    26.251     8.289
    44   7 N        2.792    -0.040    22.004     6.967
    45   6 C        3.098     0.031    27.178     8.544
    46   6 C        3.099     0.036    27.080     8.528
    47   7 N        2.791    -0.035    21.923     6.954
    48   6 C        3.254     0.032    26.224     8.284
    49   6 C        3.106     0.002    27.832     8.644
    50  16 S        2.313     0.017   140.348    19.939
    51   6 C        3.742    -0.005    20.739     6.497
    52   6 C        3.752    -0.116    22.786     6.807
    53   6 C        3.742    -0.004    20.721     6.494
    54   6 C        3.752    -0.116    22.779     6.806
    55   6 C        2.987    -0.020    28.490     8.756
    56   6 C        2.952    -0.011    28.278     8.722
    57  16 S        2.223    -0.037   142.566    20.096
    58   6 C        2.933     0.115    25.472     8.277
    59   6 C        3.001    -0.023    28.553     8.765
    60   6 C        1.922     0.128    27.959     8.539
    61   7 N        0.911    -0.271    27.020     7.518
    62   6 C        1.938     0.127    27.982     8.543
    63   7 N        0.911    -0.259    26.724     7.477
    64   7 N        2.838    -0.056    22.325     7.018
    65   6 C        3.744     0.005    20.573     6.470
    66   6 C        3.752    -0.112    22.697     6.794
    67   6 C        2.902     0.277    22.335     7.749
    68   8 O        0.858    -0.443    22.566     6.369
    69   1 H        0.926     0.087     1.907     2.159
    70   1 H        0.926     0.109     1.705     2.042
    71   1 H        0.924     0.062     2.178     2.308
    72   1 H        0.924     0.063     2.159     2.298
    73   1 H        0.925     0.045     2.378     2.412
    74   1 H        0.925     0.057     2.234     2.337
    75   1 H        0.925     0.040     2.446     2.446
    76   1 H        0.925     0.057     2.240     2.341
    77   1 H        0.924     0.064     2.154     2.295
    78   1 H        0.925     0.051     2.307     2.375
    79   1 H        0.925     0.051     2.312     2.378
    80   1 H        0.925     0.041     2.442     2.444
    81   1 H        0.924     0.070     2.081     2.256
    82   1 H        0.925     0.072     2.063     2.246
    83   1 H        0.925     0.060     2.198     2.319
    84   1 H        0.925     0.055     2.260     2.351
    85   1 H        0.925     0.047     2.355     2.400
    86   1 H        0.924     0.066     2.132     2.283
    87   1 H        0.925     0.073     2.055     2.242
    88   1 H        0.925     0.053     2.278     2.360
    89   1 H        0.925     0.048     2.347     2.396
    90   1 H        0.925     0.059     2.208     2.324
    91   1 H        0.925     0.091     1.865     2.135
    92   1 H        0.924     0.067     2.121     2.278
    93   1 H        0.924     0.087     1.908     2.160
    94   1 H        0.925     0.055     2.261     2.351
    95   1 H        0.925     0.049     2.337     2.391
    96   1 H        0.925     0.066     2.131     2.283

 Mol. C6AA /au·bohr⁶  :     176535.668940
 Mol. C8AA /au·bohr⁸  :    5038319.135479
 Mol. α(0) /au        :        663.959859


Wiberg/Mayer (AO) data.
largest (>0.10) Wiberg bond orders for each atom

 ---------------------------------------------------------------------------
     #   Z sym  total        # sym  WBO       # sym  WBO       # sym  WBO
 ---------------------------------------------------------------------------
     1   6 C    3.936 --     2 C    1.432    20 C    1.362    69 H    0.928
     2   6 C    3.952 --     1 C    1.432    14 C    1.164     3 C    1.086
     3   6 C    3.915 --     4 O    1.692     2 C    1.086     5 C    1.013
     4   8 O    2.096 --     3 C    1.692    50 S    0.125
     5   6 C    3.971 --    12 C    1.374     6 C    1.297     3 C    1.013
     6   6 C    3.981 --     7 C    1.412     5 C    1.297    14 C    1.074
     7   6 C    3.965 --     6 C    1.412     8 C    1.375    70 H    0.950
     8   6 C    3.885 --     7 C    1.375    10 C    1.346     9 F    0.988
     9   9 F    1.127 --     8 C    0.988
    10   6 C    3.879 --     8 C    1.346    12 C    1.321    11 F    0.989
    11   9 F    1.128 --    10 C    0.989
    12   6 C    3.889 --     5 C    1.374    10 C    1.321    13 F    0.998
    13   9 F    1.147 --    12 C    0.998
    14   6 C    3.967 --    15 C    1.469     2 C    1.164     6 C    1.074
    15   6 C    3.941 --    14 C    1.469    18 C    1.101    16 C    1.098
    16   6 C    3.943 --    17 N    2.758    15 C    1.098
    17   7 N    2.961 --    16 C    2.758
    18   6 C    3.944 --    19 N    2.744    15 C    1.101
    19   7 N    2.958 --    18 C    2.744
    20   6 C    3.932 --     1 C    1.362    21 C    1.298    50 S    1.071
    21   6 C    3.953 --    24 C    1.389    20 C    1.298    22 C    1.020
    22   6 C    3.991 --    21 C    1.020    23 C    0.989    72 H    0.967
                            71 H    0.961
    23   6 C    3.988 --    22 C    0.989    73 H    0.988    75 H    0.987
                            74 H    0.983
    24   6 C    3.928 --    21 C    1.389    49 C    1.267    25 S    1.077
    25  16 S    2.505 --    26 C    1.117    24 C    1.077
    26   6 C    3.912 --    48 C    1.293    27 C    1.279    25 S    1.117
    27   6 C    3.955 --    26 C    1.279    46 C    1.263    28 C    1.171
    28   6 C    3.971 --    32 N    1.426    27 C    1.171    29 C    1.165
                            31 S    0.103
    29   6 C    3.971 --    30 N    1.425    33 C    1.172    28 C    1.165
                            31 S    0.103
    30   7 N    3.063 --    29 C    1.425    31 S    1.391    32 N    0.143
    31  16 S    3.102 --    30 N    1.391    32 N    1.390    29 C    0.103
                            28 C    0.103
    32   7 N    3.063 --    28 C    1.426    31 S    1.390    30 N    0.143
    33   6 C    3.953 --    45 C    1.277    34 C    1.265    29 C    1.172
    34   6 C    3.921 --    43 C    1.310    33 C    1.265    35 S    1.116
    35  16 S    2.522 --    34 C    1.116    36 C    1.095
    36   6 C    3.925 --    42 C    1.333    37 C    1.289    35 S    1.095
    37   6 C    3.959 --    40 C    1.434    36 C    1.289    38 C    1.015
    38   6 C    3.991 --    37 C    1.015    39 C    0.994    76 H    0.961
                            77 H    0.960
    39   6 C    3.991 --    38 C    0.994    80 H    0.988    79 H    0.984
                            78 H    0.984
    40   6 C    3.923 --    37 C    1.434    55 C    1.219    41 S    1.065
    41  16 S    2.538 --    42 C    1.129    40 C    1.065
    42   6 C    3.930 --    36 C    1.333    43 C    1.248    41 S    1.129
    43   6 C    3.937 --    34 C    1.310    42 C    1.248    44 N    1.152
    44   7 N    3.536 --    45 C    1.163    43 C    1.152    53 C    0.973
    45   6 C    3.936 --    33 C    1.277    46 C    1.231    44 N    1.163
    46   6 C    3.929 --    27 C    1.263    45 C    1.231    47 N    1.176
    47   7 N    3.542 --    46 C    1.176    48 C    1.145    51 C    0.972
    48   6 C    3.939 --    26 C    1.293    49 C    1.273    47 N    1.145
    49   6 C    3.941 --    48 C    1.273    24 C    1.267    50 S    1.163
    50  16 S    2.716 --    49 C    1.163    20 C    1.071     4 O    0.125
    51   6 C    3.958 --    52 C    1.005    47 N    0.972    81 H    0.966
                            82 H    0.965
    52   6 C    3.988 --    51 C    1.005    85 H    0.987    84 H    0.983
                            83 H    0.981
    53   6 C    3.959 --    54 C    1.005    44 N    0.973    86 H    0.967
                            87 H    0.965
    54   6 C    3.988 --    53 C    1.005    89 H    0.987    88 H    0.983
                            90 H    0.982
    55   6 C    3.956 --    56 C    1.585    40 C    1.219    91 H    0.939
    56   6 C    3.925 --    55 C    1.585    57 S    1.060    67 C    1.055
    57  16 S    2.522 --    58 C    1.093    56 C    1.060
    58   6 C    3.953 --    59 C    1.430    64 N    1.203    57 S    1.093
    59   6 C    3.941 --    58 C    1.430    60 C    1.112    62 C    1.099
    60   6 C    3.948 --    61 N    2.746    59 C    1.112
    61   7 N    2.975 --    60 C    2.746
    62   6 C    3.947 --    63 N    2.766    59 C    1.099
    63   7 N    2.981 --    62 C    2.766
    64   7 N    3.594 --    58 C    1.203    67 C    1.109    65 C    0.958
                            68 O    0.129
    65   6 C    3.946 --    66 C    1.008    92 H    0.962    93 H    0.962
                            64 N    0.958
    66   6 C    3.989 --    65 C    1.008    94 H    0.986    95 H    0.984
                            96 H    0.980
    67   6 C    3.931 --    68 O    1.657    64 N    1.109    56 C    1.055
    68   8 O    1.984 --    67 C    1.657    64 N    0.129
    69   1 H    0.991 --     1 C    0.928
    70   1 H    0.988 --     7 C    0.950
    71   1 H    0.995 --    22 C    0.961
    72   1 H    0.995 --    22 C    0.967
    73   1 H    0.998 --    23 C    0.988
    74   1 H    0.995 --    23 C    0.983
    75   1 H    0.998 --    23 C    0.987
    76   1 H    0.996 --    38 C    0.961
    77   1 H    0.994 --    38 C    0.960
    78   1 H    0.996 --    39 C    0.984
    79   1 H    0.996 --    39 C    0.984
    80   1 H    0.998 --    39 C    0.988
    81   1 H    0.993 --    51 C    0.966
    82   1 H    0.994 --    51 C    0.965
    83   1 H    0.996 --    52 C    0.981
    84   1 H    0.997 --    52 C    0.983
    85   1 H    0.998 --    52 C    0.987
    86   1 H    0.994 --    53 C    0.967
    87   1 H    0.994 --    53 C    0.965
    88   1 H    0.997 --    54 C    0.983
    89   1 H    0.998 --    54 C    0.987
    90   1 H    0.996 --    54 C    0.982
    91   1 H    0.990 --    55 C    0.939
    92   1 H    0.995 --    65 C    0.962
    93   1 H    0.992 --    65 C    0.962
    94   1 H    0.997 --    66 C    0.986
    95   1 H    0.998 --    66 C    0.984
    96   1 H    0.994 --    66 C    0.980
 ---------------------------------------------------------------------------

Topologies differ in bond orders
Writing corrected topology to xtbtopo.mol

molecular dipole:
                 x           y           z       tot (Debye)
 q only:       -2.071       0.291       0.986
   full:       -1.843      -0.516       0.455       5.001
molecular quadrupole (traceless):
                xx          xy          yy          xz          yz          zz
 q only:       61.695      65.704     -36.401     -49.190      95.544     -25.294
  q+dip:       78.163      69.403     -36.620     -47.792     103.367     -41.543
   full:       85.827      75.941     -38.007     -49.648     102.394     -47.820


           -------------------------------------------------
          | TOTAL ENERGY             -185.225830264289 Eh   |
          | GRADIENT NORM               0.023526467807 Eh/α |
          | HOMO-LUMO GAP               0.913684373400 eV   |
           -------------------------------------------------

------------------------------------------------------------------------
 * finished run on 2022/02/01 at 22:41:34.211     
------------------------------------------------------------------------
 total:
 * wall-time:     0 d,  0 h,  0 min,  0.276 sec
 *  cpu-time:     0 d,  0 h,  0 min,  2.091 sec
 * ratio c/w:     7.579 speedup
 SCF:
 * wall-time:     0 d,  0 h,  0 min,  0.226 sec
 *  cpu-time:     0 d,  0 h,  0 min,  1.766 sec
 * ratio c/w:     7.799 speedup

