      -----------------------------------------------------------      
     |                   =====================                   |     
     |                           x T B                           |     
     |                   =====================                   |     
     |                         S. Grimme                         |     
     |          Mulliken Center for Theoretical Chemistry        |     
     |                    University of Bonn                     |     
      -----------------------------------------------------------      

   * xtb version 6.4.1 (unknown) compiled by 'oda6@login1.crc.pitt.edu' on 2021-06-25

   xtb is free software: you can redistribute it and/or modify it under
   the terms of the GNU Lesser General Public License as published by
   the Free Software Foundation, either version 3 of the License, or
   (at your option) any later version.
   
   xtb is distributed in the hope that it will be useful,
   but WITHOUT ANY WARRANTY; without even the implied warranty of
   MERCHANTABILITY or FITNESS FOR A PARTICULAR PURPOSE.  See the
   GNU Lesser General Public License for more details.
   
   Cite this work as:
   * C. Bannwarth, E. Caldeweyher, S. Ehlert, A. Hansen, P. Pracht,
     J. Seibert, S. Spicher, S. Grimme, WIREs Comput. Mol. Sci., 2020, 11,
     e01493. DOI: 10.1002/wcms.1493
   
   for GFN2-xTB:
   * C. Bannwarth, S. Ehlert and S. Grimme., J. Chem. Theory Comput., 2019,
     15, 1652-1671. DOI: 10.1021/acs.jctc.8b01176
   for GFN1-xTB:
   * S. Grimme, C. Bannwarth, P. Shushkov, J. Chem. Theory Comput., 2017,
     13, 1989-2009. DOI: 10.1021/acs.jctc.7b00118
   for GFN0-xTB:
   * P. Pracht, E. Caldeweyher, S. Ehlert, S. Grimme, ChemRxiv, 2019, preprint.
     DOI: 10.26434/chemrxiv.8326202.v1
   for GFN-FF:
   * S. Spicher and S. Grimme, Angew. Chem. Int. Ed., 2020, 59, 15665-15673.
     DOI: 10.1002/anie.202004239
   
   for DFT-D4:
   * E. Caldeweyher, C. Bannwarth and S. Grimme, J. Chem. Phys., 2017,
     147, 034112. DOI: 10.1063/1.4993215
   * E. Caldeweyher, S. Ehlert, A. Hansen, H. Neugebauer, S. Spicher,
     C. Bannwarth and S. Grimme, J. Chem. Phys., 2019, 150, 154122.
     DOI: 10.1063/1.5090222
   * E. Caldeweyher, J.-M. Mewes, S. Ehlert and S. Grimme, Phys. Chem. Chem. Phys.
     2020, 22, 8499-8512. DOI: 10.1039/D0CP00502A
   
   for sTDA-xTB:
   * S. Grimme and C. Bannwarth, J. Chem. Phys., 2016, 145, 054103.
     DOI: 10.1063/1.4959605
   
   in the mass-spec context:
   * V. Asgeirsson, C. Bauer and S. Grimme, Chem. Sci., 2017, 8, 4879.
     DOI: 10.1039/c7sc00601b
   * J. Koopman and S. Grimme, ACS Omega 2019, 4, 12, 15120-15133.
     DOI: 10.1021/acsomega.9b02011
   
   for metadynamics refer to:
   * S. Grimme, J. Chem. Theory Comput., 2019, 155, 2847-2862
     DOI: 10.1021/acs.jctc.9b00143
   
   for SPH calculations refer to:
   * S. Spicher and S. Grimme, J. Chem. Theory Comput., 2021, 17, 1701-1714
     DOI: 10.1021/acs.jctc.0c01306
   
   with help from (in alphabetical order)
   P. Atkinson, C. Bannwarth, F. Bohle, G. Brandenburg, E. Caldeweyher
   M. Checinski, S. Dohm, S. Ehlert, S. Ehrlich, I. Gerasimov, J. Koopman
   C. Lavigne, S. Lehtola, F. März, M. Müller, F. Musil, H. Neugebauer
   J. Pisarek, C. Plett, P. Pracht, J. Seibert, P. Shushkov, S. Spicher
   M. Stahn, M. Steiner, T. Strunk, J. Stückrath, T. Rose, and J. Unsleber
   
 * started run on 2022/02/02 at 02:33:23.189     

           -------------------------------------------------
          |                Calculation Setup                |
           -------------------------------------------------

          program call               : /ihome/ghutchison/oda6/xtb/xtb-641/bin/xtb ../../GFN2_output/61_51_41.mol --sp --alpb hexane
          hostname                   : smp-n66
          coordinate file            : ../../GFN2_output/61_51_41.mol
          omp threads                :                     8
          number of atoms            :                    99
          number of electrons        :                   336
          charge                     :                     0
          spin                       :                   0.0
          first test random number   :      0.07750556738487

   ID    Z sym.   atoms
    1    6 C      1-3, 5-8, 10, 12, 14-16, 18, 20-24, 26-29, 33, 34, 36-40,
                  42, 43, 45, 46, 48, 49, 51-57, 60-62, 64-67
    2    8 O      4, 58, 63
    3    9 F      9, 11, 13
    4    7 N      17, 19, 30, 32, 44, 47, 59, 68
    5   16 S      25, 31, 35, 41, 50
    6    1 H      69-99

           -------------------------------------------------
          |                 G F N 2 - x T B                 |
           -------------------------------------------------

        Reference                      10.1021/acs.jctc.8b01176
      * Hamiltonian:
        H0-scaling (s, p, d)           1.850000    2.230000    2.230000
        zeta-weighting                 0.500000
      * Dispersion:
        s8                             2.700000
        a1                             0.520000
        a2                             5.000000
        s9                             5.000000
      * Repulsion:
        kExp                           1.500000    1.000000
        rExp                           1.000000
      * Coulomb:
        alpha                          2.000000
        third order                    shell-resolved
        anisotropic                    true
        a3                             3.000000
        a5                             4.000000
        cn-shift                       1.200000
        cn-exp                         4.000000
        max-rad                        5.000000

      * Solvation model:               ALPB
        Solvent                        hexane
        Parameter file                 internal GFN2-xTB/ALPB
        Dielectric constant                1.8800E+00
        Reference state                gsolv [1 M gas/solution]
        Free energy shift                  4.8134E-03 Eh       3.0204E+00 kcal/mol
        Temperature                        2.9815E+02 K
        Density                            6.6000E-01 kg/L
        Solvent mass                       8.6180E+01 g/mol
        Interaction kernel             P16
        Born radius scaling (c1)           1.1040E+00
        Born radii integrator          GBOBC
        Born offset                        0.0000E+00 a0       0.0000E+00 AA
        H-bond correction              false
        Ion screening                  false
        Surface tension                    1.0000E-05 Eh       1.5569E+01 dyn/cm
        Grid points                               230 per atom

          ...................................................
          :                      SETUP                      :
          :.................................................:
          :  # basis functions                 333          :
          :  # atomic orbitals                 328          :
          :  # shells                          172          :
          :  # electrons                       336          :
          :  max. iterations                   250          :
          :  Hamiltonian                  GFN2-xTB          :
          :  restarted?                      false          :
          :  GBSA solvation                   true          :
          :  PC potential                    false          :
          :  electronic temp.          300.0000000     K    :
          :  accuracy                    1.0000000          :
          :  -> integral cutoff          0.2500000E+02      :
          :  -> integral neglect         0.1000000E-07      :
          :  -> SCF convergence          0.1000000E-05 Eh   :
          :  -> wf. convergence          0.1000000E-03 e    :
          :  Broyden damping             0.4000000          :
          ...................................................

 iter      E             dE          RMSdq      gap      omega  full diag
   1   -189.1617453 -0.189162E+03  0.449E+00    1.27       0.0  T
   2   -189.3891269 -0.227382E+00  0.261E+00    0.94       1.0  T
   3   -189.3684213  0.207056E-01  0.145E+00    0.89       1.0  T
   4   -189.4471068 -0.786855E-01  0.533E-01    0.96       1.0  T
   5   -189.4633133 -0.162066E-01  0.163E-01    0.86       1.0  T
   6   -189.4645589 -0.124553E-02  0.845E-02    0.92       1.0  T
   7   -189.4647861 -0.227178E-03  0.328E-02    0.91       1.0  T
   8   -189.4648397 -0.536496E-04  0.140E-02    0.92       1.0  T
   9   -189.4648450 -0.530929E-05  0.635E-03    0.91       1.6  T
  10   -189.4648463 -0.124119E-05  0.293E-03    0.92       3.4  T
  11   -189.4648465 -0.225172E-06  0.152E-03    0.92       6.6  T
  12   -189.4648465 -0.449769E-07  0.720E-04    0.92      14.0  T
  13   -189.4648465 -0.107945E-07  0.323E-04    0.92      31.1  T

   *** convergence criteria satisfied after 13 iterations ***

         #    Occupation            Energy/Eh            Energy/eV
      -------------------------------------------------------------
         1        2.0000           -0.8631167             -23.4866
       ...           ...                  ...                  ...
       162        2.0000           -0.4179793             -11.3738
       163        2.0000           -0.4171771             -11.3520
       164        2.0000           -0.4105240             -11.1709
       165        2.0000           -0.3989072             -10.8548
       166        2.0000           -0.3933488             -10.7036
       167        2.0000           -0.3851797             -10.4813
       168        2.0000           -0.3799993             -10.3403 (HOMO)
       169                         -0.3463696              -9.4252 (LUMO)
       170                         -0.3372069              -9.1759
       171                         -0.3312570              -9.0140
       172                         -0.3074898              -8.3672
       173                         -0.2900173              -7.8918
       ...                                ...                  ...
       328                          1.1640430              31.6752
      -------------------------------------------------------------
                  HL-Gap            0.0336297 Eh            0.9151 eV
             Fermi-level           -0.3631824 Eh           -9.8827 eV

 SCC (total)                   0 d,  0 h,  0 min,  0.228 sec
 SCC setup                      ...        0 min,  0.002 sec (  0.883%)
 Dispersion                     ...        0 min,  0.004 sec (  1.621%)
 classical contributions        ...        0 min,  0.000 sec (  0.060%)
 integral evaluation            ...        0 min,  0.014 sec (  6.036%)
 iterations                     ...        0 min,  0.176 sec ( 77.219%)
 molecular gradient             ...        0 min,  0.031 sec ( 13.749%)
 printout                       ...        0 min,  0.001 sec (  0.393%)

         :::::::::::::::::::::::::::::::::::::::::::::::::::::
         ::                     SUMMARY                     ::
         :::::::::::::::::::::::::::::::::::::::::::::::::::::
         :: total energy            -186.853779106639 Eh    ::
         :: total w/o Gsasa/hb      -186.797036415290 Eh    ::
         :: gradient norm              0.026500934041 Eh/a0 ::
         :: HOMO-LUMO gap              0.915110958258 eV    ::
         ::.................................................::
         :: SCC energy              -189.464846538170 Eh    ::
         :: -> isotropic ES            0.202567921470 Eh    ::
         :: -> anisotropic ES          0.009768077790 Eh    ::
         :: -> anisotropic XC          0.085229464589 Eh    ::
         :: -> dispersion             -0.155919913290 Eh    ::
         :: -> Gsolv                  -0.086355349464 Eh    ::
         ::    -> Gelec               -0.029612658115 Eh    ::
         ::    -> Gsasa               -0.061556047168 Eh    ::
         ::    -> Ghb                  0.000000000000 Eh    ::
         ::    -> Gshift               0.004813355820 Eh    ::
         :: repulsion energy           2.612108588359 Eh    ::
         :: add. restraining           0.000000000000 Eh    ::
         :: total charge               0.000000000173 e     ::
         :::::::::::::::::::::::::::::::::::::::::::::::::::::

           -------------------------------------------------
          |                Property Printout                |
           -------------------------------------------------

    * Orbital Energies and Occupations

         #    Occupation            Energy/Eh            Energy/eV
      -------------------------------------------------------------
         1        2.0000           -0.8631167             -23.4866
       ...           ...                  ...                  ...
       156        2.0000           -0.4313954             -11.7389
       157        2.0000           -0.4283104             -11.6549
       158        2.0000           -0.4256701             -11.5831
       159        2.0000           -0.4234325             -11.5222
       160        2.0000           -0.4225299             -11.4976
       161        2.0000           -0.4222879             -11.4910
       162        2.0000           -0.4179793             -11.3738
       163        2.0000           -0.4171771             -11.3520
       164        2.0000           -0.4105240             -11.1709
       165        2.0000           -0.3989072             -10.8548
       166        2.0000           -0.3933488             -10.7036
       167        2.0000           -0.3851797             -10.4813
       168        2.0000           -0.3799993             -10.3403 (HOMO)
       169                         -0.3463696              -9.4252 (LUMO)
       170                         -0.3372069              -9.1759
       171                         -0.3312570              -9.0140
       172                         -0.3074898              -8.3672
       173                         -0.2900173              -7.8918
       174                         -0.2763921              -7.5210
       175                         -0.2678339              -7.2881
       176                         -0.2626609              -7.1474
       177                         -0.2577823              -7.0146
       178                         -0.2508556              -6.8261
       179                         -0.2389972              -6.5034
       ...                                ...                  ...
       328                          1.1640430              31.6752
      -------------------------------------------------------------
                  HL-Gap            0.0336297 Eh            0.9151 eV
             Fermi-level           -0.3631824 Eh           -9.8827 eV

     #   Z          covCN         q      C6AA      α(0)
     1   6 C        2.920    -0.012    28.321     8.727
     2   6 C        3.009    -0.041    29.012     8.836
     3   6 C        2.870     0.241    22.988     7.859
     4   8 O        0.965    -0.379    21.211     6.177
     5   6 C        3.042    -0.036    28.848     8.809
     6   6 C        3.037     0.014    27.666     8.627
     7   6 C        2.912    -0.051    29.262     8.870
     8   6 C        2.783     0.171    24.304     8.075
     9   9 F        0.788    -0.190    11.128     3.940
    10   6 C        2.777     0.150    24.729     8.145
    11   9 F        0.787    -0.184    11.067     3.930
    12   6 C        2.773     0.176    24.211     8.059
    13   9 F        0.787    -0.178    11.014     3.920
    14   6 C        3.020     0.038    27.119     8.542
    15   6 C        2.947     0.014    27.697     8.632
    16   6 C        1.945     0.133    27.827     8.519
    17   7 N        0.911    -0.258    26.686     7.471
    18   6 C        1.947     0.132    27.857     8.523
    19   7 N        0.911    -0.253    26.570     7.455
    20   6 C        2.992     0.019    27.573     8.614
    21   6 C        3.090     0.011    27.671     8.622
    22   6 C        3.804    -0.059    21.634     6.622
    23   6 C        3.754    -0.103    22.533     6.769
    24   6 C        3.176     0.011    27.357     8.541
    25  16 S        2.164    -0.024   142.051    20.060
    26   6 C        3.102     0.010    27.655     8.617
    27   6 C        3.074    -0.035    28.778     8.796
    28   6 C        3.337     0.070    24.085     7.770
    29   6 C        3.336     0.070    24.093     7.773
    30   7 N        1.854    -0.294    28.472     7.909
    31  16 S        2.680     0.354   127.462    19.002
    32   7 N        1.854    -0.294    28.468     7.908
    33   6 C        3.074    -0.034    28.775     8.795
    34   6 C        3.103     0.010    27.666     8.619
    35  16 S        2.163    -0.038   142.637    20.101
    36   6 C        3.178     0.012    27.338     8.537
    37   6 C        3.097     0.004    27.824     8.645
    38   6 C        3.804    -0.058    21.621     6.620
    39   6 C        3.754    -0.104    22.554     6.772
    40   6 C        2.989     0.019    27.572     8.613
    41  16 S        2.460     0.020   140.233    19.931
    42   6 C        3.104    -0.005    28.009     8.672
    43   6 C        3.253     0.032    26.225     8.285
    44   7 N        2.793    -0.032    21.855     6.943
    45   6 C        3.100     0.034    27.125     8.535
    46   6 C        3.099     0.036    27.077     8.527
    47   7 N        2.792    -0.032    21.868     6.945
    48   6 C        3.254     0.032    26.213     8.282
    49   6 C        3.106     0.002    27.838     8.645
    50  16 S        2.316     0.020   140.252    19.932
    51   6 C        3.742    -0.006    20.762     6.501
    52   6 C        3.752    -0.116    22.786     6.807
    53   6 C        3.741    -0.005    20.745     6.498
    54   6 C        3.752    -0.117    22.798     6.809
    55   6 C        2.927    -0.015    28.384     8.737
    56   6 C        2.960    -0.041    29.005     8.834
    57   6 C        2.775     0.274    22.366     7.746
    58   8 O        1.110    -0.442    22.397     6.352
    59   7 N        2.743    -0.094    23.080     7.135
    60   6 C        3.754     0.011    20.454     6.449
    61   6 C        3.752    -0.107    22.613     6.781
    62   6 C        2.779     0.286    22.160     7.710
    63   8 O        0.859    -0.453    22.764     6.397
    64   6 C        2.965    -0.038    28.952     8.826
    65   6 C        2.968     0.038    27.149     8.547
    66   6 C        3.758    -0.118    22.806     6.808
    67   6 C        1.914     0.135    27.813     8.517
    68   7 N        0.911    -0.259    26.724     7.477
    69   1 H        0.926     0.087     1.907     2.160
    70   1 H        0.926     0.109     1.704     2.041
    71   1 H        0.924     0.063     2.161     2.299
    72   1 H        0.924     0.060     2.196     2.317
    73   1 H        0.925     0.045     2.382     2.413
    74   1 H        0.925     0.058     2.225     2.333
    75   1 H        0.925     0.042     2.428     2.437
    76   1 H        0.924     0.062     2.181     2.309
    77   1 H        0.924     0.052     2.300     2.371
    78   1 H        0.925     0.047     2.362     2.404
    79   1 H        0.925     0.041     2.433     2.439
    80   1 H        0.925     0.051     2.313     2.378
    81   1 H        0.925     0.074     2.046     2.237
    82   1 H        0.924     0.072     2.067     2.248
    83   1 H        0.925     0.061     2.188     2.313
    84   1 H        0.925     0.047     2.357     2.401
    85   1 H        0.925     0.054     2.266     2.354
    86   1 H        0.924     0.070     2.081     2.256
    87   1 H        0.925     0.073     2.058     2.243
    88   1 H        0.925     0.047     2.356     2.400
    89   1 H        0.925     0.057     2.237     2.339
    90   1 H        0.925     0.060     2.200     2.319
    91   1 H        0.925     0.091     1.869     2.138
    92   1 H        0.924     0.074     2.039     2.233
    93   1 H        0.924     0.069     2.093     2.262
    94   1 H        0.925     0.050     2.323     2.384
    95   1 H        0.925     0.056     2.251     2.346
    96   1 H        0.925     0.050     2.324     2.384
    97   1 H        0.925     0.070     2.087     2.259
    98   1 H        0.925     0.067     2.115     2.274
    99   1 H        0.925     0.070     2.080     2.256

 Mol. C6AA /au·bohr⁶  :     173560.488408
 Mol. C8AA /au·bohr⁸  :    4826542.868388
 Mol. α(0) /au        :        655.998628


Wiberg/Mayer (AO) data.
largest (>0.10) Wiberg bond orders for each atom

 ---------------------------------------------------------------------------
     #   Z sym  total        # sym  WBO       # sym  WBO       # sym  WBO
 ---------------------------------------------------------------------------
     1   6 C    3.937 --     2 C    1.433    20 C    1.361    69 H    0.929
     2   6 C    3.952 --     1 C    1.433    14 C    1.164     3 C    1.086
     3   6 C    3.915 --     4 O    1.692     2 C    1.086     5 C    1.014
     4   8 O    2.098 --     3 C    1.692    50 S    0.126
     5   6 C    3.971 --    12 C    1.374     6 C    1.297     3 C    1.014
     6   6 C    3.981 --     7 C    1.412     5 C    1.297    14 C    1.074
     7   6 C    3.965 --     6 C    1.412     8 C    1.375    70 H    0.950
     8   6 C    3.885 --     7 C    1.375    10 C    1.346     9 F    0.988
     9   9 F    1.127 --     8 C    0.988
    10   6 C    3.879 --     8 C    1.346    12 C    1.321    11 F    0.989
    11   9 F    1.128 --    10 C    0.989
    12   6 C    3.889 --     5 C    1.374    10 C    1.321    13 F    0.998
    13   9 F    1.148 --    12 C    0.998
    14   6 C    3.967 --    15 C    1.470     2 C    1.164     6 C    1.074
    15   6 C    3.941 --    14 C    1.470    16 C    1.101    18 C    1.098
    16   6 C    3.944 --    17 N    2.744    15 C    1.101
    17   7 N    2.959 --    16 C    2.744
    18   6 C    3.943 --    19 N    2.758    15 C    1.098
    19   7 N    2.962 --    18 C    2.758
    20   6 C    3.931 --     1 C    1.361    21 C    1.298    50 S    1.071
    21   6 C    3.953 --    24 C    1.388    20 C    1.298    22 C    1.020
    22   6 C    3.991 --    21 C    1.020    23 C    0.989    71 H    0.967
                            72 H    0.962
    23   6 C    3.987 --    22 C    0.989    73 H    0.988    75 H    0.987
                            74 H    0.983
    24   6 C    3.928 --    21 C    1.388    49 C    1.268    25 S    1.077
    25  16 S    2.508 --    26 C    1.117    24 C    1.077
    26   6 C    3.912 --    48 C    1.290    27 C    1.282    25 S    1.117
    27   6 C    3.953 --    26 C    1.282    46 C    1.263    28 C    1.168
    28   6 C    3.971 --    32 N    1.429    27 C    1.168    29 C    1.165
                            31 S    0.104
    29   6 C    3.971 --    30 N    1.428    33 C    1.169    28 C    1.165
                            31 S    0.104
    30   7 N    3.063 --    29 C    1.428    31 S    1.388    32 N    0.141
    31  16 S    3.102 --    30 N    1.388    32 N    1.387    28 C    0.104
                            29 C    0.104
    32   7 N    3.063 --    28 C    1.429    31 S    1.387    30 N    0.141
    33   6 C    3.952 --    34 C    1.280    45 C    1.264    29 C    1.169
    34   6 C    3.912 --    43 C    1.297    33 C    1.280    35 S    1.112
    35  16 S    2.494 --    34 C    1.112    36 C    1.074
    36   6 C    3.927 --    37 C    1.384    42 C    1.275    35 S    1.074
    37   6 C    3.950 --    36 C    1.384    40 C    1.306    38 C    1.017
    38   6 C    3.992 --    37 C    1.017    39 C    0.993    76 H    0.968
                            77 H    0.964
    39   6 C    3.989 --    38 C    0.993    78 H    0.988    79 H    0.987
                            80 H    0.984
    40   6 C    3.930 --    55 C    1.355    37 C    1.306    41 S    1.074
    41  16 S    2.785 --    42 C    1.165    40 C    1.074    58 O    0.185
    42   6 C    3.942 --    36 C    1.275    43 C    1.261    41 S    1.165
    43   6 C    3.937 --    34 C    1.297    42 C    1.261    44 N    1.152
    44   7 N    3.547 --    45 C    1.176    43 C    1.152    53 C    0.973
    45   6 C    3.931 --    33 C    1.264    46 C    1.228    44 N    1.176
    46   6 C    3.929 --    27 C    1.263    45 C    1.228    47 N    1.177
    47   7 N    3.546 --    46 C    1.177    48 C    1.149    51 C    0.972
    48   6 C    3.938 --    26 C    1.290    49 C    1.272    47 N    1.149
    49   6 C    3.941 --    48 C    1.272    24 C    1.268    50 S    1.164
    50  16 S    2.719 --    49 C    1.164    20 C    1.071     4 O    0.126
    51   6 C    3.957 --    52 C    1.005    47 N    0.972    82 H    0.966
                            81 H    0.965
    52   6 C    3.987 --    51 C    1.005    84 H    0.987    85 H    0.983
                            83 H    0.981
    53   6 C    3.958 --    54 C    1.005    44 N    0.973    86 H    0.966
                            87 H    0.965
    54   6 C    3.987 --    53 C    1.005    88 H    0.987    89 H    0.982
                            90 H    0.981
    55   6 C    3.925 --    56 C    1.427    40 C    1.355    91 H    0.937
    56   6 C    3.955 --    55 C    1.427    65 C    1.195    57 C    1.083
    57   6 C    3.931 --    58 O    1.557    59 N    1.172    56 C    1.083
    58   8 O    2.061 --    57 C    1.557    41 S    0.185    59 N    0.123
    59   7 N    3.581 --    57 C    1.172    62 C    1.103    60 C    0.961
                            63 O    0.129    58 O    0.123
    60   6 C    3.950 --    61 C    1.009    93 H    0.967    92 H    0.967
                            59 N    0.961
    61   6 C    3.992 --    60 C    1.009    94 H    0.987    96 H    0.986
                            95 H    0.983
    62   6 C    3.931 --    63 O    1.663    59 N    1.103    64 C    1.053
    63   8 O    1.955 --    62 C    1.663    59 N    0.129
    64   6 C    3.935 --    65 C    1.520    67 C    1.110    62 C    1.053
    65   6 C    3.968 --    64 C    1.520    56 C    1.195    66 C    1.035
    66   6 C    3.991 --    65 C    1.035    98 H    0.975    97 H    0.962
                            99 H    0.959
    67   6 C    3.943 --    68 N    2.779    64 C    1.110
    68   7 N    2.962 --    67 C    2.779
    69   1 H    0.991 --     1 C    0.929
    70   1 H    0.988 --     7 C    0.950
    71   1 H    0.995 --    22 C    0.967
    72   1 H    0.995 --    22 C    0.962
    73   1 H    0.998 --    23 C    0.988
    74   1 H    0.995 --    23 C    0.983
    75   1 H    0.998 --    23 C    0.987
    76   1 H    0.995 --    38 C    0.968
    77   1 H    0.996 --    38 C    0.964
    78   1 H    0.998 --    39 C    0.988
    79   1 H    0.998 --    39 C    0.987
    80   1 H    0.996 --    39 C    0.984
    81   1 H    0.994 --    51 C    0.965
    82   1 H    0.993 --    51 C    0.966
    83   1 H    0.996 --    52 C    0.981
    84   1 H    0.998 --    52 C    0.987
    85   1 H    0.997 --    52 C    0.983
    86   1 H    0.993 --    53 C    0.966
    87   1 H    0.994 --    53 C    0.965
    88   1 H    0.998 --    54 C    0.987
    89   1 H    0.997 --    54 C    0.982
    90   1 H    0.996 --    54 C    0.981
    91   1 H    0.991 --    55 C    0.937
    92   1 H    0.994 --    60 C    0.967
    93   1 H    0.995 --    60 C    0.967
    94   1 H    0.997 --    61 C    0.987
    95   1 H    0.996 --    61 C    0.983
    96   1 H    0.998 --    61 C    0.986
    97   1 H    0.993 --    66 C    0.962
    98   1 H    0.995 --    66 C    0.975
    99   1 H    0.993 --    66 C    0.959
 ---------------------------------------------------------------------------

Topologies differ in bond orders
Writing corrected topology to xtbtopo.mol

molecular dipole:
                 x           y           z       tot (Debye)
 q only:        4.616       1.003      -0.111
   full:        3.938       0.777      -0.044      10.202
molecular quadrupole (traceless):
                xx          xy          yy          xz          yz          zz
 q only:        8.847      36.096     -12.321      59.042     -97.995       3.474
  q+dip:       10.144      43.638      -4.740      73.386    -114.426      -5.404
   full:        6.304      41.030      -1.217      77.046    -124.205      -5.087


           -------------------------------------------------
          | TOTAL ENERGY             -186.853779106639 Eh   |
          | GRADIENT NORM               0.026500934041 Eh/α |
          | HOMO-LUMO GAP               0.915110958258 eV   |
           -------------------------------------------------

------------------------------------------------------------------------
 * finished run on 2022/02/02 at 02:33:23.476     
------------------------------------------------------------------------
 total:
 * wall-time:     0 d,  0 h,  0 min,  0.287 sec
 *  cpu-time:     0 d,  0 h,  0 min,  2.213 sec
 * ratio c/w:     7.712 speedup
 SCF:
 * wall-time:     0 d,  0 h,  0 min,  0.230 sec
 *  cpu-time:     0 d,  0 h,  0 min,  1.833 sec
 * ratio c/w:     7.965 speedup

