      -----------------------------------------------------------      
     |                   =====================                   |     
     |                           x T B                           |     
     |                   =====================                   |     
     |                         S. Grimme                         |     
     |          Mulliken Center for Theoretical Chemistry        |     
     |                    University of Bonn                     |     
      -----------------------------------------------------------      

   * xtb version 6.4.1 (unknown) compiled by 'oda6@login1.crc.pitt.edu' on 2021-06-25

   xtb is free software: you can redistribute it and/or modify it under
   the terms of the GNU Lesser General Public License as published by
   the Free Software Foundation, either version 3 of the License, or
   (at your option) any later version.
   
   xtb is distributed in the hope that it will be useful,
   but WITHOUT ANY WARRANTY; without even the implied warranty of
   MERCHANTABILITY or FITNESS FOR A PARTICULAR PURPOSE.  See the
   GNU Lesser General Public License for more details.
   
   Cite this work as:
   * C. Bannwarth, E. Caldeweyher, S. Ehlert, A. Hansen, P. Pracht,
     J. Seibert, S. Spicher, S. Grimme, WIREs Comput. Mol. Sci., 2020, 11,
     e01493. DOI: 10.1002/wcms.1493
   
   for GFN2-xTB:
   * C. Bannwarth, S. Ehlert and S. Grimme., J. Chem. Theory Comput., 2019,
     15, 1652-1671. DOI: 10.1021/acs.jctc.8b01176
   for GFN1-xTB:
   * S. Grimme, C. Bannwarth, P. Shushkov, J. Chem. Theory Comput., 2017,
     13, 1989-2009. DOI: 10.1021/acs.jctc.7b00118
   for GFN0-xTB:
   * P. Pracht, E. Caldeweyher, S. Ehlert, S. Grimme, ChemRxiv, 2019, preprint.
     DOI: 10.26434/chemrxiv.8326202.v1
   for GFN-FF:
   * S. Spicher and S. Grimme, Angew. Chem. Int. Ed., 2020, 59, 15665-15673.
     DOI: 10.1002/anie.202004239
   
   for DFT-D4:
   * E. Caldeweyher, C. Bannwarth and S. Grimme, J. Chem. Phys., 2017,
     147, 034112. DOI: 10.1063/1.4993215
   * E. Caldeweyher, S. Ehlert, A. Hansen, H. Neugebauer, S. Spicher,
     C. Bannwarth and S. Grimme, J. Chem. Phys., 2019, 150, 154122.
     DOI: 10.1063/1.5090222
   * E. Caldeweyher, J.-M. Mewes, S. Ehlert and S. Grimme, Phys. Chem. Chem. Phys.
     2020, 22, 8499-8512. DOI: 10.1039/D0CP00502A
   
   for sTDA-xTB:
   * S. Grimme and C. Bannwarth, J. Chem. Phys., 2016, 145, 054103.
     DOI: 10.1063/1.4959605
   
   in the mass-spec context:
   * V. Asgeirsson, C. Bauer and S. Grimme, Chem. Sci., 2017, 8, 4879.
     DOI: 10.1039/c7sc00601b
   * J. Koopman and S. Grimme, ACS Omega 2019, 4, 12, 15120-15133.
     DOI: 10.1021/acsomega.9b02011
   
   for metadynamics refer to:
   * S. Grimme, J. Chem. Theory Comput., 2019, 155, 2847-2862
     DOI: 10.1021/acs.jctc.9b00143
   
   for SPH calculations refer to:
   * S. Spicher and S. Grimme, J. Chem. Theory Comput., 2021, 17, 1701-1714
     DOI: 10.1021/acs.jctc.0c01306
   
   with help from (in alphabetical order)
   P. Atkinson, C. Bannwarth, F. Bohle, G. Brandenburg, E. Caldeweyher
   M. Checinski, S. Dohm, S. Ehlert, S. Ehrlich, I. Gerasimov, J. Koopman
   C. Lavigne, S. Lehtola, F. März, M. Müller, F. Musil, H. Neugebauer
   J. Pisarek, C. Plett, P. Pracht, J. Seibert, P. Shushkov, S. Spicher
   M. Stahn, M. Steiner, T. Strunk, J. Stückrath, T. Rose, and J. Unsleber
   
 * started run on 2022/02/01 at 22:29:50.469     

           -------------------------------------------------
          |                Calculation Setup                |
           -------------------------------------------------

          program call               : /ihome/ghutchison/oda6/xtb/xtb-641/bin/xtb ../../GFN2_output/65_21_39.mol --sp --alpb hexane
          hostname                   : smp-n98
          coordinate file            : ../../GFN2_output/65_21_39.mol
          omp threads                :                     8
          number of atoms            :                   111
          number of electrons        :                   376
          charge                     :                     0
          spin                       :                   0.0
          first test random number   :      0.28143313942562

   ID    Z sym.   atoms
    1    6 C      1-3, 5, 6, 8, 10, 12, 14-17, 19, 21, 23, 24, 26, 27, 29-33,
                  35-38, 40-43, 45, 46, 48-50, 52-57, 59-67, 69, 71-77
    2    8 O      4, 28, 34, 58
    3   17 Cl     7, 9, 11, 13
    4    7 N      18, 20, 39, 51, 68, 70
    5   16 S      22, 25, 44, 47
    6    1 H      78-111

           -------------------------------------------------
          |                 G F N 2 - x T B                 |
           -------------------------------------------------

        Reference                      10.1021/acs.jctc.8b01176
      * Hamiltonian:
        H0-scaling (s, p, d)           1.850000    2.230000    2.230000
        zeta-weighting                 0.500000
      * Dispersion:
        s8                             2.700000
        a1                             0.520000
        a2                             5.000000
        s9                             5.000000
      * Repulsion:
        kExp                           1.500000    1.000000
        rExp                           1.000000
      * Coulomb:
        alpha                          2.000000
        third order                    shell-resolved
        anisotropic                    true
        a3                             3.000000
        a5                             4.000000
        cn-shift                       1.200000
        cn-exp                         4.000000
        max-rad                        5.000000

      * Solvation model:               ALPB
        Solvent                        hexane
        Parameter file                 internal GFN2-xTB/ALPB
        Dielectric constant                1.8800E+00
        Reference state                gsolv [1 M gas/solution]
        Free energy shift                  4.8134E-03 Eh       3.0204E+00 kcal/mol
        Temperature                        2.9815E+02 K
        Density                            6.6000E-01 kg/L
        Solvent mass                       8.6180E+01 g/mol
        Interaction kernel             P16
        Born radius scaling (c1)           1.1040E+00
        Born radii integrator          GBOBC
        Born offset                        0.0000E+00 a0       0.0000E+00 AA
        H-bond correction              false
        Ion screening                  false
        Surface tension                    1.0000E-05 Eh       1.5569E+01 dyn/cm
        Grid points                               230 per atom

          ...................................................
          :                      SETUP                      :
          :.................................................:
          :  # basis functions                 390          :
          :  # atomic orbitals                 382          :
          :  # shells                          196          :
          :  # electrons                       376          :
          :  max. iterations                   250          :
          :  Hamiltonian                  GFN2-xTB          :
          :  restarted?                      false          :
          :  GBSA solvation                   true          :
          :  PC potential                    false          :
          :  electronic temp.          300.0000000     K    :
          :  accuracy                    1.0000000          :
          :  -> integral cutoff          0.2500000E+02      :
          :  -> integral neglect         0.1000000E-07      :
          :  -> SCF convergence          0.1000000E-05 Eh   :
          :  -> wf. convergence          0.1000000E-03 e    :
          :  Broyden damping             0.4000000          :
          ...................................................

 iter      E             dE          RMSdq      gap      omega  full diag
   1   -211.3773827 -0.211377E+03  0.468E+00    1.17       0.0  T
   2   -211.5697981 -0.192415E+00  0.267E+00    0.93       1.0  T
   3   -211.5055748  0.642233E-01  0.149E+00    0.67       1.0  T
   4   -211.6176932 -0.112118E+00  0.529E-01    0.80       1.0  T
   5   -211.6372329 -0.195397E-01  0.161E-01    0.69       1.0  T
   6   -211.6382717 -0.103882E-02  0.871E-02    0.76       1.0  T
   7   -211.6385417 -0.269985E-03  0.418E-02    0.74       1.0  T
   8   -211.6385972 -0.555773E-04  0.273E-02    0.75       1.0  T
   9   -211.6386147 -0.174631E-04  0.191E-02    0.75       1.0  T
  10   -211.6386259 -0.112159E-04  0.126E-02    0.75       1.0  T
  11   -211.6386323 -0.641492E-05  0.733E-03    0.75       1.3  T
  12   -211.6386341 -0.175272E-05  0.443E-03    0.75       2.1  T
  13   -211.6386349 -0.831744E-06  0.265E-03    0.75       3.6  T
  14   -211.6386352 -0.243253E-06  0.194E-03    0.75       4.9  T
  15   -211.6386353 -0.136661E-06  0.139E-03    0.75       6.8  T
  16   -211.6386354 -0.945370E-07  0.817E-04    0.75      11.6  T
  17   -211.6386354 -0.362461E-07  0.452E-04    0.75      21.0  T

   *** convergence criteria satisfied after 17 iterations ***

         #    Occupation            Energy/Eh            Energy/eV
      -------------------------------------------------------------
         1        2.0000           -1.0855910             -29.5404
       ...           ...                  ...                  ...
       182        2.0000           -0.4032913             -10.9741
       183        2.0000           -0.3982972             -10.8382
       184        2.0000           -0.3980142             -10.8305
       185        2.0000           -0.3929354             -10.6923
       186        2.0000           -0.3828924             -10.4190
       187        2.0000           -0.3821508             -10.3989
       188        2.0000           -0.3656612              -9.9501 (HOMO)
       189        0.0000           -0.3380076              -9.1977 (LUMO)
       190                         -0.3303284              -8.9887
       191                         -0.3264175              -8.8823
       192                         -0.3161245              -8.6022
       193                         -0.2875890              -7.8257
       ...                                ...                  ...
       382                          1.1568601              31.4798
      -------------------------------------------------------------
                  HL-Gap            0.0276536 Eh            0.7525 eV
             Fermi-level           -0.3518345 Eh           -9.5739 eV

 SCC (total)                   0 d,  0 h,  0 min,  0.339 sec
 SCC setup                      ...        0 min,  0.002 sec (  0.698%)
 Dispersion                     ...        0 min,  0.004 sec (  1.253%)
 classical contributions        ...        0 min,  0.000 sec (  0.040%)
 integral evaluation            ...        0 min,  0.015 sec (  4.404%)
 iterations                     ...        0 min,  0.281 sec ( 82.783%)
 molecular gradient             ...        0 min,  0.035 sec ( 10.453%)
 printout                       ...        0 min,  0.001 sec (  0.346%)

         :::::::::::::::::::::::::::::::::::::::::::::::::::::
         ::                     SUMMARY                     ::
         :::::::::::::::::::::::::::::::::::::::::::::::::::::
         :: total energy            -208.646884622669 Eh    ::
         :: total w/o Gsasa/hb      -208.576018142677 Eh    ::
         :: gradient norm              0.019942284216 Eh/a0 ::
         :: HOMO-LUMO gap              0.752492395328 eV    ::
         ::.................................................::
         :: SCC energy              -211.638635437464 Eh    ::
         :: -> isotropic ES            0.155759236752 Eh    ::
         :: -> anisotropic ES          0.009736759807 Eh    ::
         :: -> anisotropic XC          0.114136448705 Eh    ::
         :: -> dispersion             -0.181201194008 Eh    ::
         :: -> Gsolv                  -0.092787857694 Eh    ::
         ::    -> Gelec               -0.021921377702 Eh    ::
         ::    -> Gsasa               -0.075679835812 Eh    ::
         ::    -> Ghb                  0.000000000000 Eh    ::
         ::    -> Gshift               0.004813355820 Eh    ::
         :: repulsion energy           2.993307519754 Eh    ::
         :: add. restraining           0.000000000000 Eh    ::
         :: total charge              -0.000000000300 e     ::
         :::::::::::::::::::::::::::::::::::::::::::::::::::::

           -------------------------------------------------
          |                Property Printout                |
           -------------------------------------------------

    * Orbital Energies and Occupations

         #    Occupation            Energy/Eh            Energy/eV
      -------------------------------------------------------------
         1        2.0000           -1.0855910             -29.5404
       ...           ...                  ...                  ...
       176        2.0000           -0.4221872             -11.4883
       177        2.0000           -0.4190420             -11.4027
       178        2.0000           -0.4163962             -11.3307
       179        2.0000           -0.4156214             -11.3096
       180        2.0000           -0.4142827             -11.2732
       181        2.0000           -0.4097867             -11.1509
       182        2.0000           -0.4032913             -10.9741
       183        2.0000           -0.3982972             -10.8382
       184        2.0000           -0.3980142             -10.8305
       185        2.0000           -0.3929354             -10.6923
       186        2.0000           -0.3828924             -10.4190
       187        2.0000           -0.3821508             -10.3989
       188        2.0000           -0.3656612              -9.9501 (HOMO)
       189        0.0000           -0.3380076              -9.1977 (LUMO)
       190                         -0.3303284              -8.9887
       191                         -0.3264175              -8.8823
       192                         -0.3161245              -8.6022
       193                         -0.2875890              -7.8257
       194                         -0.2732433              -7.4353
       195                         -0.2572796              -7.0009
       196                         -0.2546878              -6.9304
       197                         -0.2534740              -6.8974
       198                         -0.2500504              -6.8042
       199                         -0.2461890              -6.6991
       ...                                ...                  ...
       382                          1.1568601              31.4798
      -------------------------------------------------------------
                  HL-Gap            0.0276536 Eh            0.7525 eV
             Fermi-level           -0.3518345 Eh           -9.5739 eV

     #   Z          covCN         q      C6AA      α(0)
     1   6 C        2.918    -0.011    28.290     8.722
     2   6 C        3.010    -0.036    28.885     8.816
     3   6 C        2.873     0.240    22.997     7.861
     4   8 O        0.940    -0.374    21.135     6.166
     5   6 C        3.080    -0.026    28.569     8.763
     6   6 C        2.912     0.099    25.797     8.329
     7  17 Cl       0.992    -0.079   101.615    15.422
     8   6 C        2.960     0.082    26.175     8.392
     9  17 Cl       1.032    -0.082   101.719    15.430
    10   6 C        2.964     0.084    26.126     8.384
    11  17 Cl       1.055    -0.083   101.747    15.432
    12   6 C        2.915     0.090    25.997     8.361
    13  17 Cl       1.015    -0.094   102.098    15.459
    14   6 C        3.056     0.005    27.868     8.657
    15   6 C        3.023     0.044    26.985     8.521
    16   6 C        2.947     0.017    27.642     8.623
    17   6 C        1.953     0.134    27.795     8.514
    18   7 N        0.911    -0.260    26.746     7.480
    19   6 C        1.960     0.134    27.806     8.516
    20   7 N        0.911    -0.253    26.577     7.456
    21   6 C        2.993     0.028    27.356     8.580
    22  16 S        2.271     0.023   140.116    19.923
    23   6 C        3.091    -0.006    28.071     8.684
    24   6 C        3.117    -0.001    27.874     8.648
    25  16 S        2.175    -0.048   143.032    20.129
    26   6 C        3.010     0.002    27.975     8.676
    27   6 C        2.890     0.121    25.337     8.253
    28   8 O        1.702    -0.322    19.375     5.943
    29   6 C        3.693     0.087    19.304     6.286
    30   6 C        3.751    -0.118    22.813     6.811
    31   6 C        3.073    -0.026    28.581     8.766
    32   6 C        3.001    -0.006    28.158     8.705
    33   6 C        2.871     0.132    25.110     8.214
    34   8 O        1.703    -0.294    18.888     5.868
    35   6 C        3.684     0.081    19.428     6.311
    36   6 C        3.751    -0.122    22.895     6.824
    37   6 C        3.071    -0.029    28.651     8.777
    38   6 C        3.220     0.044    26.318     8.342
    39   7 N        2.796    -0.020    21.636     6.908
    40   6 C        3.279     0.038    25.755     8.169
    41   6 C        3.035    -0.052    29.260     8.872
    42   6 C        3.740    -0.006    20.766     6.502
    43   6 C        3.752    -0.114    22.737     6.800
    44  16 S        2.175    -0.064   143.709    20.176
    45   6 C        3.119    -0.000    27.857     8.644
    46   6 C        3.091    -0.011    28.189     8.703
    47  16 S        2.284     0.013   140.525    19.952
    48   6 C        2.994     0.027    27.382     8.584
    49   6 C        3.038    -0.054    29.311     8.880
    50   6 C        3.285     0.037    25.695     8.148
    51   7 N        2.798    -0.024    21.706     6.920
    52   6 C        3.740    -0.010    20.827     6.512
    53   6 C        3.752    -0.112    22.694     6.793
    54   6 C        3.221     0.039    26.415     8.355
    55   6 C        2.918    -0.014    28.357     8.732
    56   6 C        3.004    -0.037    28.916     8.821
    57   6 C        2.874     0.232    23.143     7.886
    58   8 O        0.950    -0.397    21.575     6.230
    59   6 C        3.059    -0.020    28.448     8.747
    60   6 C        2.904    -0.021    28.535     8.759
    61   6 C        3.261     0.010    26.616     8.335
    62   6 C        3.257     0.012    26.636     8.344
    63   6 C        2.904    -0.034    28.838     8.805
    64   6 C        3.049     0.005    27.861     8.657
    65   6 C        3.019     0.037    27.149     8.547
    66   6 C        2.947     0.006    27.884     8.661
    67   6 C        1.950     0.134    27.803     8.515
    68   7 N        0.911    -0.269    26.959     7.509
    69   6 C        1.949     0.132    27.850     8.522
    70   7 N        0.911    -0.275    27.107     7.530
    71   6 C        4.163    -0.024    20.923     6.497
    72   6 C        4.011    -0.015    20.766     6.474
    73   6 C        2.988    -0.041    29.020     8.837
    74   6 C        2.987    -0.042    29.032     8.838
    75   6 C        4.012    -0.015    20.765     6.473
    76   6 C        3.927    -0.060    21.593     6.604
    77   6 C        4.162    -0.024    20.922     6.496
    78   1 H        0.925     0.081     1.973     2.196
    79   1 H        0.924     0.041     2.441     2.443
    80   1 H        0.923     0.033     2.541     2.493
    81   1 H        0.925     0.060     2.204     2.321
    82   1 H        0.925     0.062     2.180     2.309
    83   1 H        0.925     0.057     2.238     2.339
    84   1 H        0.923     0.046     2.368     2.406
    85   1 H        0.924     0.048     2.350     2.397
    86   1 H        0.925     0.061     2.187     2.313
    87   1 H        0.925     0.057     2.230     2.335
    88   1 H        0.925     0.062     2.180     2.309
    89   1 H        0.926     0.067     2.124     2.279
    90   1 H        0.924     0.064     2.149     2.292
    91   1 H        0.925     0.080     1.983     2.202
    92   1 H        0.925     0.055     2.256     2.349
    93   1 H        0.925     0.056     2.251     2.346
    94   1 H        0.925     0.048     2.350     2.397
    95   1 H        0.926     0.063     2.165     2.301
    96   1 H        0.925     0.092     1.859     2.132
    97   1 H        0.924     0.057     2.229     2.335
    98   1 H        0.925     0.049     2.328     2.386
    99   1 H        0.925     0.055     2.263     2.353
   100   1 H        0.925     0.045     2.384     2.414
   101   1 H        0.925     0.073     2.050     2.239
   102   1 H        0.926     0.062     2.173     2.305
   103   1 H        0.926     0.059     2.215     2.327
   104   1 H        0.925     0.050     2.323     2.384
   105   1 H        0.925     0.040     2.455     2.450
   106   1 H        0.926     0.032     2.557     2.501
   107   1 H        0.926     0.032     2.553     2.499
   108   1 H        0.925     0.039     2.469     2.457
   109   1 H        0.925     0.042     2.426     2.436
   110   1 H        0.925     0.043     2.412     2.429
   111   1 H        0.925     0.049     2.329     2.387

 Mol. C6AA /au·bohr⁶  :     237202.982281
 Mol. C8AA /au·bohr⁸  :    6793820.854231
 Mol. α(0) /au        :        768.840917


Wiberg/Mayer (AO) data.
largest (>0.10) Wiberg bond orders for each atom

 ---------------------------------------------------------------------------
     #   Z sym  total        # sym  WBO       # sym  WBO       # sym  WBO
 ---------------------------------------------------------------------------
     1   6 C    3.939 --     2 C    1.466    21 C    1.328    78 H    0.938
     2   6 C    3.949 --     1 C    1.466    15 C    1.140     3 C    1.077
     3   6 C    3.918 --     4 O    1.697     2 C    1.077     5 C    1.016
     4   8 O    2.096 --     3 C    1.697    22 S    0.113
     5   6 C    3.970 --     6 C    1.382    14 C    1.273     3 C    1.016
     6   6 C    3.929 --     5 C    1.382     8 C    1.311     7 Cl   1.038
     7  17 Cl   1.206 --     6 C    1.038
     8   6 C    3.923 --    10 C    1.370     6 C    1.311     9 Cl   1.029
     9  17 Cl   1.189 --     8 C    1.029
    10   6 C    3.928 --     8 C    1.370    12 C    1.317    11 Cl   1.030
    11  17 Cl   1.188 --    10 C    1.030
    12   6 C    3.918 --    14 C    1.369    10 C    1.317    13 Cl   1.021
    13  17 Cl   1.197 --    12 C    1.021
    14   6 C    3.977 --    12 C    1.369     5 C    1.273    15 C    1.083
    15   6 C    3.964 --    16 C    1.477     2 C    1.140    14 C    1.083
    16   6 C    3.950 --    15 C    1.477    17 C    1.098    19 C    1.096
    17   6 C    3.943 --    18 N    2.748    16 C    1.098
    18   7 N    2.957 --    17 C    2.748
    19   6 C    3.943 --    20 N    2.759    16 C    1.096
    20   7 N    2.964 --    19 C    2.759
    21   6 C    3.933 --    41 C    1.350     1 C    1.328    22 S    1.085
    22  16 S    2.689 --    23 C    1.161    21 C    1.085    41 C    0.114
                             4 O    0.113
    23   6 C    3.940 --    24 C    1.332    40 C    1.208    22 S    1.161
    24   6 C    3.924 --    23 C    1.332    38 C    1.294    25 S    1.082
    25  16 S    2.472 --    26 C    1.088    24 C    1.082
    26   6 C    3.935 --    27 C    1.380    37 C    1.247    25 S    1.088
    27   6 C    3.919 --    26 C    1.380    31 C    1.291    28 O    1.020
    28   8 O    2.127 --    27 C    1.020    29 C    0.930
    29   6 C    3.929 --    30 C    1.018    79 H    0.967    80 H    0.967
                            28 O    0.930
    30   6 C    3.989 --    29 C    1.018    82 H    0.985    81 H    0.984
                            83 H    0.982
    31   6 C    3.960 --    27 C    1.291    32 C    1.239    54 C    1.186
    32   6 C    3.932 --    33 C    1.374    31 C    1.239    44 S    1.080
    33   6 C    3.918 --    32 C    1.374    37 C    1.266    34 O    1.061
    34   8 O    2.193 --    33 C    1.061    35 C    0.937
    35   6 C    3.928 --    36 C    1.015    85 H    0.966    84 H    0.965
                            34 O    0.937
    36   6 C    3.989 --    35 C    1.015    86 H    0.985    87 H    0.982
                            88 H    0.981
    37   6 C    3.957 --    33 C    1.266    26 C    1.247    38 C    1.190
    38   6 C    3.903 --    24 C    1.294    37 C    1.190    39 N    1.186
    39   7 N    3.587 --    38 C    1.186    40 C    1.156    42 C    0.978
    40   6 C    3.937 --    41 C    1.377    23 C    1.208    39 N    1.156
    41   6 C    3.965 --    40 C    1.377    21 C    1.350    89 H    0.958
                            22 S    0.114
    42   6 C    3.958 --    43 C    1.005    39 N    0.978    90 H    0.968
                            91 H    0.960
    43   6 C    3.989 --    42 C    1.005    94 H    0.987    93 H    0.985
                            92 H    0.983
    44  16 S    2.473 --    45 C    1.082    32 C    1.080
    45   6 C    3.924 --    46 C    1.322    54 C    1.301    44 S    1.082
    46   6 C    3.939 --    45 C    1.322    50 C    1.226    47 S    1.153
    47  16 S    2.697 --    46 C    1.153    48 C    1.094    58 O    0.122
                            49 C    0.114
    48   6 C    3.932 --    49 C    1.376    55 C    1.296    47 S    1.094
    49   6 C    3.966 --    48 C    1.376    50 C    1.355    95 H    0.959
                            47 S    0.114
    50   6 C    3.938 --    49 C    1.355    46 C    1.226    51 N    1.159
    51   7 N    3.588 --    54 C    1.185    50 C    1.159    52 C    0.979
    52   6 C    3.955 --    53 C    1.007    51 N    0.979    97 H    0.966
                            96 H    0.954
    53   6 C    3.990 --    52 C    1.007    98 H    0.984   100 H    0.983
                            99 H    0.983
    54   6 C    3.906 --    45 C    1.301    31 C    1.186    51 N    1.185
    55   6 C    3.945 --    56 C    1.503    48 C    1.296   101 H    0.937
    56   6 C    3.952 --    55 C    1.503    65 C    1.139    57 C    1.061
    57   6 C    3.911 --    58 O    1.691    56 C    1.061    59 C    1.033
    58   8 O    2.086 --    57 C    1.691    47 S    0.122
    59   6 C    3.971 --    60 C    1.381    64 C    1.306    57 C    1.033
    60   6 C    3.980 --    61 C    1.441    59 C    1.381   102 H    0.963
    61   6 C    3.955 --    60 C    1.441    62 C    1.326    77 C    0.996
    62   6 C    3.965 --    63 C    1.448    61 C    1.326    71 C    0.997
    63   6 C    3.978 --    62 C    1.448    64 C    1.367   103 H    0.958
    64   6 C    3.976 --    63 C    1.367    59 C    1.306    65 C    1.089
    65   6 C    3.969 --    66 C    1.475    56 C    1.139    64 C    1.089
    66   6 C    3.956 --    65 C    1.475    69 C    1.102    67 C    1.099
    67   6 C    3.942 --    68 N    2.752    66 C    1.099
    68   7 N    2.960 --    67 C    2.752
    69   6 C    3.942 --    70 N    2.740    66 C    1.102
    70   7 N    2.955 --    69 C    2.740
    71   6 C    3.985 --    62 C    0.997    77 C    0.978   104 H    0.959
                            72 C    0.947
    72   6 C    3.989 --    73 C    1.010    76 C    0.985   105 H    0.972
                            71 C    0.947
    73   6 C    3.987 --    74 C    1.924    72 C    1.010   106 H    0.971
    74   6 C    3.987 --    73 C    1.924    75 C    1.010   107 H    0.971
    75   6 C    3.989 --    74 C    1.010    76 C    0.985   108 H    0.972
                            77 C    0.947
    76   6 C    3.993 --    75 C    0.985    72 C    0.985   109 H    0.977
                           110 H    0.976
    77   6 C    3.984 --    61 C    0.996    71 C    0.978   111 H    0.959
                            75 C    0.947
    78   1 H    0.993 --     1 C    0.938
    79   1 H    0.998 --    29 C    0.967
    80   1 H    0.998 --    29 C    0.967
    81   1 H    0.996 --    30 C    0.984
    82   1 H    0.996 --    30 C    0.985
    83   1 H    0.996 --    30 C    0.982
    84   1 H    0.996 --    35 C    0.965
    85   1 H    0.998 --    35 C    0.966
    86   1 H    0.996 --    36 C    0.985
    87   1 H    0.996 --    36 C    0.982
    88   1 H    0.996 --    36 C    0.981
    89   1 H    0.995 --    41 C    0.958
    90   1 H    0.995 --    42 C    0.968
    91   1 H    0.992 --    42 C    0.960
    92   1 H    0.996 --    43 C    0.983
    93   1 H    0.997 --    43 C    0.985
    94   1 H    0.998 --    43 C    0.987
    95   1 H    0.995 --    49 C    0.959
    96   1 H    0.991 --    52 C    0.954
    97   1 H    0.995 --    52 C    0.966
    98   1 H    0.998 --    53 C    0.984
    99   1 H    0.996 --    53 C    0.983
   100   1 H    0.998 --    53 C    0.983
   101   1 H    0.994 --    55 C    0.937
   102   1 H    0.996 --    60 C    0.963
   103   1 H    0.996 --    63 C    0.958
   104   1 H    0.996 --    71 C    0.959
   105   1 H    0.998 --    72 C    0.972
   106   1 H    0.999 --    73 C    0.971
   107   1 H    0.999 --    74 C    0.971
   108   1 H    0.998 --    75 C    0.972
   109   1 H    0.998 --    76 C    0.977
   110   1 H    0.996 --    76 C    0.976
   111   1 H    0.996 --    77 C    0.959
 ---------------------------------------------------------------------------

Topologies differ in bond orders
Writing corrected topology to xtbtopo.mol

molecular dipole:
                 x           y           z       tot (Debye)
 q only:        3.442       1.225      -0.313
   full:        3.168       0.813      -0.416       8.380
molecular quadrupole (traceless):
                xx          xy          yy          xz          yz          zz
 q only:      -79.496      29.473      74.923    -122.906      22.003       4.573
  q+dip:      -55.326      47.921      66.890    -118.848      33.985     -11.564
   full:      -61.510      42.044      74.116    -123.719      41.121     -12.606


           -------------------------------------------------
          | TOTAL ENERGY             -208.646884622669 Eh   |
          | GRADIENT NORM               0.019942284216 Eh/α |
          | HOMO-LUMO GAP               0.752492395328 eV   |
           -------------------------------------------------

------------------------------------------------------------------------
 * finished run on 2022/02/01 at 22:29:50.873     
------------------------------------------------------------------------
 total:
 * wall-time:     0 d,  0 h,  0 min,  0.404 sec
 *  cpu-time:     0 d,  0 h,  0 min,  3.146 sec
 * ratio c/w:     7.785 speedup
 SCF:
 * wall-time:     0 d,  0 h,  0 min,  0.341 sec
 *  cpu-time:     0 d,  0 h,  0 min,  2.719 sec
 * ratio c/w:     7.972 speedup

