      -----------------------------------------------------------      
     |                   =====================                   |     
     |                           x T B                           |     
     |                   =====================                   |     
     |                         S. Grimme                         |     
     |          Mulliken Center for Theoretical Chemistry        |     
     |                    University of Bonn                     |     
      -----------------------------------------------------------      

   * xtb version 6.4.1 (unknown) compiled by 'oda6@login1.crc.pitt.edu' on 2021-06-25

   xtb is free software: you can redistribute it and/or modify it under
   the terms of the GNU Lesser General Public License as published by
   the Free Software Foundation, either version 3 of the License, or
   (at your option) any later version.
   
   xtb is distributed in the hope that it will be useful,
   but WITHOUT ANY WARRANTY; without even the implied warranty of
   MERCHANTABILITY or FITNESS FOR A PARTICULAR PURPOSE.  See the
   GNU Lesser General Public License for more details.
   
   Cite this work as:
   * C. Bannwarth, E. Caldeweyher, S. Ehlert, A. Hansen, P. Pracht,
     J. Seibert, S. Spicher, S. Grimme, WIREs Comput. Mol. Sci., 2020, 11,
     e01493. DOI: 10.1002/wcms.1493
   
   for GFN2-xTB:
   * C. Bannwarth, S. Ehlert and S. Grimme., J. Chem. Theory Comput., 2019,
     15, 1652-1671. DOI: 10.1021/acs.jctc.8b01176
   for GFN1-xTB:
   * S. Grimme, C. Bannwarth, P. Shushkov, J. Chem. Theory Comput., 2017,
     13, 1989-2009. DOI: 10.1021/acs.jctc.7b00118
   for GFN0-xTB:
   * P. Pracht, E. Caldeweyher, S. Ehlert, S. Grimme, ChemRxiv, 2019, preprint.
     DOI: 10.26434/chemrxiv.8326202.v1
   for GFN-FF:
   * S. Spicher and S. Grimme, Angew. Chem. Int. Ed., 2020, 59, 15665-15673.
     DOI: 10.1002/anie.202004239
   
   for DFT-D4:
   * E. Caldeweyher, C. Bannwarth and S. Grimme, J. Chem. Phys., 2017,
     147, 034112. DOI: 10.1063/1.4993215
   * E. Caldeweyher, S. Ehlert, A. Hansen, H. Neugebauer, S. Spicher,
     C. Bannwarth and S. Grimme, J. Chem. Phys., 2019, 150, 154122.
     DOI: 10.1063/1.5090222
   * E. Caldeweyher, J.-M. Mewes, S. Ehlert and S. Grimme, Phys. Chem. Chem. Phys.
     2020, 22, 8499-8512. DOI: 10.1039/D0CP00502A
   
   for sTDA-xTB:
   * S. Grimme and C. Bannwarth, J. Chem. Phys., 2016, 145, 054103.
     DOI: 10.1063/1.4959605
   
   in the mass-spec context:
   * V. Asgeirsson, C. Bauer and S. Grimme, Chem. Sci., 2017, 8, 4879.
     DOI: 10.1039/c7sc00601b
   * J. Koopman and S. Grimme, ACS Omega 2019, 4, 12, 15120-15133.
     DOI: 10.1021/acsomega.9b02011
   
   for metadynamics refer to:
   * S. Grimme, J. Chem. Theory Comput., 2019, 155, 2847-2862
     DOI: 10.1021/acs.jctc.9b00143
   
   for SPH calculations refer to:
   * S. Spicher and S. Grimme, J. Chem. Theory Comput., 2021, 17, 1701-1714
     DOI: 10.1021/acs.jctc.0c01306
   
   with help from (in alphabetical order)
   P. Atkinson, C. Bannwarth, F. Bohle, G. Brandenburg, E. Caldeweyher
   M. Checinski, S. Dohm, S. Ehlert, S. Ehrlich, I. Gerasimov, J. Koopman
   C. Lavigne, S. Lehtola, F. März, M. Müller, F. Musil, H. Neugebauer
   J. Pisarek, C. Plett, P. Pracht, J. Seibert, P. Shushkov, S. Spicher
   M. Stahn, M. Steiner, T. Strunk, J. Stückrath, T. Rose, and J. Unsleber
   
 * started run on 2022/02/02 at 11:55:36.542     

           -------------------------------------------------
          |                Calculation Setup                |
           -------------------------------------------------

          program call               : /ihome/ghutchison/oda6/xtb/xtb-641/bin/xtb ../../GFN2_output/66_100_39.mol --sp --alpb hexane
          hostname                   : smp-n98
          coordinate file            : ../../GFN2_output/66_100_39.mol
          omp threads                :                     8
          number of atoms            :                   136
          number of electrons        :                   440
          charge                     :                     0
          spin                       :                   0.0
          first test random number   :      0.04961760724778

   ID    Z sym.   atoms
    1    6 C      1-3, 5-9, 11, 13-19, 21, 23-33, 35-38, 42, 43, 45-55, 57,
                  58, 60, 61, 63, 64, 66-72, 74-82, 84, 86-92
    2    8 O      4, 73
    3    9 F      10, 12
    4    7 N      20, 22, 39, 41, 59, 62, 83, 85
    5   16 S      34, 40, 44, 56, 65
    6    1 H      93-136

           -------------------------------------------------
          |                 G F N 2 - x T B                 |
           -------------------------------------------------

        Reference                      10.1021/acs.jctc.8b01176
      * Hamiltonian:
        H0-scaling (s, p, d)           1.850000    2.230000    2.230000
        zeta-weighting                 0.500000
      * Dispersion:
        s8                             2.700000
        a1                             0.520000
        a2                             5.000000
        s9                             5.000000
      * Repulsion:
        kExp                           1.500000    1.000000
        rExp                           1.000000
      * Coulomb:
        alpha                          2.000000
        third order                    shell-resolved
        anisotropic                    true
        a3                             3.000000
        a5                             4.000000
        cn-shift                       1.200000
        cn-exp                         4.000000
        max-rad                        5.000000

      * Solvation model:               ALPB
        Solvent                        hexane
        Parameter file                 internal GFN2-xTB/ALPB
        Dielectric constant                1.8800E+00
        Reference state                gsolv [1 M gas/solution]
        Free energy shift                  4.8134E-03 Eh       3.0204E+00 kcal/mol
        Temperature                        2.9815E+02 K
        Density                            6.6000E-01 kg/L
        Solvent mass                       8.6180E+01 g/mol
        Interaction kernel             P16
        Born radius scaling (c1)           1.1040E+00
        Born radii integrator          GBOBC
        Born offset                        0.0000E+00 a0       0.0000E+00 AA
        H-bond correction              false
        Ion screening                  false
        Surface tension                    1.0000E-05 Eh       1.5569E+01 dyn/cm
        Grid points                               230 per atom

          ...................................................
          :                      SETUP                      :
          :.................................................:
          :  # basis functions                 442          :
          :  # atomic orbitals                 437          :
          :  # shells                          233          :
          :  # electrons                       440          :
          :  max. iterations                   250          :
          :  Hamiltonian                  GFN2-xTB          :
          :  restarted?                      false          :
          :  GBSA solvation                   true          :
          :  PC potential                    false          :
          :  electronic temp.          300.0000000     K    :
          :  accuracy                    1.0000000          :
          :  -> integral cutoff          0.2500000E+02      :
          :  -> integral neglect         0.1000000E-07      :
          :  -> SCF convergence          0.1000000E-05 Eh   :
          :  -> wf. convergence          0.1000000E-03 e    :
          :  Broyden damping             0.4000000          :
          ...................................................

 iter      E             dE          RMSdq      gap      omega  full diag
   1   -243.8679692 -0.243868E+03  0.440E+00    1.27       0.0  T
   2   -244.0582768 -0.190308E+00  0.262E+00    1.01       1.0  T
   3   -243.9797667  0.785101E-01  0.136E+00    1.07       1.0  T
   4   -244.1118767 -0.132110E+00  0.457E-01    1.08       1.0  T
   5   -244.1285028 -0.166261E-01  0.146E-01    1.01       1.0  T
   6   -244.1297027 -0.119992E-02  0.745E-02    1.06       1.0  T
   7   -244.1299754 -0.272669E-03  0.287E-02    1.04       1.0  T
   8   -244.1300175 -0.420836E-04  0.121E-02    1.05       1.0  T
   9   -244.1300243 -0.683661E-05  0.566E-03    1.04       1.5  T
  10   -244.1300253 -0.959514E-06  0.270E-03    1.05       3.2  T
  11   -244.1300257 -0.419375E-06  0.125E-03    1.04       6.8  T
  12   -244.1300257 -0.325229E-07  0.680E-04    1.05      12.6  T
  13   -244.1300257 -0.207749E-07  0.300E-04    1.05      28.5  T

   *** convergence criteria satisfied after 13 iterations ***

         #    Occupation            Energy/Eh            Energy/eV
      -------------------------------------------------------------
         1        2.0000           -0.8463104             -23.0293
       ...           ...                  ...                  ...
       214        2.0000           -0.4007529             -10.9050
       215        2.0000           -0.3995830             -10.8732
       216        2.0000           -0.3957409             -10.7687
       217        2.0000           -0.3908830             -10.6365
       218        2.0000           -0.3868956             -10.5280
       219        2.0000           -0.3788952             -10.3103
       220        2.0000           -0.3737629             -10.1706 (HOMO)
       221                         -0.3353575              -9.1255 (LUMO)
       222                         -0.3292942              -8.9606
       223                         -0.3222077              -8.7677
       224                         -0.3168781              -8.6227
       225                         -0.3020907              -8.2203
       ...                                ...                  ...
       437                          1.1573863              31.4941
      -------------------------------------------------------------
                  HL-Gap            0.0384054 Eh            1.0451 eV
             Fermi-level           -0.3545589 Eh           -9.6480 eV

 SCC (total)                   0 d,  0 h,  0 min,  0.341 sec
 SCC setup                      ...        0 min,  0.003 sec (  0.965%)
 Dispersion                     ...        0 min,  0.005 sec (  1.599%)
 classical contributions        ...        0 min,  0.000 sec (  0.055%)
 integral evaluation            ...        0 min,  0.020 sec (  5.781%)
 iterations                     ...        0 min,  0.259 sec ( 75.902%)
 molecular gradient             ...        0 min,  0.052 sec ( 15.186%)
 printout                       ...        0 min,  0.002 sec (  0.486%)

         :::::::::::::::::::::::::::::::::::::::::::::::::::::
         ::                     SUMMARY                     ::
         :::::::::::::::::::::::::::::::::::::::::::::::::::::
         :: total energy            -240.276330219722 Eh    ::
         :: total w/o Gsasa/hb      -240.198189215710 Eh    ::
         :: gradient norm              0.022157327112 Eh/a0 ::
         :: HOMO-LUMO gap              1.045064109918 eV    ::
         ::.................................................::
         :: SCC energy              -244.130025743551 Eh    ::
         :: -> isotropic ES            0.164375017802 Eh    ::
         :: -> anisotropic ES          0.011469569703 Eh    ::
         :: -> anisotropic XC          0.143721617839 Eh    ::
         :: -> dispersion             -0.227509333100 Eh    ::
         :: -> Gsolv                  -0.104090720065 Eh    ::
         ::    -> Gelec               -0.025949716054 Eh    ::
         ::    -> Gsasa               -0.082954359831 Eh    ::
         ::    -> Ghb                  0.000000000000 Eh    ::
         ::    -> Gshift               0.004813355820 Eh    ::
         :: repulsion energy           3.852771076238 Eh    ::
         :: add. restraining           0.000000000000 Eh    ::
         :: total charge               0.000000000009 e     ::
         :::::::::::::::::::::::::::::::::::::::::::::::::::::

           -------------------------------------------------
          |                Property Printout                |
           -------------------------------------------------

    * Orbital Energies and Occupations

         #    Occupation            Energy/Eh            Energy/eV
      -------------------------------------------------------------
         1        2.0000           -0.8463104             -23.0293
       ...           ...                  ...                  ...
       208        2.0000           -0.4119231             -11.2090
       209        2.0000           -0.4114477             -11.1961
       210        2.0000           -0.4086822             -11.1208
       211        2.0000           -0.4056785             -11.0391
       212        2.0000           -0.4052774             -11.0282
       213        2.0000           -0.4023351             -10.9481
       214        2.0000           -0.4007529             -10.9050
       215        2.0000           -0.3995830             -10.8732
       216        2.0000           -0.3957409             -10.7687
       217        2.0000           -0.3908830             -10.6365
       218        2.0000           -0.3868956             -10.5280
       219        2.0000           -0.3788952             -10.3103
       220        2.0000           -0.3737629             -10.1706 (HOMO)
       221                         -0.3353575              -9.1255 (LUMO)
       222                         -0.3292942              -8.9606
       223                         -0.3222077              -8.7677
       224                         -0.3168781              -8.6227
       225                         -0.3020907              -8.2203
       226                         -0.2962011              -8.0600
       227                         -0.2721741              -7.4062
       228                         -0.2620678              -7.1312
       229                         -0.2490229              -6.7763
       230                         -0.2477812              -6.7425
       231                         -0.2473582              -6.7310
       ...                                ...                  ...
       437                          1.1573863              31.4941
      -------------------------------------------------------------
                  HL-Gap            0.0384054 Eh            1.0451 eV
             Fermi-level           -0.3545589 Eh           -9.6480 eV

     #   Z          covCN         q      C6AA      α(0)
     1   6 C        2.919    -0.011    28.297     8.723
     2   6 C        3.008    -0.039    28.962     8.828
     3   6 C        2.871     0.230    23.183     7.893
     4   8 O        0.976    -0.404    21.694     6.248
     5   6 C        3.037    -0.016    28.375     8.737
     6   6 C        2.913    -0.016    28.417     8.741
     7   6 C        2.990     0.018    27.589     8.616
     8   6 C        2.919    -0.052    29.283     8.874
     9   6 C        2.775     0.165    24.420     8.094
    10   9 F        0.787    -0.214    11.385     3.986
    11   6 C        2.775     0.166    24.404     8.091
    12   9 F        0.787    -0.213    11.372     3.983
    13   6 C        2.920    -0.051    29.272     8.872
    14   6 C        2.988     0.020    27.549     8.610
    15   6 C        2.916    -0.029    28.717     8.787
    16   6 C        3.028     0.009    27.792     8.647
    17   6 C        3.016     0.034    27.210     8.557
    18   6 C        2.947     0.006    27.886     8.661
    19   6 C        1.948     0.132    27.845     8.522
    20   7 N        0.911    -0.268    26.930     7.505
    21   6 C        1.945     0.130    27.891     8.529
    22   7 N        0.911    -0.271    27.009     7.516
    23   6 C        2.991     0.021    27.539     8.608
    24   6 C        3.107     0.010    27.658     8.617
    25   6 C        2.979     0.002    27.986     8.678
    26   6 C        2.926    -0.033    28.833     8.806
    27   6 C        2.919    -0.032    28.789     8.799
    28   6 C        2.919    -0.026    28.641     8.776
    29   6 C        2.926    -0.029    28.720     8.789
    30   6 C        2.973     0.014    27.695     8.632
    31   6 C        3.806    -0.057    21.601     6.616
    32   6 C        3.754    -0.099    22.454     6.757
    33   6 C        3.172     0.015    27.296     8.534
    34  16 S        2.160    -0.033   142.420    20.086
    35   6 C        3.094     0.009    27.699     8.626
    36   6 C        3.090    -0.037    28.812     8.798
    37   6 C        3.342     0.070    23.977     7.739
    38   6 C        3.342     0.070    23.982     7.740
    39   7 N        1.854    -0.295    28.493     7.912
    40  16 S        2.688     0.347   127.710    19.020
    41   7 N        1.854    -0.295    28.503     7.913
    42   6 C        3.089    -0.036    28.778     8.793
    43   6 C        3.100     0.005    27.786     8.638
    44  16 S        2.174    -0.023   141.997    20.056
    45   6 C        3.203     0.012    27.157     8.489
    46   6 C        3.102     0.018    27.475     8.589
    47   6 C        2.978     0.012    27.752     8.641
    48   6 C        2.967     0.007    27.858     8.657
    49   6 C        3.806    -0.058    21.611     6.618
    50   6 C        3.752    -0.095    22.383     6.747
    51   6 C        2.928    -0.040    28.984     8.829
    52   6 C        2.918    -0.032    28.802     8.801
    53   6 C        2.918    -0.032    28.796     8.800
    54   6 C        2.930    -0.020    28.500     8.755
    55   6 C        2.997     0.027    27.384     8.584
    56  16 S        2.282    -0.045   142.900    20.120
    57   6 C        3.114     0.010    27.631     8.611
    58   6 C        3.246     0.028    26.393     8.322
    59   7 N        2.801    -0.025    21.721     6.922
    60   6 C        3.067     0.029    27.283     8.565
    61   6 C        3.067     0.032    27.215     8.554
    62   7 N        2.802    -0.020    21.632     6.908
    63   6 C        3.252     0.028    26.325     8.303
    64   6 C        3.106    -0.000    27.900     8.655
    65  16 S        2.326     0.007   140.761    19.968
    66   6 C        3.745    -0.010    20.834     6.511
    67   6 C        3.752    -0.118    22.816     6.812
    68   6 C        3.743    -0.008    20.785     6.504
    69   6 C        3.751    -0.119    22.840     6.815
    70   6 C        2.953    -0.005    28.141     8.701
    71   6 C        3.007    -0.033    28.812     8.805
    72   6 C        2.868     0.232    23.139     7.885
    73   8 O        0.856    -0.418    22.039     6.294
    74   6 C        3.060    -0.021    28.473     8.750
    75   6 C        2.904    -0.022    28.555     8.762
    76   6 C        3.259     0.011    26.618     8.338
    77   6 C        3.256     0.012    26.642     8.347
    78   6 C        2.904    -0.034    28.850     8.807
    79   6 C        3.046     0.005    27.875     8.659
    80   6 C        3.020     0.037    27.149     8.547
    81   6 C        2.947     0.008    27.848     8.655
    82   6 C        1.940     0.132    27.854     8.523
    83   7 N        0.911    -0.271    26.997     7.515
    84   6 C        1.940     0.133    27.828     8.519
    85   7 N        0.911    -0.268    26.928     7.505
    86   6 C        4.162    -0.022    20.881     6.490
    87   6 C        4.013    -0.015    20.768     6.474
    88   6 C        2.995    -0.041    29.019     8.837
    89   6 C        2.995    -0.042    29.036     8.839
    90   6 C        4.013    -0.015    20.765     6.473
    91   6 C        3.915    -0.060    21.584     6.603
    92   6 C        4.161    -0.022    20.882     6.490
    93   1 H        0.925     0.074     2.037     2.232
    94   1 H        0.926     0.073     2.057     2.243
    95   1 H        0.926     0.087     1.908     2.160
    96   1 H        0.926     0.090     1.881     2.145
    97   1 H        0.926     0.070     2.083     2.257
    98   1 H        0.926     0.033     2.539     2.492
    99   1 H        0.926     0.040     2.451     2.448
   100   1 H        0.926     0.043     2.408     2.427
   101   1 H        0.926     0.047     2.364     2.404
   102   1 H        0.924     0.043     2.413     2.429
   103   1 H        0.924     0.028     2.609     2.526
   104   1 H        0.925     0.041     2.429     2.437
   105   1 H        0.925     0.038     2.473     2.459
   106   1 H        0.925     0.036     2.509     2.477
   107   1 H        0.925     0.032     2.553     2.499
   108   1 H        0.924     0.048     2.348     2.397
   109   1 H        0.925     0.041     2.439     2.442
   110   1 H        0.925     0.021     2.715     2.577
   111   1 H        0.925     0.040     2.455     2.450
   112   1 H        0.926     0.041     2.438     2.442
   113   1 H        0.926     0.038     2.479     2.462
   114   1 H        0.926     0.041     2.437     2.441
   115   1 H        0.926     0.050     2.320     2.382
   116   1 H        0.924     0.070     2.083     2.257
   117   1 H        0.925     0.078     2.004     2.214
   118   1 H        0.925     0.060     2.198     2.319
   119   1 H        0.925     0.047     2.359     2.402
   120   1 H        0.925     0.061     2.189     2.314
   121   1 H        0.924     0.066     2.133     2.284
   122   1 H        0.925     0.077     2.010     2.217
   123   1 H        0.925     0.060     2.205     2.322
   124   1 H        0.925     0.049     2.335     2.390
   125   1 H        0.925     0.060     2.197     2.318
   126   1 H        0.925     0.069     2.094     2.263
   127   1 H        0.926     0.060     2.195     2.317
   128   1 H        0.926     0.058     2.224     2.332
   129   1 H        0.925     0.046     2.375     2.410
   130   1 H        0.925     0.040     2.443     2.444
   131   1 H        0.926     0.039     2.464     2.455
   132   1 H        0.926     0.038     2.473     2.459
   133   1 H        0.925     0.039     2.464     2.455
   134   1 H        0.925     0.035     2.512     2.478
   135   1 H        0.925     0.041     2.437     2.441
   136   1 H        0.925     0.045     2.381     2.413

 Mol. C6AA /au·bohr⁶  :     322466.825456
 Mol. C8AA /au·bohr⁸  :    8869209.634250
 Mol. α(0) /au        :        902.580052


Wiberg/Mayer (AO) data.
largest (>0.10) Wiberg bond orders for each atom

 ---------------------------------------------------------------------------
     #   Z sym  total        # sym  WBO       # sym  WBO       # sym  WBO
 ---------------------------------------------------------------------------
     1   6 C    3.940 --     2 C    1.448    23 C    1.344    93 H    0.933
     2   6 C    3.950 --     1 C    1.448    17 C    1.154     3 C    1.087
     3   6 C    3.909 --     4 O    1.669     2 C    1.087     5 C    1.025
     4   8 O    2.077 --     3 C    1.669    65 S    0.137
     5   6 C    3.976 --     6 C    1.524    16 C    1.203     3 C    1.025
     6   6 C    3.973 --     5 C    1.524     7 C    1.268    94 H    0.962
     7   6 C    3.980 --     8 C    1.289     6 C    1.268    14 C    1.242
     8   6 C    3.974 --     9 C    1.494     7 C    1.289    95 H    0.960
                            13 C    0.107
     9   6 C    3.875 --     8 C    1.494    11 C    1.250    10 F    0.968
    10   9 F    1.098 --     9 C    0.968
    11   6 C    3.878 --    13 C    1.495     9 C    1.250    12 F    0.969
    12   9 F    1.100 --    11 C    0.969
    13   6 C    3.973 --    11 C    1.495    14 C    1.287    96 H    0.960
                             8 C    0.107
    14   6 C    3.983 --    13 C    1.287    15 C    1.272     7 C    1.242
    15   6 C    3.967 --    16 C    1.507    14 C    1.272    97 H    0.956
    16   6 C    3.980 --    15 C    1.507     5 C    1.203    17 C    1.082
    17   6 C    3.967 --    18 C    1.469     2 C    1.154    16 C    1.082
    18   6 C    3.931 --    17 C    1.469    21 C    1.102    19 C    1.100
    19   6 C    3.941 --    20 N    2.752    18 C    1.100
    20   7 N    2.959 --    19 C    2.752
    21   6 C    3.943 --    22 N    2.742    18 C    1.102
    22   7 N    2.958 --    21 C    2.742
    23   6 C    3.928 --     1 C    1.344    24 C    1.299    65 S    1.074
    24   6 C    3.954 --    33 C    1.372    23 C    1.299    25 C    1.019
    25   6 C    3.984 --    26 C    1.392    30 C    1.368    24 C    1.019
                            28 C    0.105
    26   6 C    3.988 --    27 C    1.446    25 C    1.392    98 H    0.970
                            29 C    0.109
    27   6 C    3.989 --    26 C    1.446    28 C    1.432    99 H    0.969
                            30 C    0.107
    28   6 C    3.988 --    29 C    1.446    27 C    1.432   100 H    0.970
                            25 C    0.105
    29   6 C    3.990 --    28 C    1.446    30 C    1.413   101 H    0.967
                            26 C    0.109
    30   6 C    3.985 --    29 C    1.413    25 C    1.368    31 C    1.013
                            27 C    0.107
    31   6 C    3.997 --    30 C    1.013    32 C    1.000   102 H    0.974
                           103 H    0.971
    32   6 C    3.995 --    31 C    1.000   104 H    0.988   106 H    0.987
                           105 H    0.986
    33   6 C    3.927 --    24 C    1.372    64 C    1.275    34 S    1.077
    34  16 S    2.501 --    35 C    1.113    33 C    1.077
    35   6 C    3.914 --    36 C    1.289    63 C    1.289    34 S    1.113
    36   6 C    3.953 --    35 C    1.289    61 C    1.255    37 C    1.170
    37   6 C    3.972 --    41 N    1.425    36 C    1.170    38 C    1.170
                            40 S    0.103
    38   6 C    3.972 --    39 N    1.424    42 C    1.171    37 C    1.170
                            40 S    0.103
    39   7 N    3.062 --    38 C    1.424    40 S    1.388    41 N    0.144
    40  16 S    3.104 --    39 N    1.388    41 N    1.387    38 C    0.103
                            37 C    0.103
    41   7 N    3.062 --    37 C    1.425    40 S    1.387    39 N    0.144
    42   6 C    3.952 --    43 C    1.277    60 C    1.267    38 C    1.171
    43   6 C    3.920 --    58 C    1.300    42 C    1.277    44 S    1.117
    44  16 S    2.526 --    43 C    1.117    45 C    1.094
    45   6 C    3.927 --    57 C    1.328    46 C    1.287    44 S    1.094
    46   6 C    3.958 --    55 C    1.395    45 C    1.287    47 C    1.036
    47   6 C    3.985 --    48 C    1.372    54 C    1.370    46 C    1.036
                            52 C    0.101
    48   6 C    3.985 --    51 C    1.410    47 C    1.372    49 C    1.012
                            53 C    0.105
    49   6 C    3.997 --    48 C    1.012    50 C    1.007   107 H    0.973
                           108 H    0.962
    50   6 C    3.995 --    49 C    1.007   111 H    0.986   109 H    0.986
                           110 H    0.985
    51   6 C    3.989 --    52 C    1.448    48 C    1.410   112 H    0.966
                            54 C    0.107
    52   6 C    3.986 --    51 C    1.448    53 C    1.426   113 H    0.970
                            47 C    0.101
    53   6 C    3.989 --    54 C    1.452    52 C    1.426   114 H    0.969
                            48 C    0.105
    54   6 C    3.986 --    53 C    1.452    47 C    1.370   115 H    0.967
                            51 C    0.107
    55   6 C    3.923 --    46 C    1.395    70 C    1.242    56 S    1.064
    56  16 S    2.539 --    57 C    1.129    55 C    1.064
    57   6 C    3.933 --    45 C    1.328    58 C    1.248    56 S    1.129
    58   6 C    3.937 --    43 C    1.300    57 C    1.248    59 N    1.163
    59   7 N    3.566 --    60 C    1.175    58 C    1.163    68 C    0.978
    60   6 C    3.929 --    42 C    1.267    61 C    1.218    59 N    1.175
    61   6 C    3.925 --    36 C    1.255    60 C    1.218    62 N    1.188
    62   7 N    3.574 --    61 C    1.188    63 C    1.159    66 C    0.979
    63   6 C    3.938 --    35 C    1.289    64 C    1.264    62 N    1.159
    64   6 C    3.939 --    33 C    1.275    63 C    1.264    65 S    1.157
    65  16 S    2.728 --    64 C    1.157    23 C    1.074     4 O    0.137
    66   6 C    3.956 --    67 C    1.006    62 N    0.979   116 H    0.962
                           117 H    0.957
    67   6 C    3.986 --    66 C    1.006   118 H    0.982   120 H    0.981
                           119 H    0.979
    68   6 C    3.957 --    69 C    1.006    59 N    0.978   121 H    0.964
                           122 H    0.959
    69   6 C    3.986 --    68 C    1.006   123 H    0.983   125 H    0.979
                           124 H    0.978
    70   6 C    3.946 --    71 C    1.541    55 C    1.242   126 H    0.943
    71   6 C    3.958 --    70 C    1.541    80 C    1.135    72 C    1.032
    72   6 C    3.918 --    73 O    1.729    71 C    1.032    74 C    1.028
    73   8 O    2.022 --    72 C    1.729
    74   6 C    3.973 --    75 C    1.379    79 C    1.308    72 C    1.028
    75   6 C    3.980 --    76 C    1.444    74 C    1.379   127 H    0.963
    76   6 C    3.955 --    75 C    1.444    77 C    1.322    92 C    0.993
    77   6 C    3.965 --    78 C    1.452    76 C    1.322    86 C    0.993
    78   6 C    3.977 --    77 C    1.452    79 C    1.361   128 H    0.959
    79   6 C    3.977 --    78 C    1.361    74 C    1.308    80 C    1.092
    80   6 C    3.972 --    81 C    1.475    71 C    1.135    79 C    1.092
    81   6 C    3.952 --    80 C    1.475    84 C    1.101    82 C    1.100
    82   6 C    3.943 --    83 N    2.751    81 C    1.100
    83   7 N    2.955 --    82 C    2.751
    84   6 C    3.942 --    85 N    2.755    81 C    1.101
    85   7 N    2.960 --    84 C    2.755
    86   6 C    3.984 --    77 C    0.993    92 C    0.975   129 H    0.961
                            87 C    0.951
    87   6 C    3.989 --    88 C    1.004    91 C    0.989   130 H    0.971
                            86 C    0.951
    88   6 C    3.982 --    89 C    1.923    87 C    1.004   131 H    0.971
    89   6 C    3.982 --    88 C    1.923    90 C    1.004   132 H    0.971
    90   6 C    3.988 --    89 C    1.004    91 C    0.989   133 H    0.971
                            92 C    0.950
    91   6 C    3.994 --    90 C    0.989    87 C    0.989   135 H    0.978
                           134 H    0.974
    92   6 C    3.983 --    76 C    0.993    86 C    0.975   136 H    0.961
                            90 C    0.950
    93   1 H    0.993 --     1 C    0.933
    94   1 H    0.994 --     6 C    0.962
    95   1 H    0.992 --     8 C    0.960
    96   1 H    0.991 --    13 C    0.960
    97   1 H    0.994 --    15 C    0.956
    98   1 H    0.999 --    26 C    0.970
    99   1 H    0.996 --    27 C    0.969
   100   1 H    0.997 --    28 C    0.970
   101   1 H    0.996 --    29 C    0.967
   102   1 H    0.998 --    31 C    0.974
   103   1 H    0.999 --    31 C    0.971
   104   1 H    0.998 --    32 C    0.988
   105   1 H    0.998 --    32 C    0.986
   106   1 H    0.999 --    32 C    0.987
   107   1 H    0.999 --    49 C    0.973
   108   1 H    0.997 --    49 C    0.962
   109   1 H    0.998 --    50 C    0.986
   110   1 H    1.000 --    50 C    0.985
   111   1 H    0.998 --    50 C    0.986
   112   1 H    0.997 --    51 C    0.966
   113   1 H    0.998 --    52 C    0.970
   114   1 H    0.996 --    53 C    0.969
   115   1 H    0.997 --    54 C    0.967
   116   1 H    0.993 --    66 C    0.962
   117   1 H    0.993 --    66 C    0.957
   118   1 H    0.995 --    67 C    0.982
   119   1 H    0.998 --    67 C    0.979
   120   1 H    0.996 --    67 C    0.981
   121   1 H    0.993 --    68 C    0.964
   122   1 H    0.993 --    68 C    0.959
   123   1 H    0.996 --    69 C    0.983
   124   1 H    0.998 --    69 C    0.978
   125   1 H    0.996 --    69 C    0.979
   126   1 H    0.992 --    70 C    0.943
   127   1 H    0.996 --    75 C    0.963
   128   1 H    0.996 --    78 C    0.959
   129   1 H    0.996 --    86 C    0.961
   130   1 H    0.998 --    87 C    0.971
   131   1 H    0.998 --    88 C    0.971
   132   1 H    0.998 --    89 C    0.971
   133   1 H    0.998 --    90 C    0.971
   134   1 H    0.999 --    91 C    0.974
   135   1 H    0.998 --    91 C    0.978
   136   1 H    0.996 --    92 C    0.961
 ---------------------------------------------------------------------------

Topologies differ in bond orders
Writing corrected topology to xtbtopo.mol

molecular dipole:
                 x           y           z       tot (Debye)
 q only:       -1.502       1.089      -2.158
   full:       -1.101       0.842      -2.568       7.418
molecular quadrupole (traceless):
                xx          xy          yy          xz          yz          zz
 q only:      -65.915     -12.441      21.915     -77.380     -42.880      44.001
  q+dip:      -63.319     -15.299      17.672     -84.597     -58.106      45.647
   full:      -60.024     -16.675      16.466     -90.619     -63.776      43.559


           -------------------------------------------------
          | TOTAL ENERGY             -240.276330219722 Eh   |
          | GRADIENT NORM               0.022157327112 Eh/α |
          | HOMO-LUMO GAP               1.045064109918 eV   |
           -------------------------------------------------

------------------------------------------------------------------------
 * finished run on 2022/02/02 at 11:55:36.957     
------------------------------------------------------------------------
 total:
 * wall-time:     0 d,  0 h,  0 min,  0.415 sec
 *  cpu-time:     0 d,  0 h,  0 min,  3.221 sec
 * ratio c/w:     7.768 speedup
 SCF:
 * wall-time:     0 d,  0 h,  0 min,  0.343 sec
 *  cpu-time:     0 d,  0 h,  0 min,  2.735 sec
 * ratio c/w:     7.981 speedup

