      -----------------------------------------------------------      
     |                   =====================                   |     
     |                           x T B                           |     
     |                   =====================                   |     
     |                         S. Grimme                         |     
     |          Mulliken Center for Theoretical Chemistry        |     
     |                    University of Bonn                     |     
      -----------------------------------------------------------      

   * xtb version 6.4.1 (unknown) compiled by 'oda6@login1.crc.pitt.edu' on 2021-06-25

   xtb is free software: you can redistribute it and/or modify it under
   the terms of the GNU Lesser General Public License as published by
   the Free Software Foundation, either version 3 of the License, or
   (at your option) any later version.
   
   xtb is distributed in the hope that it will be useful,
   but WITHOUT ANY WARRANTY; without even the implied warranty of
   MERCHANTABILITY or FITNESS FOR A PARTICULAR PURPOSE.  See the
   GNU Lesser General Public License for more details.
   
   Cite this work as:
   * C. Bannwarth, E. Caldeweyher, S. Ehlert, A. Hansen, P. Pracht,
     J. Seibert, S. Spicher, S. Grimme, WIREs Comput. Mol. Sci., 2020, 11,
     e01493. DOI: 10.1002/wcms.1493
   
   for GFN2-xTB:
   * C. Bannwarth, S. Ehlert and S. Grimme., J. Chem. Theory Comput., 2019,
     15, 1652-1671. DOI: 10.1021/acs.jctc.8b01176
   for GFN1-xTB:
   * S. Grimme, C. Bannwarth, P. Shushkov, J. Chem. Theory Comput., 2017,
     13, 1989-2009. DOI: 10.1021/acs.jctc.7b00118
   for GFN0-xTB:
   * P. Pracht, E. Caldeweyher, S. Ehlert, S. Grimme, ChemRxiv, 2019, preprint.
     DOI: 10.26434/chemrxiv.8326202.v1
   for GFN-FF:
   * S. Spicher and S. Grimme, Angew. Chem. Int. Ed., 2020, 59, 15665-15673.
     DOI: 10.1002/anie.202004239
   
   for DFT-D4:
   * E. Caldeweyher, C. Bannwarth and S. Grimme, J. Chem. Phys., 2017,
     147, 034112. DOI: 10.1063/1.4993215
   * E. Caldeweyher, S. Ehlert, A. Hansen, H. Neugebauer, S. Spicher,
     C. Bannwarth and S. Grimme, J. Chem. Phys., 2019, 150, 154122.
     DOI: 10.1063/1.5090222
   * E. Caldeweyher, J.-M. Mewes, S. Ehlert and S. Grimme, Phys. Chem. Chem. Phys.
     2020, 22, 8499-8512. DOI: 10.1039/D0CP00502A
   
   for sTDA-xTB:
   * S. Grimme and C. Bannwarth, J. Chem. Phys., 2016, 145, 054103.
     DOI: 10.1063/1.4959605
   
   in the mass-spec context:
   * V. Asgeirsson, C. Bauer and S. Grimme, Chem. Sci., 2017, 8, 4879.
     DOI: 10.1039/c7sc00601b
   * J. Koopman and S. Grimme, ACS Omega 2019, 4, 12, 15120-15133.
     DOI: 10.1021/acsomega.9b02011
   
   for metadynamics refer to:
   * S. Grimme, J. Chem. Theory Comput., 2019, 155, 2847-2862
     DOI: 10.1021/acs.jctc.9b00143
   
   for SPH calculations refer to:
   * S. Spicher and S. Grimme, J. Chem. Theory Comput., 2021, 17, 1701-1714
     DOI: 10.1021/acs.jctc.0c01306
   
   with help from (in alphabetical order)
   P. Atkinson, C. Bannwarth, F. Bohle, G. Brandenburg, E. Caldeweyher
   M. Checinski, S. Dohm, S. Ehlert, S. Ehrlich, I. Gerasimov, J. Koopman
   C. Lavigne, S. Lehtola, F. März, M. Müller, F. Musil, H. Neugebauer
   J. Pisarek, C. Plett, P. Pracht, J. Seibert, P. Shushkov, S. Spicher
   M. Stahn, M. Steiner, T. Strunk, J. Stückrath, T. Rose, and J. Unsleber
   
 * started run on 2022/02/01 at 22:24:55.235     

           -------------------------------------------------
          |                Calculation Setup                |
           -------------------------------------------------

          program call               : /ihome/ghutchison/oda6/xtb/xtb-641/bin/xtb ../../GFN2_output/66_26_1.mol --sp --alpb hexane
          hostname                   : smp-n66
          coordinate file            : ../../GFN2_output/66_26_1.mol
          omp threads                :                     8
          number of atoms            :                   107
          number of electrons        :                   370
          charge                     :                     0
          spin                       :                   0.0
          first test random number   :      0.04795940829280

   ID    Z sym.   atoms
    1    6 C      1-3, 5-9, 11, 13-19, 21, 23, 25, 26, 28-31, 35, 36, 38-42,
                  44, 45, 47, 48, 50, 51, 53-63, 65-67, 69-74, 76
    2    8 O      4, 64
    3    9 F      10, 12
    4    7 N      20, 22, 32, 34, 46, 49, 52, 75, 77
    5   16 S      24, 27, 33, 37, 43
    6   35 Br     68
    7    1 H      78-107

           -------------------------------------------------
          |                 G F N 2 - x T B                 |
           -------------------------------------------------

        Reference                      10.1021/acs.jctc.8b01176
      * Hamiltonian:
        H0-scaling (s, p, d)           1.850000    2.230000    2.230000
        zeta-weighting                 0.500000
      * Dispersion:
        s8                             2.700000
        a1                             0.520000
        a2                             5.000000
        s9                             5.000000
      * Repulsion:
        kExp                           1.500000    1.000000
        rExp                           1.000000
      * Coulomb:
        alpha                          2.000000
        third order                    shell-resolved
        anisotropic                    true
        a3                             3.000000
        a5                             4.000000
        cn-shift                       1.200000
        cn-exp                         4.000000
        max-rad                        5.000000

      * Solvation model:               ALPB
        Solvent                        hexane
        Parameter file                 internal GFN2-xTB/ALPB
        Dielectric constant                1.8800E+00
        Reference state                gsolv [1 M gas/solution]
        Free energy shift                  4.8134E-03 Eh       3.0204E+00 kcal/mol
        Temperature                        2.9815E+02 K
        Density                            6.6000E-01 kg/L
        Solvent mass                       8.6180E+01 g/mol
        Interaction kernel             P16
        Born radius scaling (c1)           1.1040E+00
        Born radii integrator          GBOBC
        Born offset                        0.0000E+00 a0       0.0000E+00 AA
        H-bond correction              false
        Ion screening                  false
        Surface tension                    1.0000E-05 Eh       1.5569E+01 dyn/cm
        Grid points                               230 per atom

          ...................................................
          :                      SETUP                      :
          :.................................................:
          :  # basis functions                 374          :
          :  # atomic orbitals                 368          :
          :  # shells                          190          :
          :  # electrons                       370          :
          :  max. iterations                   250          :
          :  Hamiltonian                  GFN2-xTB          :
          :  restarted?                      false          :
          :  GBSA solvation                   true          :
          :  PC potential                    false          :
          :  electronic temp.          300.0000000     K    :
          :  accuracy                    1.0000000          :
          :  -> integral cutoff          0.2500000E+02      :
          :  -> integral neglect         0.1000000E-07      :
          :  -> SCF convergence          0.1000000E-05 Eh   :
          :  -> wf. convergence          0.1000000E-03 e    :
          :  Broyden damping             0.4000000          :
          ...................................................

 iter      E             dE          RMSdq      gap      omega  full diag
   1   -206.5506164 -0.206551E+03  0.458E+00    1.20       0.0  T
   2   -206.7577288 -0.207112E+00  0.278E+00    0.92       1.0  T
   3   -206.7174138  0.403151E-01  0.146E+00    1.07       1.0  T
   4   -206.8172038 -0.997900E-01  0.531E-01    1.03       1.0  T
   5   -206.8356277 -0.184239E-01  0.180E-01    0.94       1.0  T
   6   -206.8364970 -0.869272E-03  0.106E-01    0.99       1.0  T
   7   -206.8368283 -0.331346E-03  0.553E-02    0.97       1.0  T
   8   -206.8368906 -0.622641E-04  0.392E-02    0.97       1.0  T
   9   -206.8369118 -0.212003E-04  0.279E-02    0.97       1.0  T
  10   -206.8369240 -0.122626E-04  0.149E-02    0.97       1.0  T
  11   -206.8369315 -0.743540E-05  0.783E-03    0.97       1.2  T
  12   -206.8369327 -0.123216E-05  0.328E-03    0.97       2.9  T
  13   -206.8369331 -0.445759E-06  0.150E-03    0.97       6.4  T
  14   -206.8369332 -0.586761E-07  0.772E-04    0.96      12.5  T
  15   -206.8369332 -0.192468E-07  0.380E-04    0.97      25.5  T

   *** convergence criteria satisfied after 15 iterations ***

         #    Occupation            Energy/Eh            Energy/eV
      -------------------------------------------------------------
         1        2.0000           -0.8552919             -23.2737
       ...           ...                  ...                  ...
       179        2.0000           -0.4102292             -11.1629
       180        2.0000           -0.4083133             -11.1108
       181        2.0000           -0.4048111             -11.0155
       182        2.0000           -0.3941784             -10.7261
       183        2.0000           -0.3892499             -10.5920
       184        2.0000           -0.3804877             -10.3536
       185        2.0000           -0.3751707             -10.2089 (HOMO)
       186                         -0.3397064              -9.2439 (LUMO)
       187                         -0.3338042              -9.0833
       188                         -0.3275423              -8.9129
       189                         -0.3205301              -8.7221
       190                         -0.3069977              -8.3538
       ...                                ...                  ...
       368                          1.1569280              31.4816
      -------------------------------------------------------------
                  HL-Gap            0.0354643 Eh            0.9650 eV
             Fermi-level           -0.3574377 Eh           -9.7264 eV

 SCC (total)                   0 d,  0 h,  0 min,  0.265 sec
 SCC setup                      ...        0 min,  0.002 sec (  0.843%)
 Dispersion                     ...        0 min,  0.004 sec (  1.542%)
 classical contributions        ...        0 min,  0.000 sec (  0.045%)
 integral evaluation            ...        0 min,  0.013 sec (  4.914%)
 iterations                     ...        0 min,  0.212 sec ( 80.142%)
 molecular gradient             ...        0 min,  0.032 sec ( 12.131%)
 printout                       ...        0 min,  0.001 sec (  0.354%)

         :::::::::::::::::::::::::::::::::::::::::::::::::::::
         ::                     SUMMARY                     ::
         :::::::::::::::::::::::::::::::::::::::::::::::::::::
         :: total energy            -203.754047982190 Eh    ::
         :: total w/o Gsasa/hb      -203.686076007961 Eh    ::
         :: gradient norm              0.023382784481 Eh/a0 ::
         :: HOMO-LUMO gap              0.965032943869 eV    ::
         ::.................................................::
         :: SCC energy              -206.836933221861 Eh    ::
         :: -> isotropic ES            0.171223415893 Eh    ::
         :: -> anisotropic ES          0.005909440371 Eh    ::
         :: -> anisotropic XC          0.117954798612 Eh    ::
         :: -> dispersion             -0.175790618186 Eh    ::
         :: -> Gsolv                  -0.095317687268 Eh    ::
         ::    -> Gelec               -0.027345713039 Eh    ::
         ::    -> Gsasa               -0.072785330049 Eh    ::
         ::    -> Ghb                  0.000000000000 Eh    ::
         ::    -> Gshift               0.004813355820 Eh    ::
         :: repulsion energy           3.084345034345 Eh    ::
         :: add. restraining           0.000000000000 Eh    ::
         :: total charge               0.000000000027 e     ::
         :::::::::::::::::::::::::::::::::::::::::::::::::::::

           -------------------------------------------------
          |                Property Printout                |
           -------------------------------------------------

    * Orbital Energies and Occupations

         #    Occupation            Energy/Eh            Energy/eV
      -------------------------------------------------------------
         1        2.0000           -0.8552919             -23.2737
       ...           ...                  ...                  ...
       173        2.0000           -0.4247501             -11.5580
       174        2.0000           -0.4204713             -11.4416
       175        2.0000           -0.4197940             -11.4232
       176        2.0000           -0.4174276             -11.3588
       177        2.0000           -0.4171111             -11.3502
       178        2.0000           -0.4144880             -11.2788
       179        2.0000           -0.4102292             -11.1629
       180        2.0000           -0.4083133             -11.1108
       181        2.0000           -0.4048111             -11.0155
       182        2.0000           -0.3941784             -10.7261
       183        2.0000           -0.3892499             -10.5920
       184        2.0000           -0.3804877             -10.3536
       185        2.0000           -0.3751707             -10.2089 (HOMO)
       186                         -0.3397064              -9.2439 (LUMO)
       187                         -0.3338042              -9.0833
       188                         -0.3275423              -8.9129
       189                         -0.3205301              -8.7221
       190                         -0.3069977              -8.3538
       191                         -0.2959320              -8.0527
       192                         -0.2816463              -7.6640
       193                         -0.2663243              -7.2471
       194                         -0.2589540              -7.0465
       195                         -0.2512512              -6.8369
       196                         -0.2478851              -6.7453
       ...                                ...                  ...
       368                          1.1569280              31.4816
      -------------------------------------------------------------
                  HL-Gap            0.0354643 Eh            0.9650 eV
             Fermi-level           -0.3574377 Eh           -9.7264 eV

     #   Z          covCN         q      C6AA      α(0)
     1   6 C        2.955    -0.011    28.297     8.725
     2   6 C        3.001    -0.038    28.927     8.823
     3   6 C        2.864     0.232    23.142     7.885
     4   8 O        0.856    -0.432    22.322     6.334
     5   6 C        3.038    -0.017    28.391     8.740
     6   6 C        2.913    -0.017    28.426     8.743
     7   6 C        2.990     0.018    27.596     8.617
     8   6 C        2.919    -0.052    29.289     8.875
     9   6 C        2.775     0.165    24.427     8.095
    10   9 F        0.787    -0.215    11.391     3.987
    11   6 C        2.775     0.166    24.409     8.092
    12   9 F        0.787    -0.214    11.377     3.984
    13   6 C        2.920    -0.051    29.275     8.873
    14   6 C        2.988     0.020    27.551     8.610
    15   6 C        2.916    -0.029    28.727     8.789
    16   6 C        3.022     0.009    27.783     8.646
    17   6 C        3.019     0.035    27.191     8.554
    18   6 C        2.947     0.007    27.872     8.659
    19   6 C        1.945     0.130    27.898     8.530
    20   7 N        0.911    -0.267    26.902     7.501
    21   6 C        1.948     0.133    27.840     8.521
    22   7 N        0.911    -0.267    26.922     7.504
    23   6 C        2.997     0.030    27.316     8.573
    24  16 S        2.256    -0.027   142.176    20.069
    25   6 C        3.082     0.009    27.736     8.634
    26   6 C        3.126    -0.007    27.996     8.664
    27  16 S        2.127    -0.031   142.352    20.081
    28   6 C        3.125     0.009    27.638     8.609
    29   6 C        3.066    -0.035    28.793     8.799
    30   6 C        3.341     0.069    24.019     7.748
    31   6 C        3.340     0.069    24.042     7.755
    32   7 N        1.854    -0.296    28.520     7.915
    33  16 S        2.686     0.360   127.227    18.984
    34   7 N        1.854    -0.293    28.451     7.906
    35   6 C        3.075    -0.036    28.802     8.799
    36   6 C        3.103     0.005    27.775     8.636
    37  16 S        2.186    -0.014   141.641    20.031
    38   6 C        3.186     0.011    27.311     8.528
    39   6 C        3.084     0.023    27.402     8.581
    40   6 C        3.804    -0.049    21.454     6.594
    41   6 C        3.753    -0.109    22.637     6.785
    42   6 C        2.999     0.023    27.469     8.597
    43  16 S        2.268    -0.039   142.647    20.102
    44   6 C        3.122     0.013    27.541     8.594
    45   6 C        3.252     0.031    26.273     8.295
    46   7 N        2.793    -0.042    22.060     6.976
    47   6 C        3.094     0.032    27.167     8.543
    48   6 C        3.080     0.030    27.253     8.559
    49   7 N        2.787    -0.057    22.339     7.020
    50   6 C        3.169     0.020    27.207     8.522
    51   6 C        3.194     0.027    26.887     8.455
    52   7 N        2.795    -0.028    21.793     6.933
    53   6 C        3.292     0.036    25.591     8.117
    54   6 C        3.022    -0.054    29.317     8.882
    55   6 C        3.741    -0.010    20.825     6.511
    56   6 C        3.752    -0.114    22.748     6.802
    57   6 C        3.737     0.001    20.650     6.484
    58   6 C        3.749    -0.124    22.943     6.831
    59   6 C        3.743    -0.007    20.771     6.502
    60   6 C        3.752    -0.115    22.768     6.805
    61   6 C        2.955    -0.007    28.190     8.709
    62   6 C        3.009    -0.039    28.952     8.826
    63   6 C        2.865     0.233    23.121     7.882
    64   8 O        0.856    -0.413    21.949     6.281
    65   6 C        3.050    -0.014    28.325     8.729
    66   6 C        2.986    -0.020    28.495     8.756
    67   6 C        2.919     0.094    25.907     8.347
    68  35 Br       1.072    -0.155   189.319    22.185
    69   6 C        2.995    -0.026    28.632     8.777
    70   6 C        2.915    -0.025    28.617     8.772
    71   6 C        3.031     0.008    27.799     8.648
    72   6 C        3.021     0.036    27.180     8.552
    73   6 C        2.947     0.011    27.780     8.645
    74   6 C        1.936     0.130    27.894     8.529
    75   7 N        0.911    -0.263    26.824     7.491
    76   6 C        1.937     0.133    27.845     8.522
    77   7 N        0.911    -0.261    26.757     7.481
    78   1 H        0.925     0.075     2.035     2.231
    79   1 H        0.926     0.072     2.068     2.249
    80   1 H        0.926     0.086     1.914     2.164
    81   1 H        0.926     0.090     1.884     2.146
    82   1 H        0.926     0.070     2.087     2.259
    83   1 H        0.924     0.044     2.400     2.423
    84   1 H        0.924     0.081     1.964     2.192
    85   1 H        0.925     0.043     2.413     2.429
    86   1 H        0.925     0.048     2.344     2.394
    87   1 H        0.925     0.057     2.238     2.340
    88   1 H        0.926     0.103     1.760     2.074
    89   1 H        0.924     0.070     2.090     2.261
    90   1 H        0.925     0.076     2.026     2.226
    91   1 H        0.925     0.044     2.397     2.421
    92   1 H        0.925     0.054     2.267     2.354
    93   1 H        0.925     0.054     2.266     2.354
    94   1 H        0.924     0.061     2.189     2.314
    95   1 H        0.924     0.063     2.160     2.298
    96   1 H        0.925     0.054     2.274     2.358
    97   1 H        0.925     0.060     2.195     2.317
    98   1 H        0.925     0.058     2.227     2.333
    99   1 H        0.924     0.062     2.178     2.308
   100   1 H        0.925     0.083     1.948     2.183
   101   1 H        0.925     0.051     2.302     2.373
   102   1 H        0.925     0.046     2.364     2.404
   103   1 H        0.925     0.056     2.240     2.341
   104   1 H        0.925     0.072     2.068     2.249
   105   1 H        0.926     0.080     1.977     2.199
   106   1 H        0.926     0.076     2.019     2.222
   107   1 H        0.926     0.071     2.070     2.250

 Mol. C6AA /au·bohr⁶  :     226875.545017
 Mol. C8AA /au·bohr⁸  :    6562522.540102
 Mol. α(0) /au        :        758.100572


Wiberg/Mayer (AO) data.
largest (>0.10) Wiberg bond orders for each atom

 ---------------------------------------------------------------------------
     #   Z sym  total        # sym  WBO       # sym  WBO       # sym  WBO
 ---------------------------------------------------------------------------
     1   6 C    3.939 --     2 C    1.474    23 C    1.311    78 H    0.941
     2   6 C    3.947 --     1 C    1.474    17 C    1.146     3 C    1.063
     3   6 C    3.910 --     4 O    1.704     2 C    1.063     5 C    1.023
     4   8 O    2.001 --     3 C    1.704
     5   6 C    3.978 --     6 C    1.523    16 C    1.205     3 C    1.023
     6   6 C    3.974 --     5 C    1.523     7 C    1.270    79 H    0.962
     7   6 C    3.980 --     8 C    1.288     6 C    1.270    14 C    1.242
     8   6 C    3.975 --     9 C    1.495     7 C    1.288    80 H    0.960
                            13 C    0.107
     9   6 C    3.875 --     8 C    1.495    11 C    1.249    10 F    0.967
    10   9 F    1.098 --     9 C    0.967
    11   6 C    3.878 --    13 C    1.497     9 C    1.249    12 F    0.969
    12   9 F    1.100 --    11 C    0.969
    13   6 C    3.973 --    11 C    1.497    14 C    1.285    81 H    0.960
                             8 C    0.107
    14   6 C    3.984 --    13 C    1.285    15 C    1.274     7 C    1.242
    15   6 C    3.968 --    16 C    1.503    14 C    1.274    82 H    0.956
    16   6 C    3.980 --    15 C    1.503     5 C    1.205    17 C    1.084
    17   6 C    3.967 --    18 C    1.475     2 C    1.146    16 C    1.084
    18   6 C    3.932 --    17 C    1.475    21 C    1.099    19 C    1.099
    19   6 C    3.943 --    20 N    2.746    18 C    1.099
    20   7 N    2.957 --    19 C    2.746
    21   6 C    3.942 --    22 N    2.753    18 C    1.099
    22   7 N    2.961 --    21 C    2.753
    23   6 C    3.921 --    54 C    1.386     1 C    1.311    24 S    1.059
    24  16 S    2.541 --    25 C    1.155    23 C    1.059    54 C    0.103
    25   6 C    3.929 --    26 C    1.339    53 C    1.220    24 S    1.155
    26   6 C    3.917 --    25 C    1.339    51 C    1.261    27 S    1.094
    27  16 S    2.515 --    28 C    1.121    26 C    1.094
    28   6 C    3.910 --    50 C    1.317    29 C    1.262    27 S    1.121
    29   6 C    3.956 --    48 C    1.290    28 C    1.262    30 C    1.170
    30   6 C    3.971 --    34 N    1.423    29 C    1.170    31 C    1.167
                            33 S    0.103
    31   6 C    3.972 --    32 N    1.421    35 C    1.175    30 C    1.167
                            33 S    0.101
    32   7 N    3.062 --    31 C    1.421    33 S    1.392    34 N    0.144
    33  16 S    3.110 --    34 N    1.395    32 N    1.392    30 C    0.103
                            31 C    0.101
    34   7 N    3.066 --    30 C    1.423    33 S    1.395    32 N    0.144
    35   6 C    3.955 --    47 C    1.273    36 C    1.265    31 C    1.175
    36   6 C    3.919 --    45 C    1.303    35 C    1.265    37 S    1.119
    37  16 S    2.532 --    36 C    1.119    38 C    1.091
    38   6 C    3.928 --    39 C    1.316    44 C    1.310    37 S    1.091
    39   6 C    3.954 --    42 C    1.379    38 C    1.316    40 C    1.025
    40   6 C    3.992 --    39 C    1.025    41 C    1.004    83 H    0.968
                            84 H    0.934
    41   6 C    3.992 --    40 C    1.004    85 H    0.987    86 H    0.984
                            87 H    0.978
    42   6 C    3.925 --    39 C    1.379    61 C    1.283    43 S    1.060
    43  16 S    2.533 --    44 C    1.133    42 C    1.060
    44   6 C    3.934 --    38 C    1.310    45 C    1.265    43 S    1.133
    45   6 C    3.940 --    36 C    1.303    44 C    1.265    46 N    1.144
    46   7 N    3.527 --    47 C    1.163    45 C    1.144    59 C    0.972
    47   6 C    3.932 --    35 C    1.273    48 C    1.233    46 N    1.163
    48   6 C    3.930 --    29 C    1.290    47 C    1.233    49 N    1.150
    49   7 N    3.501 --    48 C    1.150    50 C    1.129    57 C    0.974
    50   6 C    3.928 --    28 C    1.317    51 C    1.236    49 N    1.129
    51   6 C    3.913 --    26 C    1.261    50 C    1.236    52 N    1.169
    52   7 N    3.577 --    51 C    1.169    53 C    1.153    55 C    0.982
    53   6 C    3.938 --    54 C    1.357    25 C    1.220    52 N    1.153
    54   6 C    3.945 --    23 C    1.386    53 C    1.357    88 H    0.935
                            24 S    0.103
    55   6 C    3.959 --    56 C    1.005    52 N    0.982    89 H    0.966
                            90 H    0.959
    56   6 C    3.988 --    55 C    1.005    93 H    0.986    92 H    0.983
                            91 H    0.983
    57   6 C    3.960 --    58 C    1.003    49 N    0.974    95 H    0.971
                            94 H    0.966
    58   6 C    3.988 --    57 C    1.003    98 H    0.981    96 H    0.980
                            97 H    0.980
    59   6 C    3.958 --    60 C    1.006    46 N    0.972    99 H    0.967
                           100 H    0.962
    60   6 C    3.989 --    59 C    1.006   102 H    0.987   101 H    0.984
                           103 H    0.982
    61   6 C    3.942 --    62 C    1.495    42 C    1.283   104 H    0.944
    62   6 C    3.955 --    61 C    1.495    72 C    1.147    63 C    1.048
    63   6 C    3.917 --    64 O    1.729    62 C    1.048    65 C    1.010
    64   8 O    2.023 --    63 C    1.729
    65   6 C    3.977 --    66 C    1.427    71 C    1.294    63 C    1.010
    66   6 C    3.978 --    65 C    1.427    67 C    1.388   105 H    0.962
    67   6 C    3.923 --    69 C    1.404    66 C    1.388    68 Br   0.994
    68  35 Br   1.127 --    67 C    0.994
    69   6 C    3.976 --    70 C    1.432    67 C    1.404   106 H    0.965
    70   6 C    3.975 --    69 C    1.432    71 C    1.398   107 H    0.959
    71   6 C    3.982 --    70 C    1.398    65 C    1.294    72 C    1.084
    72   6 C    3.969 --    73 C    1.476    62 C    1.147    71 C    1.084
    73   6 C    3.945 --    72 C    1.476    76 C    1.100    74 C    1.100
    74   6 C    3.944 --    75 N    2.755    73 C    1.100
    75   7 N    2.956 --    74 C    2.755
    76   6 C    3.943 --    77 N    2.758    73 C    1.100
    77   7 N    2.961 --    76 C    2.758
    78   1 H    0.993 --     1 C    0.941
    79   1 H    0.994 --     6 C    0.962
    80   1 H    0.992 --     8 C    0.960
    81   1 H    0.992 --    13 C    0.960
    82   1 H    0.994 --    15 C    0.956
    83   1 H    0.997 --    40 C    0.968
    84   1 H    0.991 --    40 C    0.934
    85   1 H    0.998 --    41 C    0.987
    86   1 H    0.996 --    41 C    0.984
    87   1 H    0.997 --    41 C    0.978
    88   1 H    0.989 --    54 C    0.935
    89   1 H    0.994 --    55 C    0.966
    90   1 H    0.993 --    55 C    0.959
    91   1 H    0.998 --    56 C    0.983
    92   1 H    0.996 --    56 C    0.983
    93   1 H    0.997 --    56 C    0.986
    94   1 H    0.995 --    57 C    0.966
    95   1 H    0.995 --    57 C    0.971
    96   1 H    0.997 --    58 C    0.980
    97   1 H    0.996 --    58 C    0.980
    98   1 H    0.996 --    58 C    0.981
    99   1 H    0.994 --    59 C    0.967
   100   1 H    0.992 --    59 C    0.962
   101   1 H    0.997 --    60 C    0.984
   102   1 H    0.998 --    60 C    0.987
   103   1 H    0.996 --    60 C    0.982
   104   1 H    0.992 --    61 C    0.944
   105   1 H    0.993 --    66 C    0.962
   106   1 H    0.994 --    69 C    0.965
   107   1 H    0.994 --    70 C    0.959
 ---------------------------------------------------------------------------

Topologies differ in bond orders
Writing corrected topology to xtbtopo.mol

molecular dipole:
                 x           y           z       tot (Debye)
 q only:        1.537      -1.391      -0.953
   full:        2.180      -1.596      -0.621       7.048
molecular quadrupole (traceless):
                xx          xy          yy          xz          yz          zz
 q only:       39.928      89.242       9.428      80.200    -103.373     -49.355
  q+dip:       33.128     101.488       9.405      86.219    -100.129     -42.533
   full:       33.889     112.501      12.630      87.205    -104.007     -46.519


           -------------------------------------------------
          | TOTAL ENERGY             -203.754047982190 Eh   |
          | GRADIENT NORM               0.023382784481 Eh/α |
          | HOMO-LUMO GAP               0.965032943869 eV   |
           -------------------------------------------------

------------------------------------------------------------------------
 * finished run on 2022/02/01 at 22:24:55.563     
------------------------------------------------------------------------
 total:
 * wall-time:     0 d,  0 h,  0 min,  0.328 sec
 *  cpu-time:     0 d,  0 h,  0 min,  2.535 sec
 * ratio c/w:     7.722 speedup
 SCF:
 * wall-time:     0 d,  0 h,  0 min,  0.267 sec
 *  cpu-time:     0 d,  0 h,  0 min,  2.124 sec
 * ratio c/w:     7.956 speedup

