      -----------------------------------------------------------      
     |                   =====================                   |     
     |                           x T B                           |     
     |                   =====================                   |     
     |                         S. Grimme                         |     
     |          Mulliken Center for Theoretical Chemistry        |     
     |                    University of Bonn                     |     
      -----------------------------------------------------------      

   * xtb version 6.4.1 (unknown) compiled by 'oda6@login1.crc.pitt.edu' on 2021-06-25

   xtb is free software: you can redistribute it and/or modify it under
   the terms of the GNU Lesser General Public License as published by
   the Free Software Foundation, either version 3 of the License, or
   (at your option) any later version.
   
   xtb is distributed in the hope that it will be useful,
   but WITHOUT ANY WARRANTY; without even the implied warranty of
   MERCHANTABILITY or FITNESS FOR A PARTICULAR PURPOSE.  See the
   GNU Lesser General Public License for more details.
   
   Cite this work as:
   * C. Bannwarth, E. Caldeweyher, S. Ehlert, A. Hansen, P. Pracht,
     J. Seibert, S. Spicher, S. Grimme, WIREs Comput. Mol. Sci., 2020, 11,
     e01493. DOI: 10.1002/wcms.1493
   
   for GFN2-xTB:
   * C. Bannwarth, S. Ehlert and S. Grimme., J. Chem. Theory Comput., 2019,
     15, 1652-1671. DOI: 10.1021/acs.jctc.8b01176
   for GFN1-xTB:
   * S. Grimme, C. Bannwarth, P. Shushkov, J. Chem. Theory Comput., 2017,
     13, 1989-2009. DOI: 10.1021/acs.jctc.7b00118
   for GFN0-xTB:
   * P. Pracht, E. Caldeweyher, S. Ehlert, S. Grimme, ChemRxiv, 2019, preprint.
     DOI: 10.26434/chemrxiv.8326202.v1
   for GFN-FF:
   * S. Spicher and S. Grimme, Angew. Chem. Int. Ed., 2020, 59, 15665-15673.
     DOI: 10.1002/anie.202004239
   
   for DFT-D4:
   * E. Caldeweyher, C. Bannwarth and S. Grimme, J. Chem. Phys., 2017,
     147, 034112. DOI: 10.1063/1.4993215
   * E. Caldeweyher, S. Ehlert, A. Hansen, H. Neugebauer, S. Spicher,
     C. Bannwarth and S. Grimme, J. Chem. Phys., 2019, 150, 154122.
     DOI: 10.1063/1.5090222
   * E. Caldeweyher, J.-M. Mewes, S. Ehlert and S. Grimme, Phys. Chem. Chem. Phys.
     2020, 22, 8499-8512. DOI: 10.1039/D0CP00502A
   
   for sTDA-xTB:
   * S. Grimme and C. Bannwarth, J. Chem. Phys., 2016, 145, 054103.
     DOI: 10.1063/1.4959605
   
   in the mass-spec context:
   * V. Asgeirsson, C. Bauer and S. Grimme, Chem. Sci., 2017, 8, 4879.
     DOI: 10.1039/c7sc00601b
   * J. Koopman and S. Grimme, ACS Omega 2019, 4, 12, 15120-15133.
     DOI: 10.1021/acsomega.9b02011
   
   for metadynamics refer to:
   * S. Grimme, J. Chem. Theory Comput., 2019, 155, 2847-2862
     DOI: 10.1021/acs.jctc.9b00143
   
   for SPH calculations refer to:
   * S. Spicher and S. Grimme, J. Chem. Theory Comput., 2021, 17, 1701-1714
     DOI: 10.1021/acs.jctc.0c01306
   
   with help from (in alphabetical order)
   P. Atkinson, C. Bannwarth, F. Bohle, G. Brandenburg, E. Caldeweyher
   M. Checinski, S. Dohm, S. Ehlert, S. Ehrlich, I. Gerasimov, J. Koopman
   C. Lavigne, S. Lehtola, F. März, M. Müller, F. Musil, H. Neugebauer
   J. Pisarek, C. Plett, P. Pracht, J. Seibert, P. Shushkov, S. Spicher
   M. Stahn, M. Steiner, T. Strunk, J. Stückrath, T. Rose, and J. Unsleber
   
 * started run on 2022/02/01 at 20:40:23.260     

           -------------------------------------------------
          |                Calculation Setup                |
           -------------------------------------------------

          program call               : /ihome/ghutchison/oda6/xtb/xtb-641/bin/xtb ../../GFN2_output/66_51_5.mol --sp --alpb hexane
          hostname                   : smp-n66
          coordinate file            : ../../GFN2_output/66_51_5.mol
          omp threads                :                     8
          number of atoms            :                   107
          number of electrons        :                   352
          charge                     :                     0
          spin                       :                   0.0
          first test random number   :      0.11798770727075

   ID    Z sym.   atoms
    1    6 C      1-3, 5-9, 11, 13-19, 21, 23-27, 29-32, 36, 37, 39-43, 45,
                  46, 48, 49, 51, 52, 54-60, 63-65, 68-70
    2    8 O      4, 61, 71
    3    9 F      10, 12
    4    7 N      20, 22, 33, 35, 47, 50, 62, 67
    5   16 S      28, 34, 38, 44, 53, 66
    6    1 H      72-107

           -------------------------------------------------
          |                 G F N 2 - x T B                 |
           -------------------------------------------------

        Reference                      10.1021/acs.jctc.8b01176
      * Hamiltonian:
        H0-scaling (s, p, d)           1.850000    2.230000    2.230000
        zeta-weighting                 0.500000
      * Dispersion:
        s8                             2.700000
        a1                             0.520000
        a2                             5.000000
        s9                             5.000000
      * Repulsion:
        kExp                           1.500000    1.000000
        rExp                           1.000000
      * Coulomb:
        alpha                          2.000000
        third order                    shell-resolved
        anisotropic                    true
        a3                             3.000000
        a5                             4.000000
        cn-shift                       1.200000
        cn-exp                         4.000000
        max-rad                        5.000000

      * Solvation model:               ALPB
        Solvent                        hexane
        Parameter file                 internal GFN2-xTB/ALPB
        Dielectric constant                1.8800E+00
        Reference state                gsolv [1 M gas/solution]
        Free energy shift                  4.8134E-03 Eh       3.0204E+00 kcal/mol
        Temperature                        2.9815E+02 K
        Density                            6.6000E-01 kg/L
        Solvent mass                       8.6180E+01 g/mol
        Interaction kernel             P16
        Born radius scaling (c1)           1.1040E+00
        Born radii integrator          GBOBC
        Born offset                        0.0000E+00 a0       0.0000E+00 AA
        H-bond correction              false
        Ion screening                  false
        Surface tension                    1.0000E-05 Eh       1.5569E+01 dyn/cm
        Grid points                               230 per atom

          ...................................................
          :                      SETUP                      :
          :.................................................:
          :  # basis functions                 356          :
          :  # atomic orbitals                 350          :
          :  # shells                          184          :
          :  # electrons                       352          :
          :  max. iterations                   250          :
          :  Hamiltonian                  GFN2-xTB          :
          :  restarted?                      false          :
          :  GBSA solvation                   true          :
          :  PC potential                    false          :
          :  electronic temp.          300.0000000     K    :
          :  accuracy                    1.0000000          :
          :  -> integral cutoff          0.2500000E+02      :
          :  -> integral neglect         0.1000000E-07      :
          :  -> SCF convergence          0.1000000E-05 Eh   :
          :  -> wf. convergence          0.1000000E-03 e    :
          :  Broyden damping             0.4000000          :
          ...................................................

 iter      E             dE          RMSdq      gap      omega  full diag
   1   -196.8175182 -0.196818E+03  0.447E+00    1.26       0.0  T
   2   -197.0938428 -0.276325E+00  0.258E+00    0.90       1.0  T
   3   -197.0875631  0.627970E-02  0.136E+00    0.95       1.0  T
   4   -197.1353756 -0.478125E-01  0.558E-01    0.77       1.0  T
   5   -197.1562081 -0.208325E-01  0.177E-01    0.75       1.0  T
   6   -197.1577995 -0.159136E-02  0.879E-02    0.82       1.0  T
   7   -197.1580832 -0.283693E-03  0.315E-02    0.84       1.0  T
   8   -197.1581184 -0.352012E-04  0.150E-02    0.85       1.0  T
   9   -197.1581261 -0.776011E-05  0.736E-03    0.84       1.3  T
  10   -197.1581275 -0.133594E-05  0.340E-03    0.84       2.8  T
  11   -197.1581278 -0.344465E-06  0.164E-03    0.84       5.9  T
  12   -197.1581279 -0.495278E-07  0.794E-04    0.84      12.2  T
  13   -197.1581279 -0.191147E-07  0.344E-04    0.84      28.1  T

   *** convergence criteria satisfied after 13 iterations ***

         #    Occupation            Energy/Eh            Energy/eV
      -------------------------------------------------------------
         1        2.0000           -0.8472020             -23.0535
       ...           ...                  ...                  ...
       170        2.0000           -0.4086092             -11.1188
       171        2.0000           -0.4014831             -10.9249
       172        2.0000           -0.3945045             -10.7350
       173        2.0000           -0.3914397             -10.6516
       174        2.0000           -0.3825835             -10.4106
       175        2.0000           -0.3771952             -10.2640
       176        2.0000           -0.3697273             -10.0608 (HOMO)
       177        0.0000           -0.3387529              -9.2179 (LUMO)
       178                         -0.3289985              -8.9525
       179                         -0.3208943              -8.7320
       180                         -0.3050400              -8.3006
       181                         -0.2976797              -8.1003
       ...                                ...                  ...
       350                          1.1528648              31.3710
      -------------------------------------------------------------
                  HL-Gap            0.0309744 Eh            0.8429 eV
             Fermi-level           -0.3542400 Eh           -9.6394 eV

 SCC (total)                   0 d,  0 h,  0 min,  0.234 sec
 SCC setup                      ...        0 min,  0.002 sec (  0.977%)
 Dispersion                     ...        0 min,  0.004 sec (  1.572%)
 classical contributions        ...        0 min,  0.000 sec (  0.052%)
 integral evaluation            ...        0 min,  0.012 sec (  5.130%)
 iterations                     ...        0 min,  0.182 sec ( 77.693%)
 molecular gradient             ...        0 min,  0.033 sec ( 14.174%)
 printout                       ...        0 min,  0.001 sec (  0.369%)

         :::::::::::::::::::::::::::::::::::::::::::::::::::::
         ::                     SUMMARY                     ::
         :::::::::::::::::::::::::::::::::::::::::::::::::::::
         :: total energy            -194.426289740018 Eh    ::
         :: total w/o Gsasa/hb      -194.365636172792 Eh    ::
         :: gradient norm              0.027461071658 Eh/a0 ::
         :: HOMO-LUMO gap              0.842856333957 eV    ::
         ::.................................................::
         :: SCC energy              -197.158127874347 Eh    ::
         :: -> isotropic ES            0.198614525449 Eh    ::
         :: -> anisotropic ES          0.004537789849 Eh    ::
         :: -> anisotropic XC          0.085515317067 Eh    ::
         :: -> dispersion             -0.171303585673 Eh    ::
         :: -> Gsolv                  -0.090032482232 Eh    ::
         ::    -> Gelec               -0.029378915006 Eh    ::
         ::    -> Gsasa               -0.065466923046 Eh    ::
         ::    -> Ghb                  0.000000000000 Eh    ::
         ::    -> Gshift               0.004813355820 Eh    ::
         :: repulsion energy           2.731729830907 Eh    ::
         :: add. restraining           0.000000000000 Eh    ::
         :: total charge               0.000000000059 e     ::
         :::::::::::::::::::::::::::::::::::::::::::::::::::::

           -------------------------------------------------
          |                Property Printout                |
           -------------------------------------------------

    * Orbital Energies and Occupations

         #    Occupation            Energy/Eh            Energy/eV
      -------------------------------------------------------------
         1        2.0000           -0.8472020             -23.0535
       ...           ...                  ...                  ...
       164        2.0000           -0.4245314             -11.5521
       165        2.0000           -0.4224275             -11.4948
       166        2.0000           -0.4207661             -11.4496
       167        2.0000           -0.4187933             -11.3959
       168        2.0000           -0.4166247             -11.3369
       169        2.0000           -0.4114609             -11.1964
       170        2.0000           -0.4086092             -11.1188
       171        2.0000           -0.4014831             -10.9249
       172        2.0000           -0.3945045             -10.7350
       173        2.0000           -0.3914397             -10.6516
       174        2.0000           -0.3825835             -10.4106
       175        2.0000           -0.3771952             -10.2640
       176        2.0000           -0.3697273             -10.0608 (HOMO)
       177        0.0000           -0.3387529              -9.2179 (LUMO)
       178                         -0.3289985              -8.9525
       179                         -0.3208943              -8.7320
       180                         -0.3050400              -8.3006
       181                         -0.2976797              -8.1003
       182                         -0.2798908              -7.6162
       183                         -0.2683590              -7.3024
       184                         -0.2557578              -6.9595
       185                         -0.2508868              -6.8270
       186                         -0.2485705              -6.7639
       187                         -0.2482830              -6.7561
       ...                                ...                  ...
       350                          1.1528648              31.3710
      -------------------------------------------------------------
                  HL-Gap            0.0309744 Eh            0.8429 eV
             Fermi-level           -0.3542400 Eh           -9.6394 eV

     #   Z          covCN         q      C6AA      α(0)
     1   6 C        2.927    -0.007    28.198     8.708
     2   6 C        3.009    -0.035    28.850     8.811
     3   6 C        2.868     0.234    23.118     7.882
     4   8 O        0.856    -0.411    21.895     6.274
     5   6 C        3.034    -0.016    28.372     8.737
     6   6 C        2.913    -0.015    28.393     8.738
     7   6 C        2.989     0.019    27.572     8.613
     8   6 C        2.919    -0.051    29.269     8.872
     9   6 C        2.775     0.166    24.412     8.092
    10   9 F        0.787    -0.214    11.376     3.984
    11   6 C        2.775     0.166    24.398     8.090
    12   9 F        0.787    -0.213    11.370     3.983
    13   6 C        2.920    -0.052    29.282     8.874
    14   6 C        2.988     0.021    27.539     8.608
    15   6 C        2.915    -0.028    28.708     8.786
    16   6 C        3.028     0.011    27.752     8.641
    17   6 C        3.016     0.040    27.078     8.536
    18   6 C        2.948     0.007    27.865     8.658
    19   6 C        1.937     0.133    27.830     8.519
    20   7 N        0.911    -0.277    27.149     7.536
    21   6 C        1.932     0.131    27.890     8.529
    22   7 N        0.911    -0.269    26.971     7.511
    23   6 C        2.996     0.021    27.519     8.605
    24   6 C        3.101     0.014    27.567     8.604
    25   6 C        3.804    -0.056    21.572     6.612
    26   6 C        3.754    -0.102    22.511     6.765
    27   6 C        3.197     0.011    27.227     8.506
    28  16 S        2.175    -0.010   141.470    20.019
    29   6 C        3.100     0.006    27.754     8.633
    30   6 C        3.088    -0.036    28.780     8.794
    31   6 C        3.344     0.070    23.945     7.729
    32   6 C        3.343     0.070    23.958     7.732
    33   7 N        1.855    -0.295    28.505     7.913
    34  16 S        2.690     0.355   127.421    18.999
    35   7 N        1.854    -0.296    28.513     7.914
    36   6 C        3.089    -0.035    28.772     8.792
    37   6 C        3.100     0.004    27.810     8.642
    38  16 S        2.183    -0.015   141.666    20.032
    39   6 C        3.192     0.012    27.245     8.512
    40   6 C        3.089     0.022    27.417     8.583
    41   6 C        3.804    -0.049    21.441     6.592
    42   6 C        3.753    -0.109    22.644     6.786
    43   6 C        2.996     0.024    27.460     8.596
    44  16 S        2.284    -0.038   142.611    20.099
    45   6 C        3.120     0.010    27.627     8.608
    46   6 C        3.248     0.027    26.394     8.319
    47   7 N        2.800    -0.026    21.739     6.925
    48   6 C        3.068     0.033    27.190     8.550
    49   6 C        3.067     0.035    27.143     8.543
    50   7 N        2.799    -0.027    21.774     6.930
    51   6 C        3.247     0.030    26.362     8.316
    52   6 C        3.117     0.014    27.544     8.596
    53  16 S        2.252    -0.063   143.690    20.175
    54   6 C        3.744    -0.006    20.760     6.500
    55   6 C        3.752    -0.114    22.749     6.802
    56   6 C        3.743    -0.009    20.808     6.507
    57   6 C        3.752    -0.115    22.759     6.803
    58   6 C        2.973     0.005    27.900     8.664
    59   6 C        2.953    -0.072    29.789     8.952
    60   6 C        2.772     0.277    22.318     7.737
    61   8 O        0.859    -0.455    22.811     6.404
    62   7 N        2.805    -0.073    22.652     7.069
    63   6 C        3.759     0.007    20.508     6.456
    64   6 C        3.752    -0.108    22.622     6.783
    65   6 C        2.835     0.195    23.840     8.001
    66  16 S        1.114    -0.403   156.875    21.180
    67   7 N        2.805    -0.070    22.589     7.059
    68   6 C        3.759     0.007    20.512     6.457
    69   6 C        3.752    -0.108    22.630     6.784
    70   6 C        2.786     0.275    22.350     7.744
    71   8 O        0.859    -0.454    22.781     6.399
    72   1 H        0.925     0.086     1.915     2.164
    73   1 H        0.926     0.075     2.036     2.232
    74   1 H        0.926     0.088     1.896     2.153
    75   1 H        0.926     0.089     1.886     2.148
    76   1 H        0.926     0.069     2.099     2.266
    77   1 H        0.924     0.056     2.249     2.345
    78   1 H        0.924     0.061     2.190     2.314
    79   1 H        0.925     0.052     2.297     2.370
    80   1 H        0.925     0.051     2.306     2.374
    81   1 H        0.925     0.042     2.425     2.435
    82   1 H        0.924     0.081     1.970     2.195
    83   1 H        0.924     0.041     2.437     2.441
    84   1 H        0.925     0.049     2.338     2.391
    85   1 H        0.925     0.057     2.228     2.334
    86   1 H        0.925     0.043     2.412     2.429
    87   1 H        0.925     0.072     2.063     2.246
    88   1 H        0.924     0.073     2.058     2.243
    89   1 H        0.925     0.058     2.223     2.332
    90   1 H        0.925     0.051     2.302     2.373
    91   1 H        0.925     0.051     2.304     2.374
    92   1 H        0.924     0.078     2.000     2.212
    93   1 H        0.924     0.072     2.065     2.247
    94   1 H        0.925     0.052     2.300     2.372
    95   1 H        0.925     0.057     2.233     2.337
    96   1 H        0.925     0.050     2.317     2.380
    97   1 H        0.925     0.093     1.852     2.128
    98   1 H        0.924     0.077     2.010     2.217
    99   1 H        0.924     0.076     2.021     2.223
   100   1 H        0.925     0.050     2.324     2.384
   101   1 H        0.925     0.053     2.283     2.363
   102   1 H        0.925     0.059     2.214     2.327
   103   1 H        0.924     0.079     1.989     2.205
   104   1 H        0.924     0.075     2.027     2.226
   105   1 H        0.925     0.049     2.329     2.386
   106   1 H        0.925     0.054     2.265     2.353
   107   1 H        0.925     0.059     2.212     2.326

 Mol. C6AA /au·bohr⁶  :     200809.203544
 Mol. C8AA /au·bohr⁸  :    5651578.557532
 Mol. α(0) /au        :        708.553374


Wiberg/Mayer (AO) data.
largest (>0.10) Wiberg bond orders for each atom

 ---------------------------------------------------------------------------
     #   Z sym  total        # sym  WBO       # sym  WBO       # sym  WBO
 ---------------------------------------------------------------------------
     1   6 C    3.941 --     2 C    1.520    23 C    1.268    72 H    0.938
     2   6 C    3.953 --     1 C    1.520    17 C    1.147     3 C    1.029
     3   6 C    3.914 --     4 O    1.744     2 C    1.029     5 C    1.018
     4   8 O    2.013 --     3 C    1.744
     5   6 C    3.975 --     6 C    1.524    16 C    1.201     3 C    1.018
     6   6 C    3.976 --     5 C    1.524     7 C    1.269    73 H    0.961
     7   6 C    3.980 --     8 C    1.288     6 C    1.269    14 C    1.242
     8   6 C    3.975 --     9 C    1.495     7 C    1.288    74 H    0.960
                            13 C    0.108
     9   6 C    3.875 --     8 C    1.495    11 C    1.248    10 F    0.969
    10   9 F    1.100 --     9 C    0.969
    11   6 C    3.878 --    13 C    1.497     9 C    1.248    12 F    0.969
    12   9 F    1.101 --    11 C    0.969
    13   6 C    3.973 --    11 C    1.497    14 C    1.285    75 H    0.960
                             8 C    0.108
    14   6 C    3.984 --    13 C    1.285    15 C    1.274     7 C    1.242
    15   6 C    3.969 --    16 C    1.506    14 C    1.274    76 H    0.958
    16   6 C    3.980 --    15 C    1.506     5 C    1.201    17 C    1.080
    17   6 C    3.968 --    18 C    1.465     2 C    1.147    16 C    1.080
    18   6 C    3.957 --    17 C    1.465    21 C    1.107    19 C    1.101
    19   6 C    3.944 --    20 N    2.752    18 C    1.101
    20   7 N    2.971 --    19 C    2.752
    21   6 C    3.943 --    22 N    2.752    18 C    1.107
    22   7 N    2.960 --    21 C    2.752
    23   6 C    3.922 --    24 C    1.383     1 C    1.268    53 S    1.062
    24   6 C    3.964 --    23 C    1.383    27 C    1.320    25 C    1.019
    25   6 C    3.991 --    24 C    1.019    26 C    0.990    78 H    0.969
                            77 H    0.962
    26   6 C    3.987 --    25 C    0.990    79 H    0.987    81 H    0.987
                            80 H    0.984
    27   6 C    3.929 --    24 C    1.320    52 C    1.313    28 S    1.090
    28  16 S    2.523 --    29 C    1.120    27 C    1.090
    29   6 C    3.918 --    51 C    1.290    30 C    1.280    28 S    1.120
    30   6 C    3.955 --    29 C    1.280    49 C    1.266    31 C    1.171
    31   6 C    3.972 --    35 N    1.422    32 C    1.171    30 C    1.171
                            34 S    0.102
    32   6 C    3.972 --    33 N    1.421    36 C    1.172    31 C    1.171
                            34 S    0.102
    33   7 N    3.062 --    32 C    1.421    34 S    1.391    35 N    0.145
    34  16 S    3.108 --    33 N    1.391    35 N    1.390    31 C    0.102
                            32 C    0.102
    35   7 N    3.062 --    31 C    1.422    34 S    1.390    33 N    0.145
    36   6 C    3.954 --    37 C    1.276    48 C    1.268    32 C    1.172
    37   6 C    3.921 --    46 C    1.300    36 C    1.276    38 S    1.115
    38  16 S    2.530 --    37 C    1.115    39 C    1.092
    39   6 C    3.930 --    45 C    1.322    40 C    1.306    38 S    1.092
    40   6 C    3.969 --    43 C    1.398    39 C    1.306    41 C    1.024
    41   6 C    3.992 --    40 C    1.024    42 C    1.003    83 H    0.969
                            82 H    0.935
    42   6 C    3.991 --    41 C    1.003    86 H    0.987    84 H    0.984
                            85 H    0.978
    43   6 C    3.927 --    40 C    1.398    58 C    1.269    44 S    1.057
    44  16 S    2.544 --    45 C    1.134    43 C    1.057
    45   6 C    3.937 --    39 C    1.322    46 C    1.250    44 S    1.134
    46   6 C    3.938 --    37 C    1.300    45 C    1.250    47 N    1.162
    47   7 N    3.561 --    48 C    1.171    46 C    1.162    56 C    0.979
    48   6 C    3.929 --    36 C    1.268    49 C    1.224    47 N    1.171
    49   6 C    3.926 --    30 C    1.266    48 C    1.224    50 N    1.171
    50   7 N    3.560 --    49 C    1.171    51 C    1.160    54 C    0.978
    51   6 C    3.939 --    29 C    1.290    52 C    1.262    50 N    1.160
    52   6 C    3.934 --    27 C    1.313    51 C    1.262    53 S    1.122
    53  16 S    2.543 --    52 C    1.122    23 C    1.062
    54   6 C    3.958 --    55 C    1.007    50 N    0.978    88 H    0.962
                            87 H    0.953
    55   6 C    3.988 --    54 C    1.007    91 H    0.986    90 H    0.983
                            89 H    0.982
    56   6 C    3.957 --    57 C    1.007    47 N    0.979    92 H    0.961
                            93 H    0.953
    57   6 C    3.988 --    56 C    1.007    94 H    0.986    96 H    0.983
                            95 H    0.982
    58   6 C    3.930 --    59 C    1.521    43 C    1.269    97 H    0.945
    59   6 C    3.954 --    58 C    1.521    60 C    1.074    70 C    1.058
    60   6 C    3.946 --    61 O    1.644    62 N    1.105    59 C    1.074
    61   8 O    1.990 --    60 C    1.644    62 N    0.128
    62   7 N    3.589 --    65 C    1.197    60 C    1.105    63 C    0.959
                            61 O    0.128
    63   6 C    3.944 --    64 C    1.009    99 H    0.966    98 H    0.962
                            62 N    0.959
    64   6 C    3.990 --    63 C    1.009   100 H    0.986   101 H    0.985
                           102 H    0.982
    65   6 C    3.957 --    66 S    1.470    62 N    1.197    67 N    1.195
    66  16 S    1.819 --    65 C    1.470
    67   7 N    3.590 --    65 C    1.195    70 C    1.114    68 C    0.958
                            71 O    0.129
    68   6 C    3.943 --    69 C    1.009   103 H    0.964   104 H    0.964
                            67 N    0.958
    69   6 C    3.990 --    68 C    1.009   105 H    0.986   106 H    0.985
                           107 H    0.982
    70   6 C    3.940 --    71 O    1.653    67 N    1.114    59 C    1.058
    71   8 O    1.985 --    70 C    1.653    67 N    0.129
    72   1 H    0.990 --     1 C    0.938
    73   1 H    0.993 --     6 C    0.961
    74   1 H    0.992 --     8 C    0.960
    75   1 H    0.992 --    13 C    0.960
    76   1 H    0.994 --    15 C    0.958
    77   1 H    0.996 --    25 C    0.962
    78   1 H    0.995 --    25 C    0.969
    79   1 H    0.997 --    26 C    0.987
    80   1 H    0.996 --    26 C    0.984
    81   1 H    0.998 --    26 C    0.987
    82   1 H    0.991 --    41 C    0.935
    83   1 H    0.998 --    41 C    0.969
    84   1 H    0.996 --    42 C    0.984
    85   1 H    0.997 --    42 C    0.978
    86   1 H    0.998 --    42 C    0.987
    87   1 H    0.992 --    54 C    0.953
    88   1 H    0.994 --    54 C    0.962
    89   1 H    0.995 --    55 C    0.982
    90   1 H    0.997 --    55 C    0.983
    91   1 H    0.997 --    55 C    0.986
    92   1 H    0.993 --    56 C    0.961
    93   1 H    0.992 --    56 C    0.953
    94   1 H    0.997 --    57 C    0.986
    95   1 H    0.996 --    57 C    0.982
    96   1 H    0.997 --    57 C    0.983
    97   1 H    0.989 --    58 C    0.945
    98   1 H    0.993 --    63 C    0.962
    99   1 H    0.994 --    63 C    0.966
   100   1 H    0.998 --    64 C    0.986
   101   1 H    0.997 --    64 C    0.985
   102   1 H    0.996 --    64 C    0.982
   103   1 H    0.993 --    68 C    0.964
   104   1 H    0.994 --    68 C    0.964
   105   1 H    0.998 --    69 C    0.986
   106   1 H    0.997 --    69 C    0.985
   107   1 H    0.996 --    69 C    0.982
 ---------------------------------------------------------------------------

Topologies differ in bond orders
Writing corrected topology to xtbtopo.mol

molecular dipole:
                 x           y           z       tot (Debye)
 q only:        0.440       1.066       1.134
   full:        0.273       0.559       1.507       4.144
molecular quadrupole (traceless):
                xx          xy          yy          xz          yz          zz
 q only:      -66.559     -20.386      35.703      58.786      -2.487      30.857
  q+dip:      -61.904     -19.040      23.227      50.823      -5.289      38.677
   full:      -57.115     -23.707      19.050      57.554      -8.945      38.064


           -------------------------------------------------
          | TOTAL ENERGY             -194.426289740018 Eh   |
          | GRADIENT NORM               0.027461071658 Eh/α |
          | HOMO-LUMO GAP               0.842856333957 eV   |
           -------------------------------------------------

------------------------------------------------------------------------
 * finished run on 2022/02/01 at 20:40:23.561     
------------------------------------------------------------------------
 total:
 * wall-time:     0 d,  0 h,  0 min,  0.300 sec
 *  cpu-time:     0 d,  0 h,  0 min,  2.301 sec
 * ratio c/w:     7.663 speedup
 SCF:
 * wall-time:     0 d,  0 h,  0 min,  0.236 sec
 *  cpu-time:     0 d,  0 h,  0 min,  1.876 sec
 * ratio c/w:     7.943 speedup

