      -----------------------------------------------------------      
     |                   =====================                   |     
     |                           x T B                           |     
     |                   =====================                   |     
     |                         S. Grimme                         |     
     |          Mulliken Center for Theoretical Chemistry        |     
     |                    University of Bonn                     |     
      -----------------------------------------------------------      

   * xtb version 6.4.1 (unknown) compiled by 'oda6@login1.crc.pitt.edu' on 2021-06-25

   xtb is free software: you can redistribute it and/or modify it under
   the terms of the GNU Lesser General Public License as published by
   the Free Software Foundation, either version 3 of the License, or
   (at your option) any later version.
   
   xtb is distributed in the hope that it will be useful,
   but WITHOUT ANY WARRANTY; without even the implied warranty of
   MERCHANTABILITY or FITNESS FOR A PARTICULAR PURPOSE.  See the
   GNU Lesser General Public License for more details.
   
   Cite this work as:
   * C. Bannwarth, E. Caldeweyher, S. Ehlert, A. Hansen, P. Pracht,
     J. Seibert, S. Spicher, S. Grimme, WIREs Comput. Mol. Sci., 2020, 11,
     e01493. DOI: 10.1002/wcms.1493
   
   for GFN2-xTB:
   * C. Bannwarth, S. Ehlert and S. Grimme., J. Chem. Theory Comput., 2019,
     15, 1652-1671. DOI: 10.1021/acs.jctc.8b01176
   for GFN1-xTB:
   * S. Grimme, C. Bannwarth, P. Shushkov, J. Chem. Theory Comput., 2017,
     13, 1989-2009. DOI: 10.1021/acs.jctc.7b00118
   for GFN0-xTB:
   * P. Pracht, E. Caldeweyher, S. Ehlert, S. Grimme, ChemRxiv, 2019, preprint.
     DOI: 10.26434/chemrxiv.8326202.v1
   for GFN-FF:
   * S. Spicher and S. Grimme, Angew. Chem. Int. Ed., 2020, 59, 15665-15673.
     DOI: 10.1002/anie.202004239
   
   for DFT-D4:
   * E. Caldeweyher, C. Bannwarth and S. Grimme, J. Chem. Phys., 2017,
     147, 034112. DOI: 10.1063/1.4993215
   * E. Caldeweyher, S. Ehlert, A. Hansen, H. Neugebauer, S. Spicher,
     C. Bannwarth and S. Grimme, J. Chem. Phys., 2019, 150, 154122.
     DOI: 10.1063/1.5090222
   * E. Caldeweyher, J.-M. Mewes, S. Ehlert and S. Grimme, Phys. Chem. Chem. Phys.
     2020, 22, 8499-8512. DOI: 10.1039/D0CP00502A
   
   for sTDA-xTB:
   * S. Grimme and C. Bannwarth, J. Chem. Phys., 2016, 145, 054103.
     DOI: 10.1063/1.4959605
   
   in the mass-spec context:
   * V. Asgeirsson, C. Bauer and S. Grimme, Chem. Sci., 2017, 8, 4879.
     DOI: 10.1039/c7sc00601b
   * J. Koopman and S. Grimme, ACS Omega 2019, 4, 12, 15120-15133.
     DOI: 10.1021/acsomega.9b02011
   
   for metadynamics refer to:
   * S. Grimme, J. Chem. Theory Comput., 2019, 155, 2847-2862
     DOI: 10.1021/acs.jctc.9b00143
   
   for SPH calculations refer to:
   * S. Spicher and S. Grimme, J. Chem. Theory Comput., 2021, 17, 1701-1714
     DOI: 10.1021/acs.jctc.0c01306
   
   with help from (in alphabetical order)
   P. Atkinson, C. Bannwarth, F. Bohle, G. Brandenburg, E. Caldeweyher
   M. Checinski, S. Dohm, S. Ehlert, S. Ehrlich, I. Gerasimov, J. Koopman
   C. Lavigne, S. Lehtola, F. März, M. Müller, F. Musil, H. Neugebauer
   J. Pisarek, C. Plett, P. Pracht, J. Seibert, P. Shushkov, S. Spicher
   M. Stahn, M. Steiner, T. Strunk, J. Stückrath, T. Rose, and J. Unsleber
   
 * started run on 2022/01/26 at 18:10:03.389     

           -------------------------------------------------
          |                Calculation Setup                |
           -------------------------------------------------

          program call               : /ihome/ghutchison/oda6/xtb/xtb-641/bin/xtb ../../GFN2_output/7_9_46.mol --sp --alpb hexane
          hostname                   : smp-n37
          coordinate file            : ../../GFN2_output/7_9_46.mol
          omp threads                :                     8
          number of atoms            :                    96
          number of electrons        :                   282
          charge                     :                     0
          spin                       :                   0.0
          first test random number   :      0.53738394504303

   ID    Z sym.   atoms
    1    6 C      1, 2, 4, 7-9, 11-21, 23-34, 36-43, 45-54, 56
    2   16 S      3, 5, 22, 35
    3    7 N      6, 55, 57
    4    8 O      10, 44
    5    1 H      58-96

           -------------------------------------------------
          |                 G F N 2 - x T B                 |
           -------------------------------------------------

        Reference                      10.1021/acs.jctc.8b01176
      * Hamiltonian:
        H0-scaling (s, p, d)           1.850000    2.230000    2.230000
        zeta-weighting                 0.500000
      * Dispersion:
        s8                             2.700000
        a1                             0.520000
        a2                             5.000000
        s9                             5.000000
      * Repulsion:
        kExp                           1.500000    1.000000
        rExp                           1.000000
      * Coulomb:
        alpha                          2.000000
        third order                    shell-resolved
        anisotropic                    true
        a3                             3.000000
        a5                             4.000000
        cn-shift                       1.200000
        cn-exp                         4.000000
        max-rad                        5.000000

      * Solvation model:               ALPB
        Solvent                        hexane
        Parameter file                 internal GFN2-xTB/ALPB
        Dielectric constant                1.8800E+00
        Reference state                gsolv [1 M gas/solution]
        Free energy shift                  4.8134E-03 Eh       3.0204E+00 kcal/mol
        Temperature                        2.9815E+02 K
        Density                            6.6000E-01 kg/L
        Solvent mass                       8.6180E+01 g/mol
        Interaction kernel             P16
        Born radius scaling (c1)           1.1040E+00
        Born radii integrator          GBOBC
        Born offset                        0.0000E+00 a0       0.0000E+00 AA
        H-bond correction              false
        Ion screening                  false
        Surface tension                    1.0000E-05 Eh       1.5569E+01 dyn/cm
        Grid points                               230 per atom

          ...................................................
          :                      SETUP                      :
          :.................................................:
          :  # basis functions                 291          :
          :  # atomic orbitals                 287          :
          :  # shells                          157          :
          :  # electrons                       282          :
          :  max. iterations                   250          :
          :  Hamiltonian                  GFN2-xTB          :
          :  restarted?                      false          :
          :  GBSA solvation                   true          :
          :  PC potential                    false          :
          :  electronic temp.          300.0000000     K    :
          :  accuracy                    1.0000000          :
          :  -> integral cutoff          0.2500000E+02      :
          :  -> integral neglect         0.1000000E-07      :
          :  -> SCF convergence          0.1000000E-05 Eh   :
          :  -> wf. convergence          0.1000000E-03 e    :
          :  Broyden damping             0.4000000          :
          ...................................................

 iter      E             dE          RMSdq      gap      omega  full diag
   1   -154.8826921 -0.154883E+03  0.473E+00    1.33       0.0  T
   2   -155.0349093 -0.152217E+00  0.270E+00    1.09       1.0  T
   3   -154.9875400  0.473692E-01  0.141E+00    1.08       1.0  T
   4   -155.0606615 -0.731215E-01  0.500E-01    1.16       1.0  T
   5   -155.0741902 -0.135287E-01  0.151E-01    1.11       1.0  T
   6   -155.0748135 -0.623254E-03  0.896E-02    1.15       1.0  T
   7   -155.0750746 -0.261119E-03  0.252E-02    1.15       1.0  T
   8   -155.0750923 -0.177158E-04  0.130E-02    1.15       1.0  T
   9   -155.0750964 -0.408556E-05  0.705E-03    1.15       1.4  T
  10   -155.0750977 -0.132656E-05  0.326E-03    1.15       3.1  T
  11   -155.0750980 -0.278097E-06  0.152E-03    1.15       6.7  T
  12   -155.0750980 -0.165568E-07  0.908E-04    1.15      11.2  T
  13   -155.0750980 -0.216757E-07  0.383E-04    1.15      26.6  T

   *** convergence criteria satisfied after 13 iterations ***

         #    Occupation            Energy/Eh            Energy/eV
      -------------------------------------------------------------
         1        2.0000           -0.7560996             -20.5745
       ...           ...                  ...                  ...
       135        2.0000           -0.4076470             -11.0926
       136        2.0000           -0.4060646             -11.0496
       137        2.0000           -0.4014936             -10.9252
       138        2.0000           -0.3990721             -10.8593
       139        2.0000           -0.3829074             -10.4194
       140        2.0000           -0.3722278             -10.1288
       141        2.0000           -0.3701397             -10.0720 (HOMO)
       142                         -0.3278244              -8.9206 (LUMO)
       143                         -0.3210994              -8.7376
       144                         -0.3134837              -8.5303
       145                         -0.2863520              -7.7920
       146                         -0.2726504              -7.4192
       ...                                ...                  ...
       287                          1.1590220              31.5386
      -------------------------------------------------------------
                  HL-Gap            0.0423152 Eh            1.1515 eV
             Fermi-level           -0.3489324 Eh           -9.4949 eV

 SCC (total)                   0 d,  0 h,  0 min,  0.166 sec
 SCC setup                      ...        0 min,  0.004 sec (  2.538%)
 Dispersion                     ...        0 min,  0.004 sec (  2.128%)
 classical contributions        ...        0 min,  0.000 sec (  0.179%)
 integral evaluation            ...        0 min,  0.009 sec (  5.699%)
 iterations                     ...        0 min,  0.124 sec ( 74.420%)
 molecular gradient             ...        0 min,  0.024 sec ( 14.640%)
 printout                       ...        0 min,  0.001 sec (  0.352%)

         :::::::::::::::::::::::::::::::::::::::::::::::::::::
         ::                     SUMMARY                     ::
         :::::::::::::::::::::::::::::::::::::::::::::::::::::
         :: total energy            -152.636427686731 Eh    ::
         :: total w/o Gsasa/hb      -152.582588059515 Eh    ::
         :: gradient norm              0.021456911253 Eh/a0 ::
         :: HOMO-LUMO gap              1.151456531310 eV    ::
         ::.................................................::
         :: SCC energy              -155.075098035047 Eh    ::
         :: -> isotropic ES            0.108606127877 Eh    ::
         :: -> anisotropic ES          0.009001851900 Eh    ::
         :: -> anisotropic XC          0.090557398467 Eh    ::
         :: -> dispersion             -0.140344760344 Eh    ::
         :: -> Gsolv                  -0.070776091238 Eh    ::
         ::    -> Gelec               -0.016936464022 Eh    ::
         ::    -> Gsasa               -0.058652983035 Eh    ::
         ::    -> Ghb                  0.000000000000 Eh    ::
         ::    -> Gshift               0.004813355820 Eh    ::
         :: repulsion energy           2.439261660813 Eh    ::
         :: add. restraining           0.000000000000 Eh    ::
         :: total charge               0.000000000046 e     ::
         :::::::::::::::::::::::::::::::::::::::::::::::::::::

           -------------------------------------------------
          |                Property Printout                |
           -------------------------------------------------

    * Orbital Energies and Occupations

         #    Occupation            Energy/Eh            Energy/eV
      -------------------------------------------------------------
         1        2.0000           -0.7560996             -20.5745
       ...           ...                  ...                  ...
       129        2.0000           -0.4257387             -11.5849
       130        2.0000           -0.4220999             -11.4859
       131        2.0000           -0.4199306             -11.4269
       132        2.0000           -0.4169314             -11.3453
       133        2.0000           -0.4129365             -11.2366
       134        2.0000           -0.4122431             -11.2177
       135        2.0000           -0.4076470             -11.0926
       136        2.0000           -0.4060646             -11.0496
       137        2.0000           -0.4014936             -10.9252
       138        2.0000           -0.3990721             -10.8593
       139        2.0000           -0.3829074             -10.4194
       140        2.0000           -0.3722278             -10.1288
       141        2.0000           -0.3701397             -10.0720 (HOMO)
       142                         -0.3278244              -8.9206 (LUMO)
       143                         -0.3210994              -8.7376
       144                         -0.3134837              -8.5303
       145                         -0.2863520              -7.7920
       146                         -0.2726504              -7.4192
       147                         -0.2564964              -6.9796
       148                         -0.2437956              -6.6340
       149                         -0.2428468              -6.6082
       150                         -0.2407119              -6.5501
       151                         -0.2391981              -6.5089
       152                         -0.2255838              -6.1384
       ...                                ...                  ...
       287                          1.1590220              31.5386
      -------------------------------------------------------------
                  HL-Gap            0.0423152 Eh            1.1515 eV
             Fermi-level           -0.3489324 Eh           -9.4949 eV

     #   Z          covCN         q      C6AA      α(0)
     1   6 C        2.964    -0.020    28.500     8.757
     2   6 C        2.957    -0.012    28.321     8.729
     3  16 S        2.353    -0.054   143.311    20.148
     4   6 C        2.903     0.163    24.483     8.113
     5  16 S        1.161    -0.368   155.323    21.072
     6   7 N        2.907    -0.053    22.262     7.008
     7   6 C        3.747     0.009    20.499     6.458
     8   6 C        3.752    -0.109    22.646     6.786
     9   6 C        2.896     0.274    22.387     7.758
    10   8 O        0.918    -0.442    22.514     6.363
    11   6 C        2.993     0.019    27.575     8.614
    12   6 C        3.066    -0.045    29.053     8.839
    13   6 C        3.220    -0.008    27.497     8.527
    14   6 C        3.941     0.014    20.274     6.399
    15   6 C        3.806    -0.054    21.543     6.608
    16   6 C        3.751    -0.104    22.548     6.772
    17   6 C        3.806    -0.054    21.535     6.606
    18   6 C        3.751    -0.104    22.552     6.772
    19   6 C        3.077     0.008    27.762     8.639
    20   6 C        3.039    -0.000    27.995     8.678
    21   6 C        3.081     0.018    27.525     8.601
    22  16 S        2.296     0.033   139.726    19.895
    23   6 C        2.981     0.009    27.805     8.650
    24   6 C        2.917    -0.034    28.858     8.809
    25   6 C        2.912    -0.031    28.768     8.795
    26   6 C        3.065     0.009    27.761     8.640
    27   6 C        3.932     0.013    20.286     6.401
    28   6 C        3.804    -0.051    21.494     6.600
    29   6 C        3.750    -0.106    22.592     6.779
    30   6 C        3.806    -0.051    21.480     6.598
    31   6 C        3.751    -0.106    22.582     6.777
    32   6 C        3.226    -0.015    27.583     8.533
    33   6 C        3.068    -0.045    29.047     8.837
    34   6 C        2.991     0.021    27.527     8.606
    35  16 S        2.326     0.039   139.455    19.876
    36   6 C        3.075     0.014    27.616     8.616
    37   6 C        3.043    -0.002    28.042     8.685
    38   6 C        2.981     0.009    27.808     8.650
    39   6 C        2.919    -0.034    28.859     8.809
    40   6 C        2.911    -0.030    28.760     8.794
    41   6 C        2.918    -0.014    28.358     8.733
    42   6 C        3.008    -0.040    28.987     8.832
    43   6 C        2.873     0.231    23.175     7.892
    44   8 O        0.951    -0.407    21.782     6.260
    45   6 C        3.046    -0.023    28.536     8.761
    46   6 C        2.911    -0.017    28.426     8.743
    47   6 C        2.926    -0.033    28.835     8.806
    48   6 C        2.967     0.033    27.268     8.565
    49   6 C        3.759    -0.118    22.810     6.809
    50   6 C        2.919    -0.037    28.925     8.819
    51   6 C        3.034     0.006    27.858     8.657
    52   6 C        3.020     0.036    27.180     8.552
    53   6 C        2.947     0.005    27.903     8.664
    54   6 C        1.945     0.132    27.865     8.525
    55   7 N        0.911    -0.275    27.106     7.530
    56   6 C        1.947     0.134    27.816     8.517
    57   7 N        0.911    -0.271    27.009     7.516
    58   1 H        0.925     0.076     2.023     2.224
    59   1 H        0.924     0.079     1.988     2.205
    60   1 H        0.924     0.074     2.044     2.236
    61   1 H        0.925     0.056     2.244     2.342
    62   1 H        0.925     0.060     2.202     2.321
    63   1 H        0.925     0.050     2.316     2.380
    64   1 H        0.926     0.053     2.283     2.363
    65   1 H        0.924     0.044     2.403     2.424
    66   1 H        0.924     0.042     2.423     2.434
    67   1 H        0.925     0.035     2.514     2.479
    68   1 H        0.925     0.037     2.489     2.467
    69   1 H        0.925     0.041     2.432     2.439
    70   1 H        0.924     0.042     2.418     2.432
    71   1 H        0.924     0.044     2.402     2.424
    72   1 H        0.925     0.036     2.502     2.473
    73   1 H        0.925     0.041     2.429     2.437
    74   1 H        0.925     0.037     2.489     2.467
    75   1 H        0.926     0.058     2.228     2.334
    76   1 H        0.926     0.055     2.262     2.352
    77   1 H        0.924     0.036     2.508     2.477
    78   1 H        0.924     0.046     2.366     2.406
    79   1 H        0.925     0.046     2.370     2.408
    80   1 H        0.925     0.039     2.468     2.457
    81   1 H        0.925     0.038     2.471     2.458
    82   1 H        0.924     0.033     2.544     2.494
    83   1 H        0.924     0.042     2.425     2.435
    84   1 H        0.925     0.038     2.470     2.457
    85   1 H        0.925     0.045     2.386     2.416
    86   1 H        0.925     0.042     2.423     2.434
    87   1 H        0.926     0.055     2.261     2.351
    88   1 H        0.926     0.059     2.210     2.325
    89   1 H        0.926     0.046     2.369     2.407
    90   1 H        0.925     0.070     2.087     2.259
    91   1 H        0.926     0.059     2.207     2.323
    92   1 H        0.926     0.053     2.278     2.360
    93   1 H        0.925     0.059     2.214     2.327
    94   1 H        0.924     0.065     2.145     2.291
    95   1 H        0.925     0.056     2.240     2.341
    96   1 H        0.926     0.058     2.228     2.334

 Mol. C6AA /au·bohr⁶  :     141594.345534
 Mol. C8AA /au·bohr⁸  :    3880599.995222
 Mol. α(0) /au        :        596.767193


Wiberg/Mayer (AO) data.
largest (>0.10) Wiberg bond orders for each atom

 ---------------------------------------------------------------------------
     #   Z sym  total        # sym  WBO       # sym  WBO       # sym  WBO
 ---------------------------------------------------------------------------
     1   6 C    3.939 --     2 C    1.517    11 C    1.292    58 H    0.951
     2   6 C    3.918 --     1 C    1.517     9 C    1.101     3 S    1.058
     3  16 S    2.515 --     4 C    1.107     2 C    1.058     5 S    0.150
     4   6 C    3.943 --     5 S    1.536     6 N    1.224     3 S    1.107
     5  16 S    1.868 --     4 C    1.536     3 S    0.150     6 N    0.101
     6   7 N    3.608 --     4 C    1.224     9 C    1.114     7 C    0.959
                            10 O    0.117     5 S    0.101
     7   6 C    3.946 --     8 C    1.007    60 H    0.965    59 H    0.964
                             6 N    0.959
     8   6 C    3.990 --     7 C    1.007    63 H    0.987    61 H    0.985
                            62 H    0.981
     9   6 C    3.939 --    10 O    1.594     6 N    1.114     2 C    1.101
    10   8 O    2.041 --     9 C    1.594     6 N    0.117
    11   6 C    3.934 --    12 C    1.353     1 C    1.292    22 S    1.105
    12   6 C    3.970 --    13 C    1.425    11 C    1.353    64 H    0.962
    13   6 C    3.964 --    12 C    1.425    21 C    1.338    14 C    0.991
    14   6 C    3.989 --    13 C    0.991    19 C    0.989    15 C    0.957
                            17 C    0.954
    15   6 C    3.992 --    16 C    1.020    66 H    0.975    65 H    0.974
                            14 C    0.957
    16   6 C    3.995 --    15 C    1.020    67 H    0.987    68 H    0.986
                            69 H    0.986
    17   6 C    3.992 --    18 C    1.020    70 H    0.975    71 H    0.974
                            14 C    0.954
    18   6 C    3.995 --    17 C    1.020    72 H    0.986    74 H    0.986
                            73 H    0.986
    19   6 C    3.952 --    20 C    1.365    40 C    1.360    14 C    0.989
    20   6 C    3.976 --    19 C    1.365    23 C    1.231    21 C    1.157
    21   6 C    3.940 --    13 C    1.338    22 S    1.216    20 C    1.157
    22  16 S    2.744 --    21 C    1.216    11 C    1.105
    23   6 C    3.980 --    24 C    1.302    38 C    1.243    20 C    1.231
    24   6 C    3.935 --    25 C    1.499    23 C    1.302    75 H    0.960
    25   6 C    3.978 --    24 C    1.499    26 C    1.358    76 H    0.960
    26   6 C    3.949 --    37 C    1.363    25 C    1.358    27 C    0.991
    27   6 C    3.986 --    26 C    0.991    32 C    0.985    30 C    0.958
                            28 C    0.953
    28   6 C    3.991 --    29 C    1.019    77 H    0.977    78 H    0.974
                            27 C    0.953
    29   6 C    3.994 --    28 C    1.019    81 H    0.985    80 H    0.985
                            79 H    0.982
    30   6 C    3.992 --    31 C    1.019    82 H    0.978    83 H    0.974
                            27 C    0.958
    31   6 C    3.994 --    30 C    1.019    84 H    0.984    85 H    0.983
                            86 H    0.982
    32   6 C    3.961 --    33 C    1.440    36 C    1.330    27 C    0.985
    33   6 C    3.963 --    32 C    1.440    34 C    1.337    87 H    0.961
    34   6 C    3.933 --    33 C    1.337    41 C    1.319    35 S    1.099
    35  16 S    2.772 --    36 C    1.220    34 C    1.099    44 O    0.121
    36   6 C    3.934 --    32 C    1.330    35 S    1.220    37 C    1.162
    37   6 C    3.976 --    26 C    1.363    38 C    1.229    36 C    1.162
    38   6 C    3.979 --    39 C    1.302    23 C    1.243    37 C    1.229
    39   6 C    3.937 --    40 C    1.500    38 C    1.302    88 H    0.959
    40   6 C    3.979 --    39 C    1.500    19 C    1.360    89 H    0.966
    41   6 C    3.949 --    42 C    1.479    34 C    1.319    90 H    0.939
    42   6 C    3.958 --    41 C    1.479    52 C    1.148    43 C    1.068
    43   6 C    3.911 --    44 O    1.681    42 C    1.068    45 C    1.032
    44   8 O    2.077 --    43 C    1.681    35 S    0.121
    45   6 C    3.975 --    46 C    1.414    51 C    1.286    43 C    1.032
    46   6 C    3.980 --    47 C    1.430    45 C    1.414    91 H    0.966
    47   6 C    3.969 --    46 C    1.430    48 C    1.403    92 H    0.967
    48   6 C    3.975 --    47 C    1.403    50 C    1.387    49 C    1.033
    49   6 C    3.992 --    48 C    1.033    93 H    0.979    95 H    0.979
                            94 H    0.959
    50   6 C    3.976 --    51 C    1.418    48 C    1.387    96 H    0.959
    51   6 C    3.980 --    50 C    1.418    45 C    1.286    52 C    1.079
    52   6 C    3.969 --    53 C    1.475    42 C    1.148    51 C    1.079
    53   6 C    3.945 --    52 C    1.475    54 C    1.102    56 C    1.099
    54   6 C    3.942 --    55 N    2.742    53 C    1.102
    55   7 N    2.956 --    54 C    2.742
    56   6 C    3.941 --    57 N    2.752    53 C    1.099
    57   7 N    2.960 --    56 C    2.752
    58   1 H    0.993 --     1 C    0.951
    59   1 H    0.994 --     7 C    0.964
    60   1 H    0.994 --     7 C    0.965
    61   1 H    0.997 --     8 C    0.985
    62   1 H    0.995 --     8 C    0.981
    63   1 H    0.997 --     8 C    0.987
    64   1 H    0.997 --    12 C    0.962
    65   1 H    0.997 --    15 C    0.974
    66   1 H    0.998 --    15 C    0.975
    67   1 H    0.999 --    16 C    0.987
    68   1 H    0.999 --    16 C    0.986
    69   1 H    0.998 --    16 C    0.986
    70   1 H    0.997 --    17 C    0.975
    71   1 H    0.997 --    17 C    0.974
    72   1 H    0.999 --    18 C    0.986
    73   1 H    0.998 --    18 C    0.986
    74   1 H    0.999 --    18 C    0.986
    75   1 H    0.996 --    24 C    0.960
    76   1 H    0.995 --    25 C    0.960
    77   1 H    0.999 --    28 C    0.977
    78   1 H    0.997 --    28 C    0.974
    79   1 H    0.998 --    29 C    0.982
    80   1 H    0.997 --    29 C    0.985
    81   1 H    0.998 --    29 C    0.985
    82   1 H    0.999 --    30 C    0.978
    83   1 H    0.997 --    30 C    0.974
    84   1 H    0.997 --    31 C    0.984
    85   1 H    0.998 --    31 C    0.983
    86   1 H    0.998 --    31 C    0.982
    87   1 H    0.996 --    33 C    0.961
    88   1 H    0.996 --    39 C    0.959
    89   1 H    0.996 --    40 C    0.966
    90   1 H    0.994 --    41 C    0.939
    91   1 H    0.996 --    46 C    0.966
    92   1 H    0.997 --    47 C    0.967
    93   1 H    0.996 --    49 C    0.979
    94   1 H    0.993 --    49 C    0.959
    95   1 H    0.996 --    49 C    0.979
    96   1 H    0.996 --    50 C    0.959
 ---------------------------------------------------------------------------

Topologies differ in bond orders
Writing corrected topology to xtbtopo.mol

molecular dipole:
                 x           y           z       tot (Debye)
 q only:        2.120      -0.738      -0.560
   full:        2.467      -0.587      -0.456       6.548
molecular quadrupole (traceless):
                xx          xy          yy          xz          yz          zz
 q only:       88.829      -7.248      27.979     -28.254     -62.911    -116.809
  q+dip:       93.066      -8.692      22.870     -29.151     -61.586    -115.936
   full:       86.265      -7.411      35.975     -30.012     -64.919    -122.240


           -------------------------------------------------
          | TOTAL ENERGY             -152.636427686731 Eh   |
          | GRADIENT NORM               0.021456911253 Eh/α |
          | HOMO-LUMO GAP               1.151456531310 eV   |
           -------------------------------------------------

------------------------------------------------------------------------
 * finished run on 2022/01/26 at 18:10:03.657     
------------------------------------------------------------------------
 total:
 * wall-time:     0 d,  0 h,  0 min,  0.268 sec
 *  cpu-time:     0 d,  0 h,  0 min,  1.985 sec
 * ratio c/w:     7.410 speedup
 SCF:
 * wall-time:     0 d,  0 h,  0 min,  0.168 sec
 *  cpu-time:     0 d,  0 h,  0 min,  1.324 sec
 * ratio c/w:     7.886 speedup

