      -----------------------------------------------------------      
     |                   =====================                   |     
     |                           x T B                           |     
     |                   =====================                   |     
     |                         S. Grimme                         |     
     |          Mulliken Center for Theoretical Chemistry        |     
     |                    University of Bonn                     |     
      -----------------------------------------------------------      

   * xtb version 6.4.1 (unknown) compiled by 'oda6@login1.crc.pitt.edu' on 2021-06-25

   xtb is free software: you can redistribute it and/or modify it under
   the terms of the GNU Lesser General Public License as published by
   the Free Software Foundation, either version 3 of the License, or
   (at your option) any later version.
   
   xtb is distributed in the hope that it will be useful,
   but WITHOUT ANY WARRANTY; without even the implied warranty of
   MERCHANTABILITY or FITNESS FOR A PARTICULAR PURPOSE.  See the
   GNU Lesser General Public License for more details.
   
   Cite this work as:
   * C. Bannwarth, E. Caldeweyher, S. Ehlert, A. Hansen, P. Pracht,
     J. Seibert, S. Spicher, S. Grimme, WIREs Comput. Mol. Sci., 2020, 11,
     e01493. DOI: 10.1002/wcms.1493
   
   for GFN2-xTB:
   * C. Bannwarth, S. Ehlert and S. Grimme., J. Chem. Theory Comput., 2019,
     15, 1652-1671. DOI: 10.1021/acs.jctc.8b01176
   for GFN1-xTB:
   * S. Grimme, C. Bannwarth, P. Shushkov, J. Chem. Theory Comput., 2017,
     13, 1989-2009. DOI: 10.1021/acs.jctc.7b00118
   for GFN0-xTB:
   * P. Pracht, E. Caldeweyher, S. Ehlert, S. Grimme, ChemRxiv, 2019, preprint.
     DOI: 10.26434/chemrxiv.8326202.v1
   for GFN-FF:
   * S. Spicher and S. Grimme, Angew. Chem. Int. Ed., 2020, 59, 15665-15673.
     DOI: 10.1002/anie.202004239
   
   for DFT-D4:
   * E. Caldeweyher, C. Bannwarth and S. Grimme, J. Chem. Phys., 2017,
     147, 034112. DOI: 10.1063/1.4993215
   * E. Caldeweyher, S. Ehlert, A. Hansen, H. Neugebauer, S. Spicher,
     C. Bannwarth and S. Grimme, J. Chem. Phys., 2019, 150, 154122.
     DOI: 10.1063/1.5090222
   * E. Caldeweyher, J.-M. Mewes, S. Ehlert and S. Grimme, Phys. Chem. Chem. Phys.
     2020, 22, 8499-8512. DOI: 10.1039/D0CP00502A
   
   for sTDA-xTB:
   * S. Grimme and C. Bannwarth, J. Chem. Phys., 2016, 145, 054103.
     DOI: 10.1063/1.4959605
   
   in the mass-spec context:
   * V. Asgeirsson, C. Bauer and S. Grimme, Chem. Sci., 2017, 8, 4879.
     DOI: 10.1039/c7sc00601b
   * J. Koopman and S. Grimme, ACS Omega 2019, 4, 12, 15120-15133.
     DOI: 10.1021/acsomega.9b02011
   
   for metadynamics refer to:
   * S. Grimme, J. Chem. Theory Comput., 2019, 155, 2847-2862
     DOI: 10.1021/acs.jctc.9b00143
   
   for SPH calculations refer to:
   * S. Spicher and S. Grimme, J. Chem. Theory Comput., 2021, 17, 1701-1714
     DOI: 10.1021/acs.jctc.0c01306
   
   with help from (in alphabetical order)
   P. Atkinson, C. Bannwarth, F. Bohle, G. Brandenburg, E. Caldeweyher
   M. Checinski, S. Dohm, S. Ehlert, S. Ehrlich, I. Gerasimov, J. Koopman
   C. Lavigne, S. Lehtola, F. März, M. Müller, F. Musil, H. Neugebauer
   J. Pisarek, C. Plett, P. Pracht, J. Seibert, P. Shushkov, S. Spicher
   M. Stahn, M. Steiner, T. Strunk, J. Stückrath, T. Rose, and J. Unsleber
   
 * started run on 2022/02/01 at 16:25:26.204     

           -------------------------------------------------
          |                Calculation Setup                |
           -------------------------------------------------

          program call               : /ihome/ghutchison/oda6/xtb/xtb-641/bin/xtb ../../GFN2_output/9_40_62.mol --sp --alpb hexane
          hostname                   : smp-n98
          coordinate file            : ../../GFN2_output/9_40_62.mol
          omp threads                :                     8
          number of atoms            :                   208
          number of electrons        :                   634
          charge                     :                     0
          spin                       :                   0.0
          first test random number   :      0.09433132643726

   ID    Z sym.   atoms
    1    6 C      1-3, 5-10, 12-18, 20, 22-31, 33, 35-81, 83-88, 91-98,
                  100-102, 104-111, 113-116, 118-122, 124, 126-128, 130
    2    8 O      4, 117
    3    9 F      11
    4    7 N      19, 21, 129, 131
    5   16 S      32, 34, 82, 89, 90, 99, 103, 112
    6   35 Br     123
    7   17 Cl     125
    8    1 H      132-208

           -------------------------------------------------
          |                 G F N 2 - x T B                 |
           -------------------------------------------------

        Reference                      10.1021/acs.jctc.8b01176
      * Hamiltonian:
        H0-scaling (s, p, d)           1.850000    2.230000    2.230000
        zeta-weighting                 0.500000
      * Dispersion:
        s8                             2.700000
        a1                             0.520000
        a2                             5.000000
        s9                             5.000000
      * Repulsion:
        kExp                           1.500000    1.000000
        rExp                           1.000000
      * Coulomb:
        alpha                          2.000000
        third order                    shell-resolved
        anisotropic                    true
        a3                             3.000000
        a5                             4.000000
        cn-shift                       1.200000
        cn-exp                         4.000000
        max-rad                        5.000000

      * Solvation model:               ALPB
        Solvent                        hexane
        Parameter file                 internal GFN2-xTB/ALPB
        Dielectric constant                1.8800E+00
        Reference state                gsolv [1 M gas/solution]
        Free energy shift                  4.8134E-03 Eh       3.0204E+00 kcal/mol
        Temperature                        2.9815E+02 K
        Density                            6.6000E-01 kg/L
        Solvent mass                       8.6180E+01 g/mol
        Interaction kernel             P16
        Born radius scaling (c1)           1.1040E+00
        Born radii integrator          GBOBC
        Born offset                        0.0000E+00 a0       0.0000E+00 AA
        H-bond correction              false
        Ion screening                  false
        Surface tension                    1.0000E-05 Eh       1.5569E+01 dyn/cm
        Grid points                               230 per atom

          ...................................................
          :                      SETUP                      :
          :.................................................:
          :  # basis functions                 661          :
          :  # atomic orbitals                 651          :
          :  # shells                          349          :
          :  # electrons                       634          :
          :  max. iterations                   250          :
          :  Hamiltonian                  GFN2-xTB          :
          :  restarted?                      false          :
          :  GBSA solvation                   true          :
          :  PC potential                    false          :
          :  electronic temp.          300.0000000     K    :
          :  accuracy                    1.0000000          :
          :  -> integral cutoff          0.2500000E+02      :
          :  -> integral neglect         0.1000000E-07      :
          :  -> SCF convergence          0.1000000E-05 Eh   :
          :  -> wf. convergence          0.1000000E-03 e    :
          :  Broyden damping             0.4000000          :
          ...................................................

 iter      E             dE          RMSdq      gap      omega  full diag
   1   -348.0908009 -0.348091E+03  0.434E+00    1.17       0.0  T
   2   -348.2705967 -0.179796E+00  0.253E+00    0.93       1.0  T
   3   -348.0924107  0.178186E+00  0.130E+00    0.72       1.0  T
   4   -348.3295937 -0.237183E+00  0.400E-01    0.75       1.0  T
   5   -348.3430532 -0.134595E-01  0.166E-01    0.71       1.0  T
   6   -348.3444002 -0.134699E-02  0.932E-02    0.76       1.0  T
   7   -348.3450082 -0.608023E-03  0.569E-02    0.74       1.0  T
   8   -348.3451975 -0.189264E-03  0.423E-02    0.75       1.0  T
   9   -348.3452746 -0.771351E-04  0.304E-02    0.75       1.0  T
  10   -348.3453369 -0.622624E-04  0.192E-02    0.75       1.0  T
  11   -348.3453626 -0.256718E-04  0.103E-02    0.75       1.0  T
  12   -348.3453711 -0.854957E-05  0.519E-03    0.75       1.3  T
  13   -348.3453730 -0.186140E-05  0.254E-03    0.75       2.7  T
  14   -348.3453733 -0.340329E-06  0.152E-03    0.75       4.6  T
  15   -348.3453735 -0.131575E-06  0.893E-04    0.75       7.8  T
  16   -348.3453735 -0.291158E-07  0.449E-04    0.75      15.5  T

   *** convergence criteria satisfied after 16 iterations ***

         #    Occupation            Energy/Eh            Energy/eV
      -------------------------------------------------------------
         1        2.0000           -1.0778896             -29.3309
       ...           ...                  ...                  ...
       311        2.0000           -0.3904879             -10.6257
       312        2.0000           -0.3885965             -10.5742
       313        2.0000           -0.3837979             -10.4437
       314        2.0000           -0.3818211             -10.3899
       315        2.0000           -0.3814438             -10.3796
       316        2.0000           -0.3703512             -10.0778
       317        2.0000           -0.3656648              -9.9502 (HOMO)
       318        0.0000           -0.3381677              -9.2020 (LUMO)
       319                         -0.3329546              -9.0602
       320                         -0.3270219              -8.8987
       321                         -0.3164369              -8.6107
       322                         -0.2958897              -8.0516
       ...                                ...                  ...
       651                          1.1577768              31.5047
      -------------------------------------------------------------
                  HL-Gap            0.0274972 Eh            0.7482 eV
             Fermi-level           -0.3519148 Eh           -9.5761 eV

 SCC (total)                   0 d,  0 h,  0 min,  0.881 sec
 SCC setup                      ...        0 min,  0.007 sec (  0.803%)
 Dispersion                     ...        0 min,  0.012 sec (  1.328%)
 classical contributions        ...        0 min,  0.000 sec (  0.049%)
 integral evaluation            ...        0 min,  0.042 sec (  4.758%)
 iterations                     ...        0 min,  0.676 sec ( 76.794%)
 molecular gradient             ...        0 min,  0.139 sec ( 15.836%)
 printout                       ...        0 min,  0.004 sec (  0.422%)

         :::::::::::::::::::::::::::::::::::::::::::::::::::::
         ::                     SUMMARY                     ::
         :::::::::::::::::::::::::::::::::::::::::::::::::::::
         :: total energy            -342.640849278860 Eh    ::
         :: total w/o Gsasa/hb      -342.523908263937 Eh    ::
         :: gradient norm              0.020480420384 Eh/a0 ::
         :: HOMO-LUMO gap              0.748235829912 eV    ::
         ::.................................................::
         :: SCC energy              -348.345373489037 Eh    ::
         :: -> isotropic ES            0.143148955184 Eh    ::
         :: -> anisotropic ES          0.019266531720 Eh    ::
         :: -> anisotropic XC          0.196763521379 Eh    ::
         :: -> dispersion             -0.366520837054 Eh    ::
         :: -> Gsolv                  -0.138110631028 Eh    ::
         ::    -> Gelec               -0.021169616105 Eh    ::
         ::    -> Gsasa               -0.121754370743 Eh    ::
         ::    -> Ghb                  0.000000000000 Eh    ::
         ::    -> Gshift               0.004813355820 Eh    ::
         :: repulsion energy           5.694251103344 Eh    ::
         :: add. restraining           0.000000000000 Eh    ::
         :: total charge               0.000000000003 e     ::
         :::::::::::::::::::::::::::::::::::::::::::::::::::::

           -------------------------------------------------
          |                Property Printout                |
           -------------------------------------------------

    * Orbital Energies and Occupations

         #    Occupation            Energy/Eh            Energy/eV
      -------------------------------------------------------------
         1        2.0000           -1.0778896             -29.3309
       ...           ...                  ...                  ...
       305        2.0000           -0.3970691             -10.8048
       306        2.0000           -0.3959736             -10.7750
       307        2.0000           -0.3956544             -10.7663
       308        2.0000           -0.3932678             -10.7014
       309        2.0000           -0.3920447             -10.6681
       310        2.0000           -0.3912247             -10.6458
       311        2.0000           -0.3904879             -10.6257
       312        2.0000           -0.3885965             -10.5742
       313        2.0000           -0.3837979             -10.4437
       314        2.0000           -0.3818211             -10.3899
       315        2.0000           -0.3814438             -10.3796
       316        2.0000           -0.3703512             -10.0778
       317        2.0000           -0.3656648              -9.9502 (HOMO)
       318        0.0000           -0.3381677              -9.2020 (LUMO)
       319                         -0.3329546              -9.0602
       320                         -0.3270219              -8.8987
       321                         -0.3164369              -8.6107
       322                         -0.2958897              -8.0516
       323                         -0.2887064              -7.8561
       324                         -0.2779641              -7.5638
       325                         -0.2706050              -7.3635
       326                         -0.2680440              -7.2938
       327                         -0.2579482              -7.0191
       328                         -0.2520177              -6.8577
       ...                                ...                  ...
       651                          1.1577768              31.5047
      -------------------------------------------------------------
                  HL-Gap            0.0274972 Eh            0.7482 eV
             Fermi-level           -0.3519148 Eh           -9.5761 eV

     #   Z          covCN         q      C6AA      α(0)
     1   6 C        2.954    -0.008    28.224     8.714
     2   6 C        2.999    -0.032    28.776     8.799
     3   6 C        2.862     0.235    23.099     7.878
     4   8 O        0.856    -0.417    22.025     6.292
     5   6 C        3.037    -0.019    28.452     8.749
     6   6 C        2.913    -0.016    28.410     8.740
     7   6 C        2.987     0.016    27.641     8.624
     8   6 C        2.922    -0.029    28.728     8.790
     9   6 C        2.913    -0.042    29.043     8.837
    10   6 C        2.782     0.179    24.143     8.048
    11   9 F        0.787    -0.237    11.627     4.028
    12   6 C        2.917    -0.051    29.267     8.871
    13   6 C        2.990     0.023    27.477     8.599
    14   6 C        2.916    -0.030    28.749     8.792
    15   6 C        3.022     0.008    27.816     8.651
    16   6 C        3.018     0.037    27.155     8.548
    17   6 C        2.947     0.008    27.835     8.653
    18   6 C        1.945     0.130    27.890     8.529
    19   7 N        0.911    -0.265    26.854     7.495
    20   6 C        1.948     0.134    27.817     8.517
    21   7 N        0.911    -0.266    26.879     7.498
    22   6 C        2.979     0.039    27.121     8.543
    23   6 C        3.056    -0.039    28.903     8.817
    24   6 C        3.135    -0.001    27.830     8.635
    25   6 C        3.020     0.003    27.925     8.668
    26   6 C        2.994     0.016    27.650     8.626
    27   6 C        3.109    -0.050    29.087     8.836
    28   6 C        3.116    -0.059    29.285     8.864
    29   6 C        2.988     0.027    27.385     8.584
    30   6 C        3.827    -0.056    21.564     6.608
    31   6 C        3.753    -0.103    22.531     6.769
    32  16 S        2.358    -0.023   142.010    20.057
    33   6 C        3.015     0.020    27.549     8.610
    34  16 S        2.202    -0.065   143.751    20.179
    35   6 C        3.081     0.028    27.283     8.563
    36   6 C        3.044     0.001    27.960     8.673
    37   6 C        2.910    -0.036    28.895     8.814
    38   6 C        3.083     0.006    27.806     8.645
    39   6 C        3.949     0.018    20.208     6.388
    40   6 C        2.977     0.010    27.781     8.646
    41   6 C        2.922    -0.036    28.899     8.816
    42   6 C        2.926    -0.039    28.968     8.826
    43   6 C        2.971     0.011    27.767     8.643
    44   6 C        3.806    -0.059    21.626     6.620
    45   6 C        3.754    -0.100    22.464     6.758
    46   6 C        2.925    -0.041    29.019     8.834
    47   6 C        2.925    -0.039    28.965     8.826
    48   6 C        2.973     0.009    27.822     8.652
    49   6 C        2.924    -0.037    28.911     8.818
    50   6 C        2.926    -0.037    28.923     8.820
    51   6 C        2.970     0.014    27.701     8.633
    52   6 C        3.806    -0.059    21.637     6.622
    53   6 C        3.753    -0.102    22.498     6.764
    54   6 C        2.925    -0.041    29.029     8.836
    55   6 C        2.924    -0.039    28.958     8.825
    56   6 C        3.182    -0.013    27.896     8.621
    57   6 C        3.080     0.028    27.288     8.564
    58   6 C        3.045     0.001    27.954     8.672
    59   6 C        2.909    -0.037    28.910     8.817
    60   6 C        3.085     0.005    27.811     8.645
    61   6 C        3.953     0.018    20.212     6.388
    62   6 C        2.978     0.011    27.766     8.643
    63   6 C        2.924    -0.037    28.931     8.821
    64   6 C        2.925    -0.041    29.011     8.833
    65   6 C        2.971     0.012    27.754     8.641
    66   6 C        3.806    -0.059    21.637     6.622
    67   6 C        3.754    -0.099    22.440     6.755
    68   6 C        2.925    -0.041    29.012     8.833
    69   6 C        2.924    -0.038    28.935     8.821
    70   6 C        2.977     0.010    27.790     8.647
    71   6 C        2.922    -0.038    28.952     8.824
    72   6 C        2.926    -0.039    28.972     8.827
    73   6 C        2.971     0.013    27.731     8.638
    74   6 C        3.806    -0.059    21.628     6.620
    75   6 C        3.754    -0.099    22.451     6.756
    76   6 C        2.925    -0.039    28.970     8.827
    77   6 C        2.926    -0.038    28.937     8.822
    78   6 C        3.179    -0.014    27.934     8.629
    79   6 C        3.097     0.000    27.905     8.657
    80   6 C        3.026    -0.005    28.128     8.699
    81   6 C        3.013     0.030    27.307     8.572
    82  16 S        2.301    -0.055   143.352    20.151
    83   6 C        3.000     0.016    27.636     8.624
    84   6 C        3.108    -0.051    29.125     8.842
    85   6 C        3.120    -0.059    29.292     8.864
    86   6 C        2.986     0.027    27.401     8.587
    87   6 C        3.826    -0.053    21.511     6.600
    88   6 C        3.754    -0.104    22.540     6.770
    89  16 S        2.370    -0.054   143.310    20.148
    90  16 S        2.209    -0.061   143.597    20.169
    91   6 C        3.014     0.020    27.543     8.609
    92   6 C        3.013     0.005    27.895     8.664
    93   6 C        2.992     0.018    27.596     8.617
    94   6 C        3.114    -0.049    29.053     8.830
    95   6 C        3.115    -0.057    29.256     8.860
    96   6 C        2.987     0.028    27.370     8.582
    97   6 C        3.826    -0.057    21.572     6.609
    98   6 C        3.753    -0.104    22.538     6.770
    99  16 S        2.358    -0.038   142.636    20.101
   100   6 C        3.126     0.002    27.792     8.632
   101   6 C        3.066    -0.032    28.737     8.790
   102   6 C        2.983     0.038    27.131     8.544
   103  16 S        2.306    -0.074   144.147    20.207
   104   6 C        3.021     0.033    27.245     8.562
   105   6 C        3.026    -0.001    28.030     8.684
   106   6 C        3.001     0.016    27.642     8.624
   107   6 C        3.106    -0.049    29.061     8.833
   108   6 C        3.117    -0.060    29.319     8.869
   109   6 C        2.986     0.026    27.404     8.587
   110   6 C        3.824    -0.054    21.532     6.603
   111   6 C        3.754    -0.105    22.557     6.772
   112  16 S        2.368    -0.056   143.363    20.152
   113   6 C        3.112     0.002    27.833     8.643
   114   6 C        2.930    -0.005    28.149     8.701
   115   6 C        3.012    -0.028    28.685     8.786
   116   6 C        2.868     0.242    22.967     7.856
   117   8 O        0.856    -0.391    21.502     6.217
   118   6 C        3.077    -0.026    28.568     8.763
   119   6 C        3.035     0.016    27.620     8.620
   120   6 C        2.913    -0.029    28.726     8.789
   121   6 C        3.004    -0.024    28.590     8.771
   122   6 C        2.945     0.082    26.176     8.391
   123  35 Br       1.145    -0.126   188.513    22.138
   124   6 C        2.947     0.108    25.621     8.302
   125  17 Cl       1.027    -0.107   102.500    15.489
   126   6 C        3.018     0.043    27.025     8.527
   127   6 C        2.948     0.020    27.550     8.609
   128   6 C        1.945     0.138    27.715     8.502
   129   7 N        0.911    -0.267    26.906     7.502
   130   6 C        1.935     0.136    27.771     8.510
   131   7 N        0.911    -0.258    26.704     7.474
   132   1 H        0.925     0.075     2.031     2.229
   133   1 H        0.926     0.067     2.117     2.275
   134   1 H        0.926     0.064     2.154     2.295
   135   1 H        0.926     0.071     2.071     2.251
   136   1 H        0.926     0.075     2.035     2.231
   137   1 H        0.926     0.065     2.141     2.288
   138   1 H        0.926     0.104     1.750     2.068
   139   1 H        0.926     0.046     2.375     2.410
   140   1 H        0.926     0.041     2.429     2.437
   141   1 H        0.924     0.052     2.291     2.367
   142   1 H        0.924     0.048     2.343     2.394
   143   1 H        0.925     0.045     2.389     2.417
   144   1 H        0.925     0.041     2.439     2.442
   145   1 H        0.925     0.043     2.404     2.425
   146   1 H        0.926     0.049     2.331     2.387
   147   1 H        0.926     0.039     2.459     2.452
   148   1 H        0.926     0.035     2.522     2.483
   149   1 H        0.924     0.038     2.473     2.459
   150   1 H        0.924     0.038     2.479     2.462
   151   1 H        0.925     0.037     2.490     2.468
   152   1 H        0.925     0.039     2.468     2.457
   153   1 H        0.925     0.037     2.495     2.470
   154   1 H        0.926     0.033     2.547     2.496
   155   1 H        0.926     0.024     2.671     2.556
   156   1 H        0.926     0.026     2.646     2.544
   157   1 H        0.926     0.035     2.516     2.480
   158   1 H        0.924     0.038     2.477     2.461
   159   1 H        0.924     0.037     2.486     2.466
   160   1 H        0.925     0.039     2.463     2.454
   161   1 H        0.925     0.044     2.396     2.421
   162   1 H        0.925     0.038     2.470     2.458
   163   1 H        0.925     0.034     2.532     2.488
   164   1 H        0.926     0.037     2.492     2.469
   165   1 H        0.926     0.049     2.337     2.391
   166   1 H        0.926     0.039     2.458     2.452
   167   1 H        0.926     0.035     2.514     2.479
   168   1 H        0.924     0.038     2.469     2.457
   169   1 H        0.924     0.039     2.460     2.453
   170   1 H        0.925     0.037     2.495     2.470
   171   1 H        0.925     0.039     2.468     2.457
   172   1 H        0.925     0.036     2.501     2.473
   173   1 H        0.926     0.032     2.555     2.500
   174   1 H        0.926     0.027     2.636     2.539
   175   1 H        0.926     0.038     2.470     2.458
   176   1 H        0.926     0.033     2.538     2.491
   177   1 H        0.924     0.039     2.466     2.456
   178   1 H        0.924     0.037     2.485     2.465
   179   1 H        0.925     0.038     2.481     2.463
   180   1 H        0.925     0.038     2.481     2.463
   181   1 H        0.925     0.038     2.469     2.457
   182   1 H        0.926     0.034     2.534     2.489
   183   1 H        0.926     0.023     2.681     2.561
   184   1 H        0.926     0.037     2.489     2.467
   185   1 H        0.926     0.036     2.496     2.470
   186   1 H        0.924     0.048     2.345     2.395
   187   1 H        0.924     0.045     2.381     2.413
   188   1 H        0.925     0.043     2.407     2.426
   189   1 H        0.925     0.042     2.428     2.437
   190   1 H        0.925     0.046     2.369     2.407
   191   1 H        0.926     0.047     2.361     2.403
   192   1 H        0.926     0.043     2.410     2.428
   193   1 H        0.924     0.053     2.287     2.365
   194   1 H        0.924     0.050     2.325     2.385
   195   1 H        0.925     0.041     2.434     2.440
   196   1 H        0.925     0.045     2.386     2.415
   197   1 H        0.925     0.045     2.381     2.413
   198   1 H        0.926     0.075     2.031     2.229
   199   1 H        0.926     0.033     2.538     2.491
   200   1 H        0.926     0.039     2.459     2.452
   201   1 H        0.924     0.048     2.344     2.394
   202   1 H        0.924     0.050     2.315     2.379
   203   1 H        0.925     0.043     2.404     2.425
   204   1 H        0.925     0.057     2.234     2.337
   205   1 H        0.925     0.038     2.474     2.460
   206   1 H        0.925     0.088     1.902     2.157
   207   1 H        0.926     0.082     1.960     2.189
   208   1 H        0.926     0.092     1.863     2.135

 Mol. C6AA /au·bohr⁶  :     744727.561716
 Mol. C8AA /au·bohr⁸  :   21068417.835825
 Mol. α(0) /au        :       1383.453977


Wiberg/Mayer (AO) data.
largest (>0.10) Wiberg bond orders for each atom

 ---------------------------------------------------------------------------
     #   Z sym  total        # sym  WBO       # sym  WBO       # sym  WBO
 ---------------------------------------------------------------------------
     1   6 C    3.942 --     2 C    1.525    22 C    1.261   132 H    0.942
     2   6 C    3.946 --     1 C    1.525    16 C    1.133     3 C    1.042
     3   6 C    3.913 --     4 O    1.725     2 C    1.042     5 C    1.028
     4   8 O    2.019 --     3 C    1.725
     5   6 C    3.978 --     6 C    1.519    15 C    1.201     3 C    1.028
     6   6 C    3.977 --     5 C    1.519     7 C    1.273   133 H    0.962
     7   6 C    3.980 --     8 C    1.287     6 C    1.273    13 C    1.240
     8   6 C    3.980 --     9 C    1.547     7 C    1.287   134 H    0.966
                            12 C    0.111
     9   6 C    3.974 --     8 C    1.547    10 C    1.293   135 H    0.965
    10   6 C    3.870 --    12 C    1.494     9 C    1.293    11 F    0.952
    11   9 F    1.076 --    10 C    0.952
    12   6 C    3.976 --    10 C    1.494    13 C    1.289   136 H    0.962
                             8 C    0.111
    13   6 C    3.984 --    12 C    1.289    14 C    1.273     7 C    1.240
    14   6 C    3.970 --    15 C    1.502    13 C    1.273   137 H    0.957
    15   6 C    3.984 --    14 C    1.502     5 C    1.201    16 C    1.088
    16   6 C    3.970 --    17 C    1.483     2 C    1.133    15 C    1.088
    17   6 C    3.934 --    16 C    1.483    20 C    1.098    18 C    1.098
    18   6 C    3.943 --    19 N    2.748    17 C    1.098
    19   7 N    2.959 --    18 C    2.748
    20   6 C    3.942 --    21 N    2.755    17 C    1.098
    21   7 N    2.964 --    20 C    2.755
    22   6 C    3.931 --    23 C    1.453     1 C    1.261    82 S    1.068
    23   6 C    3.936 --    22 C    1.453    24 C    1.290   138 H    0.932
    24   6 C    3.968 --    23 C    1.290    25 C    1.240    81 C    1.223
    25   6 C    3.954 --    33 C    1.395    24 C    1.240    26 C    1.096
    26   6 C    3.944 --    27 C    1.530    32 S    1.130    25 C    1.096
    27   6 C    3.974 --    26 C    1.530    28 C    1.295   139 H    0.960
    28   6 C    3.980 --    29 C    1.571    27 C    1.295   140 H    0.964
    29   6 C    3.934 --    28 C    1.571    32 S    1.175    30 C    1.027
    30   6 C    3.995 --    29 C    1.027    31 C    0.998   142 H    0.970
                           141 H    0.966
    31   6 C    3.992 --    30 C    0.998   144 H    0.988   143 H    0.987
                           145 H    0.986
    32  16 S    2.606 --    29 C    1.175    26 C    1.130
    33   6 C    3.940 --    25 C    1.395    79 C    1.226    34 S    1.086
    34  16 S    2.519 --    35 C    1.121    33 C    1.086
    35   6 C    3.916 --    78 C    1.478    36 C    1.137    34 S    1.121
    36   6 C    3.962 --    37 C    1.352    60 C    1.290    35 C    1.137
    37   6 C    3.973 --    38 C    1.463    36 C    1.352   146 H    0.960
    38   6 C    3.966 --    37 C    1.463    58 C    1.288    39 C    0.959
    39   6 C    3.986 --    56 C    0.977    38 C    0.959    48 C    0.958
                            40 C    0.951
    40   6 C    3.983 --    41 C    1.419    47 C    1.399    39 C    0.951
                            43 C    0.105
    41   6 C    3.989 --    42 C    1.434    40 C    1.419   147 H    0.961
                            46 C    0.107
    42   6 C    3.989 --    41 C    1.434    43 C    1.419   148 H    0.968
                            47 C    0.109
    43   6 C    3.986 --    42 C    1.419    46 C    1.400    44 C    1.013
                            40 C    0.105
    44   6 C    3.997 --    43 C    1.013    45 C    1.001   150 H    0.974
                           149 H    0.974
    45   6 C    3.995 --    44 C    1.001   151 H    0.988   153 H    0.988
                           152 H    0.986
    46   6 C    3.990 --    47 C    1.459    43 C    1.400   154 H    0.969
                            41 C    0.107
    47   6 C    3.991 --    46 C    1.459    40 C    1.399   155 H    0.969
                            42 C    0.109
    48   6 C    3.982 --    49 C    1.414    55 C    1.399    39 C    0.958
                            51 C    0.105
    49   6 C    3.990 --    50 C    1.443    48 C    1.414   156 H    0.963
                            54 C    0.106
    50   6 C    3.991 --    49 C    1.443    51 C    1.413   157 H    0.969
                            55 C    0.109
    51   6 C    3.986 --    50 C    1.413    54 C    1.405    52 C    1.013
                            48 C    0.105
    52   6 C    3.997 --    51 C    1.013    53 C    1.000   159 H    0.974
                           158 H    0.973
    53   6 C    3.994 --    52 C    1.000   160 H    0.987   162 H    0.986
                           161 H    0.985
    54   6 C    3.990 --    55 C    1.451    51 C    1.405   163 H    0.969
                            49 C    0.106
    55   6 C    3.989 --    54 C    1.451    48 C    1.399   164 H    0.963
                            50 C    0.109
    56   6 C    3.950 --    57 C    1.476   113 C    1.225    39 C    0.977
    57   6 C    3.915 --    56 C    1.476    58 C    1.138    90 S    1.119
    58   6 C    3.962 --    59 C    1.352    38 C    1.288    57 C    1.138
    59   6 C    3.974 --    60 C    1.463    58 C    1.352   165 H    0.961
    60   6 C    3.967 --    59 C    1.463    36 C    1.290    61 C    0.957
    61   6 C    3.986 --    78 C    0.975    62 C    0.959    60 C    0.957
                            70 C    0.954
    62   6 C    3.983 --    69 C    1.411    63 C    1.399    61 C    0.959
                            65 C    0.105
    63   6 C    3.989 --    64 C    1.452    62 C    1.399   166 H    0.963
                            68 C    0.108
    64   6 C    3.990 --    63 C    1.452    65 C    1.405   167 H    0.969
                            69 C    0.107
    65   6 C    3.986 --    68 C    1.413    64 C    1.405    66 C    1.013
                            62 C    0.105
    66   6 C    3.997 --    65 C    1.013    67 C    1.000   168 H    0.974
                           169 H    0.974
    67   6 C    3.996 --    66 C    1.000   172 H    0.988   170 H    0.988
                           171 H    0.986
    68   6 C    3.991 --    69 C    1.442    65 C    1.413   173 H    0.969
                            63 C    0.108
    69   6 C    3.990 --    68 C    1.442    62 C    1.411   174 H    0.965
                            64 C    0.107
    70   6 C    3.983 --    71 C    1.421    77 C    1.397    61 C    0.954
                            73 C    0.105
    71   6 C    3.989 --    72 C    1.434    70 C    1.421   175 H    0.960
                            76 C    0.107
    72   6 C    3.990 --    71 C    1.434    73 C    1.420   176 H    0.967
                            77 C    0.109
    73   6 C    3.986 --    72 C    1.420    76 C    1.398    74 C    1.013
                            70 C    0.105
    74   6 C    3.997 --    73 C    1.013    75 C    1.001   178 H    0.976
                           177 H    0.972
    75   6 C    3.995 --    74 C    1.001   180 H    0.988   181 H    0.986
                           179 H    0.986
    76   6 C    3.990 --    77 C    1.462    73 C    1.398   182 H    0.969
                            71 C    0.107
    77   6 C    3.991 --    76 C    1.462    70 C    1.397   183 H    0.969
                            72 C    0.109
    78   6 C    3.946 --    35 C    1.478    79 C    1.224    61 C    0.975
    79   6 C    3.962 --    80 C    1.288    33 C    1.226    78 C    1.224
    80   6 C    3.957 --    81 C    1.386    79 C    1.288    83 C    1.035
    81   6 C    3.946 --    80 C    1.386    24 C    1.223    82 S    1.123
    82  16 S    2.507 --    81 C    1.123    22 C    1.068
    83   6 C    3.944 --    84 C    1.593    89 S    1.124    80 C    1.035
                            86 C    0.110
    84   6 C    3.979 --    83 C    1.593    85 C    1.263   184 H    0.960
    85   6 C    3.983 --    86 C    1.603    84 C    1.263   185 H    0.964
    86   6 C    3.945 --    85 C    1.603    89 S    1.155    87 C    1.025
                            83 C    0.110
    87   6 C    3.995 --    86 C    1.025    88 C    0.999   187 H    0.971
                           186 H    0.964
    88   6 C    3.994 --    87 C    0.999   189 H    0.988   190 H    0.986
                           188 H    0.985
    89  16 S    2.577 --    86 C    1.155    83 C    1.124
    90  16 S    2.518 --    57 C    1.119    91 C    1.088
    91   6 C    3.940 --    92 C    1.379   113 C    1.238    90 S    1.088
    92   6 C    3.954 --    91 C    1.379   100 C    1.250    93 C    1.102
    93   6 C    3.944 --    94 C    1.531    99 S    1.126    92 C    1.102
    94   6 C    3.971 --    93 C    1.531    95 C    1.293   191 H    0.960
    95   6 C    3.981 --    96 C    1.575    94 C    1.293   192 H    0.963
    96   6 C    3.932 --    95 C    1.575    99 S    1.165    97 C    1.027
    97   6 C    3.994 --    96 C    1.027    98 C    0.998   194 H    0.970
                           193 H    0.965
    98   6 C    3.992 --    97 C    0.998   195 H    0.988   196 H    0.987
                           197 H    0.985
    99  16 S    2.592 --    96 C    1.165    93 C    1.126
   100   6 C    3.968 --   101 C    1.268    92 C    1.250   104 C    1.230
   101   6 C    3.949 --   102 C    1.483   100 C    1.268   198 H    0.951
   102   6 C    3.931 --   101 C    1.483   114 C    1.214   103 S    1.079
   103  16 S    2.525 --   104 C    1.095   102 C    1.079
   104   6 C    3.947 --   105 C    1.401   100 C    1.230   103 S    1.095
   105   6 C    3.957 --   104 C    1.401   113 C    1.267   106 C    1.042
   106   6 C    3.945 --   107 C    1.584   112 S    1.123   105 C    1.042
                           109 C    0.108
   107   6 C    3.981 --   106 C    1.584   108 C    1.265   199 H    0.965
   108   6 C    3.982 --   109 C    1.599   107 C    1.265   200 H    0.963
   109   6 C    3.944 --   108 C    1.599   112 S    1.157   110 C    1.025
                           106 C    0.108
   110   6 C    3.995 --   109 C    1.025   111 C    1.011   201 H    0.968
                           202 H    0.956
   111   6 C    3.993 --   110 C    1.011   205 H    0.987   203 H    0.986
                           204 H    0.979
   112  16 S    2.598 --   109 C    1.157   106 C    1.123
   113   6 C    3.965 --   105 C    1.267    91 C    1.238    56 C    1.225
   114   6 C    3.939 --   115 C    1.564   102 C    1.214   206 H    0.945
   115   6 C    3.948 --   114 C    1.564   126 C    1.128   116 C    1.020
   116   6 C    3.919 --   117 O    1.761   115 C    1.020   118 C    1.016
   117   8 O    2.032 --   116 C    1.761
   118   6 C    3.971 --   124 C    1.380   119 C    1.285   116 C    1.016
   119   6 C    3.982 --   120 C    1.400   118 C    1.285   126 C    1.082
   120   6 C    3.974 --   121 C    1.423   119 C    1.400   207 H    0.957
   121   6 C    3.974 --   120 C    1.423   122 C    1.412   208 H    0.962
   122   6 C    3.929 --   121 C    1.412   124 C    1.334   123 Br   1.007
   123  35 Br   1.155 --   122 C    1.007
   124   6 C    3.924 --   118 C    1.380   122 C    1.334   125 Cl   1.024
   125  17 Cl   1.207 --   124 C    1.024
   126   6 C    3.967 --   127 C    1.486   115 C    1.128   119 C    1.082
   127   6 C    3.963 --   126 C    1.486   130 C    1.103   128 C    1.091
   128   6 C    3.944 --   129 N    2.760   127 C    1.091
   129   7 N    2.974 --   128 C    2.760
   130   6 C    3.943 --   131 N    2.754   127 C    1.103
   131   7 N    2.963 --   130 C    2.754
   132   1 H    0.993 --     1 C    0.942
   133   1 H    0.994 --     6 C    0.962
   134   1 H    0.995 --     8 C    0.966
   135   1 H    0.994 --     9 C    0.965
   136   1 H    0.994 --    12 C    0.962
   137   1 H    0.995 --    14 C    0.957
   138   1 H    0.988 --    23 C    0.932
   139   1 H    0.998 --    27 C    0.960
   140   1 H    0.998 --    28 C    0.964
   141   1 H    0.996 --    30 C    0.966
   142   1 H    0.997 --    30 C    0.970
   143   1 H    0.998 --    31 C    0.987
   144   1 H    0.998 --    31 C    0.988
   145   1 H    0.997 --    31 C    0.986
   146   1 H    0.996 --    37 C    0.960
   147   1 H    0.998 --    41 C    0.961
   148   1 H    0.998 --    42 C    0.968
   149   1 H    0.998 --    44 C    0.974
   150   1 H    0.998 --    44 C    0.974
   151   1 H    0.999 --    45 C    0.988
   152   1 H    0.998 --    45 C    0.986
   153   1 H    0.999 --    45 C    0.988
   154   1 H    0.998 --    46 C    0.969
   155   1 H    0.999 --    47 C    0.969
   156   1 H    0.999 --    49 C    0.963
   157   1 H    0.998 --    50 C    0.969
   158   1 H    0.998 --    52 C    0.973
   159   1 H    0.998 --    52 C    0.974
   160   1 H    0.998 --    53 C    0.987
   161   1 H    0.998 --    53 C    0.985
   162   1 H    0.998 --    53 C    0.986
   163   1 H    0.998 --    54 C    0.969
   164   1 H    0.998 --    55 C    0.963
   165   1 H    0.996 --    59 C    0.961
   166   1 H    0.998 --    63 C    0.963
   167   1 H    0.998 --    64 C    0.969
   168   1 H    0.998 --    66 C    0.974
   169   1 H    0.998 --    66 C    0.974
   170   1 H    0.999 --    67 C    0.988
   171   1 H    0.998 --    67 C    0.986
   172   1 H    0.999 --    67 C    0.988
   173   1 H    0.998 --    68 C    0.969
   174   1 H    0.999 --    69 C    0.965
   175   1 H    0.998 --    71 C    0.960
   176   1 H    0.998 --    72 C    0.967
   177   1 H    0.998 --    74 C    0.972
   178   1 H    0.998 --    74 C    0.976
   179   1 H    0.999 --    75 C    0.986
   180   1 H    0.999 --    75 C    0.988
   181   1 H    0.998 --    75 C    0.986
   182   1 H    0.998 --    76 C    0.969
   183   1 H    0.999 --    77 C    0.969
   184   1 H    0.998 --    84 C    0.960
   185   1 H    0.998 --    85 C    0.964
   186   1 H    0.997 --    87 C    0.964
   187   1 H    0.998 --    87 C    0.971
   188   1 H    0.997 --    88 C    0.985
   189   1 H    0.998 --    88 C    0.988
   190   1 H    0.998 --    88 C    0.986
   191   1 H    0.998 --    94 C    0.960
   192   1 H    0.998 --    95 C    0.963
   193   1 H    0.996 --    97 C    0.965
   194   1 H    0.997 --    97 C    0.970
   195   1 H    0.998 --    98 C    0.988
   196   1 H    0.998 --    98 C    0.987
   197   1 H    0.997 --    98 C    0.985
   198   1 H    0.993 --   101 C    0.951
   199   1 H    0.999 --   107 C    0.965
   200   1 H    0.998 --   108 C    0.963
   201   1 H    0.997 --   110 C    0.968
   202   1 H    0.996 --   110 C    0.956
   203   1 H    0.998 --   111 C    0.986
   204   1 H    0.997 --   111 C    0.979
   205   1 H    0.998 --   111 C    0.987
   206   1 H    0.989 --   114 C    0.945
   207   1 H    0.992 --   120 C    0.957
   208   1 H    0.991 --   121 C    0.962
 ---------------------------------------------------------------------------

Topologies differ in bond orders
Writing corrected topology to xtbtopo.mol

molecular dipole:
                 x           y           z       tot (Debye)
 q only:       -0.537       0.289      -1.059
   full:       -0.322       0.930      -0.835       3.281
molecular quadrupole (traceless):
                xx          xy          yy          xz          yz          zz
 q only:      -73.777     -93.806      42.917     160.071     116.368      30.860
  q+dip:      -66.536     -73.726      75.515     197.212     124.919      -8.979
   full:      -58.306     -81.426      77.317     195.254     116.914     -19.011


           -------------------------------------------------
          | TOTAL ENERGY             -342.640849278860 Eh   |
          | GRADIENT NORM               0.020480420384 Eh/α |
          | HOMO-LUMO GAP               0.748235829912 eV   |
           -------------------------------------------------

------------------------------------------------------------------------
 * finished run on 2022/02/01 at 16:25:27.194     
------------------------------------------------------------------------
 total:
 * wall-time:     0 d,  0 h,  0 min,  0.989 sec
 *  cpu-time:     0 d,  0 h,  0 min,  7.807 sec
 * ratio c/w:     7.890 speedup
 SCF:
 * wall-time:     0 d,  0 h,  0 min,  0.883 sec
 *  cpu-time:     0 d,  0 h,  0 min,  7.047 sec
 * ratio c/w:     7.977 speedup

