      -----------------------------------------------------------      
     |                   =====================                   |     
     |                           x T B                           |     
     |                   =====================                   |     
     |                         S. Grimme                         |     
     |          Mulliken Center for Theoretical Chemistry        |     
     |                    University of Bonn                     |     
      -----------------------------------------------------------      

   * xtb version 6.4.1 (unknown) compiled by 'oda6@login1.crc.pitt.edu' on 2021-06-25

   xtb is free software: you can redistribute it and/or modify it under
   the terms of the GNU Lesser General Public License as published by
   the Free Software Foundation, either version 3 of the License, or
   (at your option) any later version.
   
   xtb is distributed in the hope that it will be useful,
   but WITHOUT ANY WARRANTY; without even the implied warranty of
   MERCHANTABILITY or FITNESS FOR A PARTICULAR PURPOSE.  See the
   GNU Lesser General Public License for more details.
   
   Cite this work as:
   * C. Bannwarth, E. Caldeweyher, S. Ehlert, A. Hansen, P. Pracht,
     J. Seibert, S. Spicher, S. Grimme, WIREs Comput. Mol. Sci., 2020, 11,
     e01493. DOI: 10.1002/wcms.1493
   
   for GFN2-xTB:
   * C. Bannwarth, S. Ehlert and S. Grimme., J. Chem. Theory Comput., 2019,
     15, 1652-1671. DOI: 10.1021/acs.jctc.8b01176
   for GFN1-xTB:
   * S. Grimme, C. Bannwarth, P. Shushkov, J. Chem. Theory Comput., 2017,
     13, 1989-2009. DOI: 10.1021/acs.jctc.7b00118
   for GFN0-xTB:
   * P. Pracht, E. Caldeweyher, S. Ehlert, S. Grimme, ChemRxiv, 2019, preprint.
     DOI: 10.26434/chemrxiv.8326202.v1
   for GFN-FF:
   * S. Spicher and S. Grimme, Angew. Chem. Int. Ed., 2020, 59, 15665-15673.
     DOI: 10.1002/anie.202004239
   
   for DFT-D4:
   * E. Caldeweyher, C. Bannwarth and S. Grimme, J. Chem. Phys., 2017,
     147, 034112. DOI: 10.1063/1.4993215
   * E. Caldeweyher, S. Ehlert, A. Hansen, H. Neugebauer, S. Spicher,
     C. Bannwarth and S. Grimme, J. Chem. Phys., 2019, 150, 154122.
     DOI: 10.1063/1.5090222
   * E. Caldeweyher, J.-M. Mewes, S. Ehlert and S. Grimme, Phys. Chem. Chem. Phys.
     2020, 22, 8499-8512. DOI: 10.1039/D0CP00502A
   
   for sTDA-xTB:
   * S. Grimme and C. Bannwarth, J. Chem. Phys., 2016, 145, 054103.
     DOI: 10.1063/1.4959605
   
   in the mass-spec context:
   * V. Asgeirsson, C. Bauer and S. Grimme, Chem. Sci., 2017, 8, 4879.
     DOI: 10.1039/c7sc00601b
   * J. Koopman and S. Grimme, ACS Omega 2019, 4, 12, 15120-15133.
     DOI: 10.1021/acsomega.9b02011
   
   for metadynamics refer to:
   * S. Grimme, J. Chem. Theory Comput., 2019, 155, 2847-2862
     DOI: 10.1021/acs.jctc.9b00143
   
   for SPH calculations refer to:
   * S. Spicher and S. Grimme, J. Chem. Theory Comput., 2021, 17, 1701-1714
     DOI: 10.1021/acs.jctc.0c01306
   
   with help from (in alphabetical order)
   P. Atkinson, C. Bannwarth, F. Bohle, G. Brandenburg, E. Caldeweyher
   M. Checinski, S. Dohm, S. Ehlert, S. Ehrlich, I. Gerasimov, J. Koopman
   C. Lavigne, S. Lehtola, F. März, M. Müller, F. Musil, H. Neugebauer
   J. Pisarek, C. Plett, P. Pracht, J. Seibert, P. Shushkov, S. Spicher
   M. Stahn, M. Steiner, T. Strunk, J. Stückrath, T. Rose, and J. Unsleber
   
 * started run on 2022/01/27 at 09:52:01.002     

           -------------------------------------------------
          |                Calculation Setup                |
           -------------------------------------------------

          program call               : /ihome/ghutchison/oda6/xtb/xtb-641/bin/xtb ../../FF_optimized/0_78_49.mol -opt
          hostname                   : smp-n24
          coordinate file            : ../../FF_optimized/0_78_49.mol
          omp threads                :                     8
          number of atoms            :                   106
          number of electrons        :                   354
          charge                     :                     0
          spin                       :                   0.0
          first test random number   :      0.38331807757823

   ID    Z sym.   atoms
    1    6 C      1-3, 5-7, 9, 11-15, 17, 19-24, 26, 27, 29, 30, 32-35,
                  37-39, 41-45, 47, 48, 50-53, 55-59, 61-64, 66-70, 72
    2    8 O      4, 60
    3    9 F      8, 10
    4    7 N      16, 18, 31, 36, 49, 54, 71, 73
    5   16 S      25, 28, 40, 46
    6   35 Br     65
    7    1 H      74-106
########################################################################
[WARNING] Please study the warnings concerning your input carefully
-1- prog_main_parseArguments: the use of '-opt' is discouraged, please use '--opt' next time
########################################################################

           -------------------------------------------------
          |                 G F N 2 - x T B                 |
           -------------------------------------------------

        Reference                      10.1021/acs.jctc.8b01176
      * Hamiltonian:
        H0-scaling (s, p, d)           1.850000    2.230000    2.230000
        zeta-weighting                 0.500000
      * Dispersion:
        s8                             2.700000
        a1                             0.520000
        a2                             5.000000
        s9                             5.000000
      * Repulsion:
        kExp                           1.500000    1.000000
        rExp                           1.000000
      * Coulomb:
        alpha                          2.000000
        third order                    shell-resolved
        anisotropic                    true
        a3                             3.000000
        a5                             4.000000
        cn-shift                       1.200000
        cn-exp                         4.000000
        max-rad                        5.000000


          ...................................................
          :                      SETUP                      :
          :.................................................:
          :  # basis functions                 355          :
          :  # atomic orbitals                 350          :
          :  # shells                          184          :
          :  # electrons                       354          :
          :  max. iterations                   250          :
          :  Hamiltonian                  GFN2-xTB          :
          :  restarted?                      false          :
          :  GBSA solvation                  false          :
          :  PC potential                    false          :
          :  electronic temp.          300.0000000     K    :
          :  accuracy                    1.0000000          :
          :  -> integral cutoff          0.2500000E+02      :
          :  -> integral neglect         0.1000000E-07      :
          :  -> SCF convergence          0.1000000E-05 Eh   :
          :  -> wf. convergence          0.1000000E-03 e    :
          :  Broyden damping             0.4000000          :
          ...................................................

 iter      E             dE          RMSdq      gap      omega  full diag
   1   -197.1341556 -0.197134E+03  0.507E+00    1.41       0.0  T
   2   -197.2938330 -0.159677E+00  0.321E+00    0.63       1.0  T
   3   -197.1718521  0.121981E+00  0.213E+00    0.57       1.0  T
   4   -197.4457004 -0.273848E+00  0.826E-01    0.51       1.0  T
   5   -197.4983090 -0.526086E-01  0.250E-01    0.15       1.0  T
   6   -197.5010622 -0.275326E-02  0.190E-01    0.68       1.0  T
   7   -197.5050758 -0.401358E-02  0.853E-02    0.48       1.0  T
   8   -197.5054965 -0.420700E-03  0.492E-02    0.38       1.0  T
   9   -197.5055392 -0.427096E-04  0.394E-02    0.29       1.0  T
  10   -197.5055774 -0.382052E-04  0.278E-02    0.31       1.0  T
  11   -197.5055910 -0.135453E-04  0.184E-02    0.30       1.0  T
  12   -197.5056002 -0.921563E-05  0.125E-02    0.30       1.0  T
  13   -197.5056033 -0.313836E-05  0.720E-03    0.31       1.3  T
  14   -197.5056059 -0.258136E-05  0.312E-03    0.31       3.1  T
  15   -197.5056063 -0.396664E-06  0.138E-03    0.31       7.0  T
  16   -197.5056064 -0.658713E-07  0.704E-04    0.31      13.8  T
  17   -197.5056064 -0.136222E-07  0.362E-04    0.31      26.8  T

   *** convergence criteria satisfied after 17 iterations ***

         #    Occupation            Energy/Eh            Energy/eV
      -------------------------------------------------------------
         1        2.0000           -0.8542352             -23.2449
       ...           ...                  ...                  ...
       171        2.0000           -0.4075993             -11.0913
       172        2.0000           -0.4045441             -11.0082
       173        2.0000           -0.3965891             -10.7917
       174        2.0000           -0.3868727             -10.5273
       175        2.0000           -0.3784898             -10.2992
       176        2.0000           -0.3744242             -10.1886
       177        1.9948           -0.3558756              -9.6839 (HOMO)
       178        0.0051           -0.3445615              -9.3760 (LUMO)
       179        0.0001           -0.3409342              -9.2773
       180        0.0000           -0.3386537              -9.2152
       181                         -0.3315179              -9.0211
       182                         -0.2952914              -8.0353
       ...                                ...                  ...
       350                          1.0582093              28.7953
      -------------------------------------------------------------
                  HL-Gap            0.0113140 Eh            0.3079 eV
             Fermi-level           -0.3502298 Eh           -9.5302 eV

 SCC (total)                   0 d,  0 h,  0 min,  0.282 sec
 SCC setup                      ...        0 min,  0.001 sec (  0.227%)
 Dispersion                     ...        0 min,  0.004 sec (  1.336%)
 classical contributions        ...        0 min,  0.000 sec (  0.043%)
 integral evaluation            ...        0 min,  0.012 sec (  4.187%)
 iterations                     ...        0 min,  0.229 sec ( 81.239%)
 molecular gradient             ...        0 min,  0.036 sec ( 12.613%)
 printout                       ...        0 min,  0.001 sec (  0.325%)

         :::::::::::::::::::::::::::::::::::::::::::::::::::::
         ::                     SUMMARY                     ::
         :::::::::::::::::::::::::::::::::::::::::::::::::::::
         :: total energy            -194.635165728635 Eh    ::
         :: gradient norm              0.270569943475 Eh/a0 ::
         :: HOMO-LUMO gap              0.307870142985 eV    ::
         ::.................................................::
         :: SCC energy              -197.505606370814 Eh    ::
         :: -> isotropic ES            0.138210897206 Eh    ::
         :: -> anisotropic ES          0.013196138251 Eh    ::
         :: -> anisotropic XC          0.129360370426 Eh    ::
         :: -> dispersion             -0.167253189181 Eh    ::
         :: repulsion energy           2.870437893349 Eh    ::
         :: add. restraining           0.000000000000 Eh    ::
         :: total charge              -0.000000000000 e     ::
         :::::::::::::::::::::::::::::::::::::::::::::::::::::

      ----------------------------------------------------------- 
     |                   =====================                   |
     |                        A N C O P T                        |
     |                   =====================                   |
     |               Approximate Normal Coordinate               |
     |                Rational Function Optimizer                |
      ----------------------------------------------------------- 

          ...................................................
          :                      SETUP                      :
          :.................................................:
          :   optimization level            normal          :
          :   max. optcycles                   318          :
          :   ANC micro-cycles                  20          :
          :   degrees of freedom               312          :
          :.................................................:
          :   RF solver                   davidson          :
          :   write xtbopt.log                true          :
          :   linear?                        false          :
          :   energy convergence         0.5000000E-05 Eh   :
          :   grad. convergence          0.1000000E-02 Eh/α :
          :   maximium RF displ.         1.0000000          :
          :   Hlow (freq-cutoff)         0.1000000E-01      :
          :   Hmax (freq-cutoff)         5.0000000          :
          :   S6 in model hess.         20.0000000          :
          ...................................................

generating ANC from model Hessian ...
Using Lindh-Hessian (1995)
 Shifting diagonal of input Hessian by   9.986571338439417E-003
 Lowest  eigenvalues of input Hessian
    0.000000    0.000000    0.000000    0.000000    0.000000    0.000000
    0.010000    0.010013    0.010033    0.010067    0.010096    0.010140
    0.010210    0.010273    0.010421    0.010563    0.010677    0.010763
 Highest eigenvalues
    2.276289    2.311736    2.475502    2.497215    2.528620    2.548122
 

........................................................................
.............................. CYCLE    1 ..............................
........................................................................
   1   -197.5056064 -0.197506E+03  0.198E-04    0.31       0.0  T
   2   -197.5056064 -0.207592E-09  0.160E-04    0.31      60.5  T
   3   -197.5056064 -0.141097E-08  0.102E-04    0.31      95.0  T
     SCC iter.                  ...        0 min,  0.042 sec
     gradient                   ...        0 min,  0.034 sec
 * total energy  :  -194.6351657 Eh     change       -0.4843145E-08 Eh
   gradient norm :     0.2705699 Eh/α   predicted     0.0000000E+00 (-100.00%)
   displ. norm   :     0.4538543 α      lambda       -0.8296576E-01
   maximum displ.:     0.1198333 α      in ANC's #69, #209, #100, ...

........................................................................
.............................. CYCLE    2 ..............................
........................................................................
   1   -197.6345314 -0.197635E+03  0.325E-01    0.26       0.0  T
   2   -197.6358755 -0.134412E-02  0.195E-01    0.47       1.0  T
   3   -197.6357261  0.149398E-03  0.111E-01    0.35       1.0  T
   4   -197.6363217 -0.595603E-03  0.412E-02    0.40       1.0  T
   5   -197.6364534 -0.131706E-03  0.183E-02    0.39       1.0  T
   6   -197.6364667 -0.132745E-04  0.104E-02    0.40       1.0  T
   7   -197.6364710 -0.431119E-05  0.600E-03    0.40       1.6  T
   8   -197.6364720 -0.103669E-05  0.440E-03    0.40       2.2  T
   9   -197.6364722 -0.175343E-06  0.300E-03    0.40       3.2  T
  10   -197.6364725 -0.300189E-06  0.171E-03    0.40       5.7  T
  11   -197.6364726 -0.132614E-06  0.924E-04    0.40      10.5  T
  12   -197.6364727 -0.116350E-07  0.474E-04    0.40      20.5  T
     SCC iter.                  ...        0 min,  0.156 sec
     gradient                   ...        0 min,  0.034 sec
 * total energy  :  -194.6938574 Eh     change       -0.5869163E-01 Eh
   gradient norm :     0.1164837 Eh/α   predicted    -0.5008921E-01 ( -14.66%)
   displ. norm   :     0.4639241 α      lambda       -0.3034174E-01
   maximum displ.:     0.1800652 α      in ANC's #69, #100, #41, ...

........................................................................
.............................. CYCLE    3 ..............................
........................................................................
   1   -197.6896526 -0.197690E+03  0.251E-01    0.34       0.0  T
   2   -197.6904104 -0.757859E-03  0.146E-01    0.50       1.0  T
   3   -197.6903554  0.550231E-04  0.102E-01    0.43       1.0  T
   4   -197.6908656 -0.510186E-03  0.371E-02    0.47       1.0  T
   5   -197.6909982 -0.132589E-03  0.180E-02    0.46       1.0  T
   6   -197.6910195 -0.213236E-04  0.796E-03    0.47       1.2  T
   7   -197.6910215 -0.198066E-05  0.510E-03    0.46       1.9  T
   8   -197.6910222 -0.687693E-06  0.356E-03    0.47       2.7  T
   9   -197.6910222 -0.628183E-07  0.245E-03    0.46       4.0  T
  10   -197.6910224 -0.193731E-06  0.134E-03    0.46       7.2  T
  11   -197.6910225 -0.899769E-07  0.666E-04    0.46      14.6  T
  12   -197.6910225 -0.231407E-08  0.400E-04    0.46      24.3  T
     SCC iter.                  ...        0 min,  0.156 sec
     gradient                   ...        0 min,  0.034 sec
 * total energy  :  -194.7127314 Eh     change       -0.1887405E-01 Eh
   gradient norm :     0.0347659 Eh/α   predicted    -0.1843604E-01 (  -2.32%)
   displ. norm   :     0.4685464 α      lambda       -0.7996319E-02
   maximum displ.:     0.1721343 α      in ANC's #69, #41, #35, ...

........................................................................
.............................. CYCLE    4 ..............................
........................................................................
   1   -197.6984206 -0.197698E+03  0.191E-01    0.46       0.0  T
   2   -197.6984738 -0.531802E-04  0.109E-01    0.52       1.0  T
   3   -197.6978222  0.651587E-03  0.874E-02    0.47       1.0  T
   4   -197.6986633 -0.841093E-03  0.196E-02    0.51       1.0  T
   5   -197.6987066 -0.432780E-04  0.721E-03    0.50       1.3  T
   6   -197.6987088 -0.219761E-05  0.369E-03    0.50       2.6  T
   7   -197.6987091 -0.367883E-06  0.219E-03    0.50       4.4  T
   8   -197.6987092 -0.583715E-07  0.157E-03    0.50       6.2  T
   9   -197.6987092 -0.396193E-07  0.115E-03    0.50       8.5  T
  10   -197.6987093 -0.444795E-07  0.593E-04    0.50      16.4  T
  11   -197.6987093 -0.790502E-08  0.356E-04    0.50      27.3  T
     SCC iter.                  ...        0 min,  0.149 sec
     gradient                   ...        0 min,  0.035 sec
 * total energy  :  -194.7176445 Eh     change       -0.4913090E-02 Eh
   gradient norm :     0.0264257 Eh/α   predicted    -0.4876022E-02 (  -0.75%)
   displ. norm   :     0.6369013 α      lambda       -0.7763825E-02
   maximum displ.:     0.2119986 α      in ANC's #10, #41, #69, ...

........................................................................
.............................. CYCLE    5 ..............................
........................................................................
   1   -197.7042888 -0.197704E+03  0.397E-01    0.50       0.0  T
   2   -197.7044632 -0.174429E-03  0.221E-01    0.55       1.0  T
   3   -197.7016799  0.278331E-02  0.147E-01    0.48       1.0  T
   4   -197.7048467 -0.316673E-02  0.241E-02    0.54       1.0  T
   5   -197.7049042 -0.575135E-04  0.970E-03    0.53       1.0  T
   6   -197.7049086 -0.442135E-05  0.393E-03    0.53       2.5  T
   7   -197.7049091 -0.510736E-06  0.166E-03    0.53       5.9  T
   8   -197.7049092 -0.519727E-07  0.116E-03    0.54       8.4  T
   9   -197.7049092 -0.323111E-07  0.830E-04    0.54      11.7  T
  10   -197.7049092 -0.181417E-07  0.519E-04    0.54      18.7  T
     SCC iter.                  ...        0 min,  0.132 sec
     gradient                   ...        0 min,  0.034 sec
 * total energy  :  -194.7193076 Eh     change       -0.1663077E-02 Eh
   gradient norm :     0.0343460 Eh/α   predicted    -0.5456615E-02 ( 228.10%)
   displ. norm   :     0.3155984 α      lambda       -0.4919799E-02
   maximum displ.:     0.0914169 α      in ANC's #31, #10, #27, ...

........................................................................
.............................. CYCLE    6 ..............................
........................................................................
   1   -197.7081151 -0.197708E+03  0.181E-01    0.54       0.0  T
   2   -197.7081588 -0.436870E-04  0.102E-01    0.55       1.0  T
   3   -197.7078545  0.304287E-03  0.498E-02    0.52       1.0  T
   4   -197.7081970 -0.342420E-03  0.805E-03    0.54       1.2  T
   5   -197.7082022 -0.520555E-05  0.421E-03    0.54       2.3  T
   6   -197.7082031 -0.975886E-06  0.166E-03    0.54       5.8  T
   7   -197.7082033 -0.122810E-06  0.755E-04    0.54      12.9  T
   8   -197.7082033 -0.300554E-07  0.456E-04    0.54      21.3  T
     SCC iter.                  ...        0 min,  0.107 sec
     gradient                   ...        0 min,  0.034 sec
 * total energy  :  -194.7223940 Eh     change       -0.3086459E-02 Eh
   gradient norm :     0.0195879 Eh/α   predicted    -0.2704935E-02 ( -12.36%)
   displ. norm   :     0.4760328 α      lambda       -0.3813069E-02
   maximum displ.:     0.1554712 α      in ANC's #35, #29, #16, ...

........................................................................
.............................. CYCLE    7 ..............................
........................................................................
   1   -197.7019259 -0.197702E+03  0.239E-01    0.54       0.0  T
   2   -197.7019933 -0.673405E-04  0.135E-01    0.54       1.0  T
   3   -197.7014344  0.558849E-03  0.691E-02    0.52       1.0  T
   4   -197.7020570 -0.622617E-03  0.113E-02    0.54       1.0  T
   5   -197.7020679 -0.109075E-04  0.598E-03    0.54       1.6  T
   6   -197.7020704 -0.250409E-05  0.265E-03    0.54       3.7  T
   7   -197.7020708 -0.319540E-06  0.108E-03    0.54       9.0  T
   8   -197.7020708 -0.694031E-07  0.577E-04    0.54      16.8  T
   9   -197.7020708 -0.106342E-07  0.353E-04    0.54      27.5  T
     SCC iter.                  ...        0 min,  0.118 sec
     gradient                   ...        0 min,  0.034 sec
 * total energy  :  -194.7227560 Eh     change       -0.3619952E-03 Eh
   gradient norm :     0.0312810 Eh/α   predicted    -0.2338566E-02 ( 546.02%)
   displ. norm   :     0.3539301 α      lambda       -0.4015219E-02
   maximum displ.:     0.1322390 α      in ANC's #10, #8, #16, ...

........................................................................
.............................. CYCLE    8 ..............................
........................................................................
   1   -197.6987054 -0.197699E+03  0.250E-01    0.53       0.0  T
   2   -197.6987798 -0.743361E-04  0.139E-01    0.55       1.0  T
   3   -197.6982854  0.494356E-03  0.592E-02    0.52       1.0  T
   4   -197.6988433 -0.557895E-03  0.830E-03    0.55       1.2  T
   5   -197.6988467 -0.335681E-05  0.489E-03    0.54       2.0  T
   6   -197.6988480 -0.134005E-05  0.160E-03    0.55       6.1  T
   7   -197.6988481 -0.735502E-07  0.718E-04    0.55      13.5  T
   8   -197.6988481 -0.276948E-07  0.377E-04    0.55      25.7  T
     SCC iter.                  ...        0 min,  0.106 sec
     gradient                   ...        0 min,  0.034 sec
 * total energy  :  -194.7251110 Eh     change       -0.2354966E-02 Eh
   gradient norm :     0.0188887 Eh/α   predicted    -0.2259098E-02 (  -4.07%)
   displ. norm   :     0.4291540 α      lambda       -0.2101322E-02
   maximum displ.:     0.1589186 α      in ANC's #16, #31, #10, ...

........................................................................
.............................. CYCLE    9 ..............................
........................................................................
   1   -197.6899745 -0.197690E+03  0.236E-01    0.54       0.0  T
   2   -197.6900511 -0.766177E-04  0.131E-01    0.56       1.0  T
   3   -197.6892492  0.801916E-03  0.747E-02    0.53       1.0  T
   4   -197.6901457 -0.896442E-03  0.946E-03    0.56       1.0  T
   5   -197.6901496 -0.394942E-05  0.557E-03    0.56       1.7  T
   6   -197.6901514 -0.173826E-05  0.199E-03    0.56       4.9  T
   7   -197.6901515 -0.120214E-06  0.887E-04    0.56      11.0  T
   8   -197.6901515 -0.537876E-07  0.382E-04    0.56      25.4  T
     SCC iter.                  ...        0 min,  0.105 sec
     gradient                   ...        0 min,  0.034 sec
 * total energy  :  -194.7256992 Eh     change       -0.5881830E-03 Eh
   gradient norm :     0.0504721 Eh/α   predicted    -0.1244166E-02 ( 111.53%)
   displ. norm   :     0.3481842 α      lambda       -0.2570119E-02
   maximum displ.:     0.1240650 α      in ANC's #16, #4, #35, ...

........................................................................
.............................. CYCLE   10 ..............................
........................................................................
   1   -197.7050894 -0.197705E+03  0.127E-01    0.56       0.0  T
   2   -197.7051195 -0.301004E-04  0.716E-02    0.57       1.0  T
   3   -197.7049633  0.156161E-03  0.387E-02    0.56       1.0  T
   4   -197.7051428 -0.179490E-03  0.573E-03    0.57       1.7  T
   5   -197.7051444 -0.160758E-05  0.379E-03    0.56       2.6  T
   6   -197.7051456 -0.122303E-05  0.139E-03    0.57       7.0  T
   7   -197.7051457 -0.733732E-07  0.773E-04    0.56      12.6  T
   8   -197.7051457 -0.390606E-07  0.391E-04    0.57      24.9  T
     SCC iter.                  ...        0 min,  0.106 sec
     gradient                   ...        0 min,  0.034 sec
 * total energy  :  -194.7272031 Eh     change       -0.1503876E-02 Eh
   gradient norm :     0.0175625 Eh/α   predicted    -0.1440851E-02 (  -4.19%)
   displ. norm   :     0.5112831 α      lambda       -0.1455844E-02
   maximum displ.:     0.2249334 α      in ANC's #16, #4, #11, ...

........................................................................
.............................. CYCLE   11 ..............................
........................................................................
   1   -197.7013897 -0.197701E+03  0.135E-01    0.56       0.0  T
   2   -197.7014089 -0.191878E-04  0.776E-02    0.57       1.0  T
   3   -197.7010957  0.313223E-03  0.473E-02    0.55       1.0  T
   4   -197.7014410 -0.345336E-03  0.711E-03    0.57       1.4  T
   5   -197.7014441 -0.306623E-05  0.393E-03    0.57       2.5  T
   6   -197.7014451 -0.980259E-06  0.164E-03    0.57       5.9  T
   7   -197.7014452 -0.150424E-06  0.654E-04    0.57      14.9  T
   8   -197.7014453 -0.162976E-07  0.384E-04    0.57      25.3  T
     SCC iter.                  ...        0 min,  0.107 sec
     gradient                   ...        0 min,  0.034 sec
 * total energy  :  -194.7280446 Eh     change       -0.8415711E-03 Eh
   gradient norm :     0.0236467 Eh/α   predicted    -0.9182127E-03 (   9.11%)
   displ. norm   :     0.6302162 α      lambda       -0.1943051E-02
   maximum displ.:     0.2922027 α      in ANC's #16, #4, #10, ...

........................................................................
.............................. CYCLE   12 ..............................
........................................................................
   1   -197.6948545 -0.197695E+03  0.232E-01    0.57       0.0  T
   2   -197.6949207 -0.661573E-04  0.131E-01    0.57       1.0  T
   3   -197.6944632  0.457478E-03  0.603E-02    0.57       1.0  T
   4   -197.6949740 -0.510765E-03  0.101E-02    0.58       1.0  T
   5   -197.6949802 -0.619636E-05  0.556E-03    0.57       1.7  T
   6   -197.6949822 -0.199800E-05  0.238E-03    0.57       4.1  T
   7   -197.6949825 -0.387214E-06  0.967E-04    0.57      10.0  T
   8   -197.6949826 -0.478088E-07  0.512E-04    0.57      19.0  T
     SCC iter.                  ...        0 min,  0.108 sec
     gradient                   ...        0 min,  0.034 sec
 * total energy  :  -194.7284626 Eh     change       -0.4180013E-03 Eh
   gradient norm :     0.0374913 Eh/α   predicted    -0.1357389E-02 ( 224.73%)
   displ. norm   :     0.3027625 α      lambda       -0.2138711E-02
   maximum displ.:     0.1302765 α      in ANC's #16, #4, #11, ...

........................................................................
.............................. CYCLE   13 ..............................
........................................................................
   1   -197.7033920 -0.197703E+03  0.130E-01    0.57       0.0  T
   2   -197.7034307 -0.386214E-04  0.729E-02    0.57       1.0  T
   3   -197.7033676  0.630620E-04  0.278E-02    0.58       1.0  T
   4   -197.7034435 -0.759178E-04  0.682E-03    0.57       1.4  T
   5   -197.7034471 -0.357298E-05  0.326E-03    0.57       3.0  T
   6   -197.7034479 -0.849147E-06  0.165E-03    0.57       5.9  T
   7   -197.7034482 -0.217762E-06  0.601E-04    0.57      16.2  T
   8   -197.7034482 -0.112360E-07  0.337E-04    0.57      28.8  T
     SCC iter.                  ...        0 min,  0.108 sec
     gradient                   ...        0 min,  0.034 sec
 * total energy  :  -194.7295077 Eh     change       -0.1045099E-02 Eh
   gradient norm :     0.0237726 Eh/α   predicted    -0.1167380E-02 (  11.70%)
   displ. norm   :     0.3594287 α      lambda       -0.1611155E-02
   maximum displ.:     0.1757090 α      in ANC's #16, #4, #10, ...

........................................................................
.............................. CYCLE   14 ..............................
........................................................................
   1   -197.7188274 -0.197719E+03  0.122E-01    0.57       0.0  T
   2   -197.7188558 -0.283672E-04  0.701E-02    0.57       1.0  T
   3   -197.7187286  0.127202E-03  0.414E-02    0.58       1.0  T
   4   -197.7188806 -0.151955E-03  0.707E-03    0.57       1.4  T
   5   -197.7188839 -0.335142E-05  0.380E-03    0.57       2.6  T
   6   -197.7188848 -0.889813E-06  0.197E-03    0.57       4.9  T
   7   -197.7188850 -0.190485E-06  0.962E-04    0.57      10.1  T
   8   -197.7188850 -0.335886E-07  0.648E-04    0.57      15.0  T
     SCC iter.                  ...        0 min,  0.107 sec
     gradient                   ...        0 min,  0.034 sec
 * total energy  :  -194.7298415 Eh     change       -0.3337832E-03 Eh
   gradient norm :     0.0415289 Eh/α   predicted    -0.9096510E-03 ( 172.53%)
   displ. norm   :     0.4130741 α      lambda       -0.1522425E-02
   maximum displ.:     0.1985570 α      in ANC's #16, #4, #1, ...

........................................................................
.............................. CYCLE   15 ..............................
........................................................................
   1   -197.7018751 -0.197702E+03  0.154E-01    0.57       0.0  T
   2   -197.7018997 -0.245877E-04  0.880E-02    0.57       1.0  T
   3   -197.7016082  0.291502E-03  0.512E-02    0.56       1.0  T
   4   -197.7019353 -0.327071E-03  0.699E-03    0.57       1.4  T
   5   -197.7019375 -0.226329E-05  0.430E-03    0.57       2.3  T
   6   -197.7019388 -0.126524E-05  0.147E-03    0.57       6.6  T
   7   -197.7019389 -0.100690E-06  0.773E-04    0.57      12.6  T
   8   -197.7019390 -0.454900E-07  0.367E-04    0.57      26.5  T
     SCC iter.                  ...        0 min,  0.107 sec
     gradient                   ...        0 min,  0.034 sec
 * total energy  :  -194.7306192 Eh     change       -0.7776591E-03 Eh
   gradient norm :     0.0235551 Eh/α   predicted    -0.8910986E-03 (  14.59%)
   displ. norm   :     0.3949527 α      lambda       -0.1595541E-02
   maximum displ.:     0.1900958 α      in ANC's #16, #4, #11, ...

........................................................................
.............................. CYCLE   16 ..............................
........................................................................
   1   -197.7068588 -0.197707E+03  0.114E-01    0.58       0.0  T
   2   -197.7068812 -0.224003E-04  0.650E-02    0.56       1.0  T
   3   -197.7067410  0.140110E-03  0.375E-02    0.57       1.0  T
   4   -197.7069028 -0.161733E-03  0.640E-03    0.56       1.5  T
   5   -197.7069053 -0.249031E-05  0.374E-03    0.57       2.6  T
   6   -197.7069063 -0.108126E-05  0.161E-03    0.56       6.0  T
   7   -197.7069065 -0.105156E-06  0.947E-04    0.56      10.3  T
   8   -197.7069065 -0.391551E-07  0.598E-04    0.56      16.2  T
     SCC iter.                  ...        0 min,  0.107 sec
     gradient                   ...        0 min,  0.034 sec
 * total energy  :  -194.7310834 Eh     change       -0.4642439E-03 Eh
   gradient norm :     0.0310112 Eh/α   predicted    -0.9222135E-03 (  98.65%)
   displ. norm   :     0.3815365 α      lambda       -0.1152685E-02
   maximum displ.:     0.1866194 α      in ANC's #4, #16, #11, ...

........................................................................
.............................. CYCLE   17 ..............................
........................................................................
   1   -197.7112716 -0.197711E+03  0.770E-02    0.56       0.0  T
   2   -197.7112823 -0.106945E-04  0.440E-02    0.56       1.0  T
   3   -197.7112311  0.511809E-04  0.244E-02    0.57       1.0  T
   4   -197.7112882 -0.571407E-04  0.568E-03    0.56       1.7  T
   5   -197.7112911 -0.289374E-05  0.250E-03    0.56       3.9  T
   6   -197.7112914 -0.292910E-06  0.146E-03    0.56       6.6  T
   7   -197.7112916 -0.155611E-06  0.758E-04    0.56      12.8  T
   8   -197.7112916 -0.803777E-08  0.559E-04    0.56      17.4  T
     SCC iter.                  ...        0 min,  0.107 sec
     gradient                   ...        0 min,  0.034 sec
 * total energy  :  -194.7319571 Eh     change       -0.8737234E-03 Eh
   gradient norm :     0.0091582 Eh/α   predicted    -0.6602447E-03 ( -24.43%)
   displ. norm   :     0.6640409 α      lambda       -0.1074803E-02
   maximum displ.:     0.3442063 α      in ANC's #4, #16, #11, ...

........................................................................
.............................. CYCLE   18 ..............................
........................................................................
   1   -197.7091935 -0.197709E+03  0.138E-01    0.56       0.0  T
   2   -197.7092207 -0.271768E-04  0.778E-02    0.55       1.0  T
   3   -197.7091285  0.922311E-04  0.292E-02    0.57       1.0  T
   4   -197.7092301 -0.101601E-03  0.856E-03    0.55       1.1  T
   5   -197.7092366 -0.655219E-05  0.409E-03    0.56       2.4  T
   6   -197.7092374 -0.805253E-06  0.222E-03    0.56       4.4  T
   7   -197.7092378 -0.364732E-06  0.115E-03    0.56       8.5  T
   8   -197.7092378 -0.109575E-07  0.859E-04    0.56      11.3  T
   9   -197.7092378 -0.118824E-07  0.478E-04    0.56      20.3  T
     SCC iter.                  ...        0 min,  0.120 sec
     gradient                   ...        0 min,  0.034 sec
 * total energy  :  -194.7327775 Eh     change       -0.8203486E-03 Eh
   gradient norm :     0.0136432 Eh/α   predicted    -0.7743691E-03 (  -5.60%)
   displ. norm   :     0.6837291 α      lambda       -0.1078875E-02
   maximum displ.:     0.3900653 α      in ANC's #4, #16, #9, ...

........................................................................
.............................. CYCLE   19 ..............................
........................................................................
   1   -197.7215587 -0.197722E+03  0.116E-01    0.56       0.0  T
   2   -197.7215643 -0.560075E-05  0.676E-02    0.54       1.0  T
   3   -197.7212771  0.287166E-03  0.494E-02    0.56       1.0  T
   4   -197.7216004 -0.323259E-03  0.835E-03    0.55       1.2  T
   5   -197.7216058 -0.548009E-05  0.432E-03    0.55       2.2  T
   6   -197.7216067 -0.830765E-06  0.217E-03    0.55       4.5  T
   7   -197.7216069 -0.202599E-06  0.127E-03    0.55       7.6  T
   8   -197.7216069 -0.138006E-07  0.909E-04    0.55      10.7  T
   9   -197.7216069 -0.810692E-08  0.465E-04    0.55      20.9  T
     SCC iter.                  ...        0 min,  0.119 sec
     gradient                   ...        0 min,  0.034 sec
 * total energy  :  -194.7335122 Eh     change       -0.7346884E-03 Eh
   gradient norm :     0.0184133 Eh/α   predicted    -0.7916187E-03 (   7.75%)
   displ. norm   :     0.7211694 α      lambda       -0.1175809E-02
   maximum displ.:     0.4020001 α      in ANC's #4, #16, #9, ...

........................................................................
.............................. CYCLE   20 ..............................
........................................................................
   1   -197.7107125 -0.197711E+03  0.140E-01    0.55       0.0  T
   2   -197.7107449 -0.324840E-04  0.794E-02    0.54       1.0  T
   3   -197.7106701  0.748099E-04  0.316E-02    0.55       1.0  T
   4   -197.7107618 -0.916297E-04  0.681E-03    0.54       1.4  T
   5   -197.7107628 -0.996923E-06  0.406E-03    0.55       2.4  T
   6   -197.7107635 -0.758337E-06  0.225E-03    0.54       4.3  T
   7   -197.7107638 -0.326963E-06  0.134E-03    0.55       7.3  T
   8   -197.7107639 -0.474327E-07  0.892E-04    0.54      10.9  T
   9   -197.7107639 -0.367157E-08  0.567E-04    0.54      17.1  T
     SCC iter.                  ...        0 min,  0.115 sec
     gradient                   ...        0 min,  0.034 sec
 * total energy  :  -194.7343603 Eh     change       -0.8481707E-03 Eh
   gradient norm :     0.0184778 Eh/α   predicted    -0.8936675E-03 (   5.36%)
   displ. norm   :     0.5722477 α      lambda       -0.1221808E-02
   maximum displ.:     0.3364822 α      in ANC's #4, #9, #16, ...
 * RMSD in coord.:     0.6949461 α      energy gain  -0.9919461E-01 Eh

generating ANC from model Hessian ...
Using Lindh-Hessian (1995)
 Shifting diagonal of input Hessian by   1.026128356961523E-002
 Lowest  eigenvalues of input Hessian
    0.010000    0.000000    0.000000    0.000000    0.000000    0.000000
    0.000000    0.010269    0.010282    0.010315    0.010351    0.010377
    0.010448    0.010537    0.010772    0.010901    0.010981    0.011030
 Highest eigenvalues
    2.278862    2.298982    2.574720    2.601198    2.637228    2.652114
 

........................................................................
.............................. CYCLE   21 ..............................
........................................................................
   1   -197.7105000 -0.197711E+03  0.112E-01    0.54       0.0  T
   2   -197.7105437 -0.437199E-04  0.662E-02    0.54       1.0  T
   3   -197.7103646  0.179142E-03  0.406E-02    0.54       1.0  T
   4   -197.7105753 -0.210703E-03  0.928E-03    0.54       1.0  T
   5   -197.7105825 -0.722940E-05  0.362E-03    0.54       2.7  T
   6   -197.7105827 -0.198573E-06  0.232E-03    0.54       4.2  T
   7   -197.7105830 -0.232978E-06  0.138E-03    0.54       7.0  T
   8   -197.7105830 -0.593060E-07  0.985E-04    0.54       9.9  T
   9   -197.7105830 -0.122024E-07  0.674E-04    0.54      14.4  T
     SCC iter.                  ...        0 min,  0.116 sec
     gradient                   ...        0 min,  0.035 sec
 * total energy  :  -194.7349360 Eh     change       -0.5756963E-03 Eh
   gradient norm :     0.0268393 Eh/α   predicted     0.0000000E+00 (-100.00%)
   displ. norm   :     0.1376393 α      lambda       -0.8792285E-03
   maximum displ.:     0.0715836 α      in ANC's #5, #1, #2, ...

........................................................................
.............................. CYCLE   22 ..............................
........................................................................
   1   -197.7176154 -0.197718E+03  0.549E-02    0.54       0.0  T
   2   -197.7176235 -0.809155E-05  0.329E-02    0.55       1.0  T
   3   -197.7175764  0.470422E-04  0.220E-02    0.54       1.0  T
   4   -197.7176330 -0.565661E-04  0.382E-03    0.55       2.5  T
   5   -197.7176341 -0.108044E-05  0.169E-03    0.55       5.7  T
   6   -197.7176342 -0.103625E-06  0.921E-04    0.55      10.5  T
   7   -197.7176342 -0.410207E-07  0.432E-04    0.55      22.5  T
     SCC iter.                  ...        0 min,  0.090 sec
     gradient                   ...        0 min,  0.034 sec
 * total energy  :  -194.7354527 Eh     change       -0.5167033E-03 Eh
   gradient norm :     0.0083781 Eh/α   predicted    -0.4480006E-03 ( -13.30%)
   displ. norm   :     0.2231089 α      lambda       -0.4961750E-03
   maximum displ.:     0.1166289 α      in ANC's #5, #1, #10, ...

........................................................................
.............................. CYCLE   23 ..............................
........................................................................
   1   -197.7190235 -0.197719E+03  0.939E-02    0.54       0.0  T
   2   -197.7190372 -0.136949E-04  0.526E-02    0.55       1.0  T
   3   -197.7189766  0.605989E-04  0.231E-02    0.55       1.0  T
   4   -197.7190467 -0.701770E-04  0.384E-03    0.55       2.5  T
   5   -197.7190476 -0.904458E-06  0.197E-03    0.55       4.9  T
   6   -197.7190478 -0.119126E-06  0.981E-04    0.55       9.9  T
   7   -197.7190478 -0.658664E-07  0.450E-04    0.55      21.6  T
     SCC iter.                  ...        0 min,  0.090 sec
     gradient                   ...        0 min,  0.034 sec
 * total energy  :  -194.7355753 Eh     change       -0.1225872E-03 Eh
   gradient norm :     0.0152010 Eh/α   predicted    -0.2604386E-03 ( 112.45%)
   displ. norm   :     0.2764699 α      lambda       -0.7188556E-03
   maximum displ.:     0.1461159 α      in ANC's #5, #1, #2, ...

........................................................................
.............................. CYCLE   24 ..............................
........................................................................
   1   -197.7189762 -0.197719E+03  0.874E-02    0.55       0.0  T
   2   -197.7189871 -0.108917E-04  0.487E-02    0.56       1.0  T
   3   -197.7189381  0.489899E-04  0.197E-02    0.55       1.0  T
   4   -197.7189944 -0.562976E-04  0.370E-03    0.55       2.6  T
   5   -197.7189951 -0.729686E-06  0.209E-03    0.55       4.6  T
   6   -197.7189953 -0.165552E-06  0.940E-04    0.55      10.3  T
   7   -197.7189953 -0.365951E-07  0.550E-04    0.55      17.7  T
     SCC iter.                  ...        0 min,  0.090 sec
     gradient                   ...        0 min,  0.034 sec
 * total energy  :  -194.7359806 Eh     change       -0.4052783E-03 Eh
   gradient norm :     0.0132993 Eh/α   predicted    -0.3869021E-03 (  -4.53%)
   displ. norm   :     0.3439967 α      lambda       -0.7420701E-03
   maximum displ.:     0.1794392 α      in ANC's #5, #1, #12, ...

........................................................................
.............................. CYCLE   25 ..............................
........................................................................
   1   -197.7135659 -0.197714E+03  0.121E-01    0.55       0.0  T
   2   -197.7135881 -0.221885E-04  0.672E-02    0.56       1.0  T
   3   -197.7135295  0.585662E-04  0.237E-02    0.55       1.0  T
   4   -197.7136010 -0.714316E-04  0.423E-03    0.56       2.3  T
   5   -197.7136017 -0.694790E-06  0.265E-03    0.56       3.7  T
   6   -197.7136020 -0.358501E-06  0.124E-03    0.56       7.9  T
   7   -197.7136021 -0.713566E-07  0.753E-04    0.56      12.9  T
   8   -197.7136021 -0.159967E-07  0.545E-04    0.56      17.8  T
     SCC iter.                  ...        0 min,  0.103 sec
     gradient                   ...        0 min,  0.034 sec
 * total energy  :  -194.7363411 Eh     change       -0.3604947E-03 Eh
   gradient norm :     0.0162693 Eh/α   predicted    -0.4149418E-03 (  15.10%)
   displ. norm   :     0.3628175 α      lambda       -0.6734887E-03
   maximum displ.:     0.1985123 α      in ANC's #5, #1, #2, ...

........................................................................
.............................. CYCLE   26 ..............................
........................................................................
   1   -197.7143727 -0.197714E+03  0.552E-02    0.56       0.0  T
   2   -197.7143761 -0.338398E-05  0.315E-02    0.57       1.0  T
   3   -197.7143402  0.359304E-04  0.172E-02    0.56       1.0  T
   4   -197.7143799 -0.396881E-04  0.359E-03    0.56       2.7  T
   5   -197.7143806 -0.764582E-06  0.217E-03    0.56       4.5  T
   6   -197.7143809 -0.226417E-06  0.111E-03    0.56       8.8  T
   7   -197.7143809 -0.405715E-07  0.697E-04    0.56      13.9  T
   8   -197.7143809 -0.333930E-08  0.512E-04    0.56      19.0  T
     SCC iter.                  ...        0 min,  0.103 sec
     gradient                   ...        0 min,  0.034 sec
 * total energy  :  -194.7369157 Eh     change       -0.5746491E-03 Eh
   gradient norm :     0.0100838 Eh/α   predicted    -0.3810765E-03 ( -33.69%)
   displ. norm   :     0.6710676 α      lambda       -0.1053913E-02
   maximum displ.:     0.3567245 α      in ANC's #5, #1, #12, ...

........................................................................
.............................. CYCLE   27 ..............................
........................................................................
   1   -197.7153427 -0.197715E+03  0.113E-01    0.57       0.0  T
   2   -197.7153563 -0.136035E-04  0.639E-02    0.57       1.0  T
   3   -197.7152635  0.928188E-04  0.277E-02    0.56       1.0  T
   4   -197.7153668 -0.103339E-03  0.636E-03    0.57       1.5  T
   5   -197.7153685 -0.166018E-05  0.413E-03    0.57       2.4  T
   6   -197.7153694 -0.903621E-06  0.201E-03    0.57       4.8  T
   7   -197.7153695 -0.115366E-06  0.131E-03    0.57       7.4  T
   8   -197.7153695 -0.844466E-08  0.927E-04    0.57      10.5  T
   9   -197.7153695 -0.141525E-07  0.507E-04    0.57      19.1  T
     SCC iter.                  ...        0 min,  0.116 sec
     gradient                   ...        0 min,  0.034 sec
 * total energy  :  -194.7375624 Eh     change       -0.6466052E-03 Eh
   gradient norm :     0.0163713 Eh/α   predicted    -0.7642642E-03 (  18.20%)
   displ. norm   :     0.6550666 α      lambda       -0.1187094E-02
   maximum displ.:     0.3677865 α      in ANC's #5, #1, #2, ...

........................................................................
.............................. CYCLE   28 ..............................
........................................................................
   1   -197.7114815 -0.197711E+03  0.144E-01    0.57       0.0  T
   2   -197.7115100 -0.285021E-04  0.801E-02    0.58       1.0  T
   3   -197.7114557  0.543496E-04  0.252E-02    0.57       1.0  T
   4   -197.7115242 -0.684658E-04  0.581E-03    0.58       1.7  T
   5   -197.7115244 -0.232795E-06  0.412E-03    0.58       2.4  T
   6   -197.7115257 -0.129781E-05  0.172E-03    0.58       5.6  T
   7   -197.7115258 -0.108429E-06  0.112E-03    0.58       8.7  T
   8   -197.7115258 -0.169922E-07  0.806E-04    0.58      12.1  T
   9   -197.7115258 -0.838111E-08  0.482E-04    0.58      20.2  T
     SCC iter.                  ...        0 min,  0.117 sec
     gradient                   ...        0 min,  0.034 sec
 * total energy  :  -194.7382105 Eh     change       -0.6481321E-03 Eh
   gradient norm :     0.0150085 Eh/α   predicted    -0.8482519E-03 (  30.88%)
   displ. norm   :     0.5268712 α      lambda       -0.7574139E-03
   maximum displ.:     0.2921108 α      in ANC's #5, #1, #2, ...

........................................................................
.............................. CYCLE   29 ..............................
........................................................................
   1   -197.7094880 -0.197709E+03  0.865E-02    0.58       0.0  T
   2   -197.7094952 -0.719800E-05  0.485E-02    0.58       1.0  T
   3   -197.7094567  0.384966E-04  0.178E-02    0.58       1.0  T
   4   -197.7095003 -0.436728E-04  0.434E-03    0.58       2.2  T
   5   -197.7095008 -0.476584E-06  0.274E-03    0.58       3.5  T
   6   -197.7095012 -0.361644E-06  0.130E-03    0.58       7.5  T
   7   -197.7095012 -0.378440E-07  0.918E-04    0.58      10.6  T
   8   -197.7095012 -0.228280E-08  0.609E-04    0.58      15.9  T
     SCC iter.                  ...        0 min,  0.106 sec
     gradient                   ...        0 min,  0.034 sec
 * total energy  :  -194.7388688 Eh     change       -0.6583157E-03 Eh
   gradient norm :     0.0109721 Eh/α   predicted    -0.4838342E-03 ( -26.50%)
   displ. norm   :     0.6076347 α      lambda       -0.1191794E-02
   maximum displ.:     0.3748287 α      in ANC's #5, #2, #9, ...

........................................................................
.............................. CYCLE   30 ..............................
........................................................................
   1   -197.7174138 -0.197717E+03  0.115E-01    0.58       0.0  T
   2   -197.7174286 -0.148370E-04  0.651E-02    0.57       1.0  T
   3   -197.7173241  0.104488E-03  0.291E-02    0.58       1.0  T
   4   -197.7174416 -0.117498E-03  0.577E-03    0.58       1.7  T
   5   -197.7174427 -0.108737E-05  0.334E-03    0.58       2.9  T
   6   -197.7174432 -0.541695E-06  0.167E-03    0.58       5.8  T
   7   -197.7174433 -0.340230E-07  0.133E-03    0.58       7.3  T
   8   -197.7174433 -0.313502E-07  0.890E-04    0.58      10.9  T
   9   -197.7174433 -0.190960E-07  0.464E-04    0.58      20.9  T
     SCC iter.                  ...        0 min,  0.117 sec
     gradient                   ...        0 min,  0.034 sec
 * total energy  :  -194.7396461 Eh     change       -0.7772918E-03 Eh
   gradient norm :     0.0104583 Eh/α   predicted    -0.8159147E-03 (   4.97%)
   displ. norm   :     0.7527367 α      lambda       -0.9036613E-03
   maximum displ.:     0.4526305 α      in ANC's #5, #2, #20, ...

........................................................................
.............................. CYCLE   31 ..............................
........................................................................
   1   -197.7151668 -0.197715E+03  0.116E-01    0.58       0.0  T
   2   -197.7151782 -0.113541E-04  0.654E-02    0.58       1.0  T
   3   -197.7151442  0.339264E-04  0.185E-02    0.58       1.0  T
   4   -197.7151837 -0.394274E-04  0.587E-03    0.58       1.7  T
   5   -197.7151841 -0.457017E-06  0.396E-03    0.58       2.5  T
   6   -197.7151855 -0.140733E-05  0.167E-03    0.58       5.8  T
   7   -197.7151856 -0.616365E-07  0.121E-03    0.58       8.0  T
   8   -197.7151856 -0.971846E-08  0.735E-04    0.58      13.2  T
   9   -197.7151856 -0.109108E-07  0.382E-04    0.58      25.4  T
     SCC iter.                  ...        0 min,  0.120 sec
     gradient                   ...        0 min,  0.034 sec
 * total energy  :  -194.7403766 Eh     change       -0.7305191E-03 Eh
   gradient norm :     0.0094220 Eh/α   predicted    -0.7078444E-03 (  -3.10%)
   displ. norm   :     0.6729173 α      lambda       -0.7588486E-03
   maximum displ.:     0.4174238 α      in ANC's #5, #2, #20, ...

........................................................................
.............................. CYCLE   32 ..............................
........................................................................
   1   -197.7139700 -0.197714E+03  0.929E-02    0.58       0.0  T
   2   -197.7139766 -0.656804E-05  0.524E-02    0.58       1.0  T
   3   -197.7139613  0.152708E-04  0.132E-02    0.58       1.0  T
   4   -197.7139790 -0.177458E-04  0.500E-03    0.58       1.9  T
   5   -197.7139795 -0.417782E-06  0.318E-03    0.58       3.1  T
   6   -197.7139804 -0.938979E-06  0.156E-03    0.58       6.2  T
   7   -197.7139805 -0.534822E-07  0.115E-03    0.58       8.4  T
   8   -197.7139805 -0.106409E-07  0.681E-04    0.58      14.3  T
   9   -197.7139805 -0.116386E-07  0.335E-04    0.58      29.0  T
     SCC iter.                  ...        0 min,  0.119 sec
     gradient                   ...        0 min,  0.034 sec
 * total energy  :  -194.7410126 Eh     change       -0.6359939E-03 Eh
   gradient norm :     0.0092424 Eh/α   predicted    -0.5512401E-03 ( -13.33%)
   displ. norm   :     0.6082720 α      lambda       -0.8509923E-03
   maximum displ.:     0.4149829 α      in ANC's #5, #2, #20, ...

........................................................................
.............................. CYCLE   33 ..............................
........................................................................
   1   -197.7257465 -0.197726E+03  0.887E-02    0.58       0.0  T
   2   -197.7257563 -0.980208E-05  0.506E-02    0.57       1.0  T
   3   -197.7256549  0.101419E-03  0.278E-02    0.58       1.0  T
   4   -197.7257670 -0.112090E-03  0.608E-03    0.57       1.6  T
   5   -197.7257694 -0.238158E-05  0.343E-03    0.57       2.8  T
   6   -197.7257698 -0.422478E-06  0.196E-03    0.57       5.0  T
   7   -197.7257699 -0.118563E-06  0.136E-03    0.57       7.1  T
   8   -197.7257699 -0.257621E-07  0.100E-03    0.57       9.7  T
   9   -197.7257700 -0.175105E-07  0.541E-04    0.57      17.9  T
  10   -197.7257700 -0.104677E-07  0.283E-04    0.57      34.4  T
     SCC iter.                  ...        0 min,  0.131 sec
     gradient                   ...        0 min,  0.034 sec
 * total energy  :  -194.7416146 Eh     change       -0.6019944E-03 Eh
   gradient norm :     0.0130517 Eh/α   predicted    -0.5829290E-03 (  -3.17%)
   displ. norm   :     0.6909381 α      lambda       -0.7832382E-03
   maximum displ.:     0.4499677 α      in ANC's #5, #2, #20, ...

........................................................................
.............................. CYCLE   34 ..............................
........................................................................
   1   -197.7164779 -0.197716E+03  0.110E-01    0.57       0.0  T
   2   -197.7164927 -0.148391E-04  0.619E-02    0.57       1.0  T
   3   -197.7164778  0.149056E-04  0.158E-02    0.57       1.0  T
   4   -197.7164988 -0.209817E-04  0.491E-03    0.57       2.0  T
   5   -197.7164991 -0.327988E-06  0.277E-03    0.57       3.5  T
   6   -197.7164995 -0.440160E-06  0.151E-03    0.57       6.4  T
   7   -197.7164997 -0.100191E-06  0.102E-03    0.57       9.5  T
   8   -197.7164997 -0.978426E-08  0.659E-04    0.57      14.7  T
   9   -197.7164997 -0.877807E-08  0.359E-04    0.57      27.1  T
     SCC iter.                  ...        0 min,  0.119 sec
     gradient                   ...        0 min,  0.034 sec
 * total energy  :  -194.7422206 Eh     change       -0.6059835E-03 Eh
   gradient norm :     0.0143583 Eh/α   predicted    -0.5785824E-03 (  -4.52%)
   displ. norm   :     0.7104705 α      lambda       -0.8152919E-03
   maximum displ.:     0.4766245 α      in ANC's #5, #2, #20, ...

........................................................................
.............................. CYCLE   35 ..............................
........................................................................
   1   -197.7152238 -0.197715E+03  0.917E-02    0.57       0.0  T
   2   -197.7152330 -0.921888E-05  0.523E-02    0.57       1.0  T
   3   -197.7151900  0.430577E-04  0.203E-02    0.57       1.0  T
   4   -197.7152373 -0.473654E-04  0.552E-03    0.57       1.8  T
   5   -197.7152387 -0.139505E-05  0.311E-03    0.57       3.1  T
   6   -197.7152391 -0.412362E-06  0.174E-03    0.57       5.6  T
   7   -197.7152393 -0.125368E-06  0.114E-03    0.57       8.5  T
   8   -197.7152393 -0.176520E-07  0.811E-04    0.57      12.0  T
   9   -197.7152393 -0.130989E-07  0.397E-04    0.57      24.5  T
     SCC iter.                  ...        0 min,  0.119 sec
     gradient                   ...        0 min,  0.034 sec
 * total energy  :  -194.7427831 Eh     change       -0.5625054E-03 Eh
   gradient norm :     0.0139561 Eh/α   predicted    -0.6134152E-03 (   9.05%)
   displ. norm   :     0.6301169 α      lambda       -0.7005152E-03
   maximum displ.:     0.4557090 α      in ANC's #5, #2, #20, ...

........................................................................
.............................. CYCLE   36 ..............................
........................................................................
   1   -197.7159316 -0.197716E+03  0.834E-02    0.57       0.0  T
   2   -197.7159410 -0.934355E-05  0.475E-02    0.57       1.0  T
   3   -197.7159052  0.357331E-04  0.180E-02    0.57       1.0  T
   4   -197.7159455 -0.402469E-04  0.458E-03    0.57       2.1  T
   5   -197.7159468 -0.126606E-05  0.241E-03    0.57       4.0  T
   6   -197.7159470 -0.201918E-06  0.147E-03    0.57       6.6  T
   7   -197.7159471 -0.164484E-06  0.849E-04    0.57      11.4  T
   8   -197.7159471 -0.159332E-07  0.598E-04    0.57      16.3  T
     SCC iter.                  ...        0 min,  0.106 sec
     gradient                   ...        0 min,  0.034 sec
 * total energy  :  -194.7433671 Eh     change       -0.5840299E-03 Eh
   gradient norm :     0.0097819 Eh/α   predicted    -0.4893301E-03 ( -16.21%)
   displ. norm   :     0.6529723 α      lambda       -0.7613907E-03
   maximum displ.:     0.4878229 α      in ANC's #5, #2, #20, ...

........................................................................
.............................. CYCLE   37 ..............................
........................................................................
   1   -197.7226629 -0.197723E+03  0.869E-02    0.58       0.0  T
   2   -197.7226721 -0.922937E-05  0.492E-02    0.58       1.0  T
   3   -197.7226519  0.201993E-04  0.147E-02    0.58       1.0  T
   4   -197.7226760 -0.240786E-04  0.445E-03    0.58       2.2  T
   5   -197.7226768 -0.805398E-06  0.254E-03    0.58       3.8  T
   6   -197.7226770 -0.243984E-06  0.140E-03    0.58       7.0  T
   7   -197.7226771 -0.724136E-07  0.968E-04    0.58      10.0  T
   8   -197.7226771 -0.163830E-07  0.709E-04    0.58      13.7  T
     SCC iter.                  ...        0 min,  0.108 sec
     gradient                   ...        0 min,  0.034 sec
 * total energy  :  -194.7439679 Eh     change       -0.6007406E-03 Eh
   gradient norm :     0.0086757 Eh/α   predicted    -0.5430137E-03 (  -9.61%)
   displ. norm   :     0.7559437 α      lambda       -0.6817732E-03
   maximum displ.:     0.5496265 α      in ANC's #5, #2, #20, ...

........................................................................
.............................. CYCLE   38 ..............................
........................................................................
   1   -197.7200392 -0.197720E+03  0.936E-02    0.58       0.0  T
   2   -197.7200475 -0.824233E-05  0.533E-02    0.58       1.0  T
   3   -197.7200267  0.207760E-04  0.146E-02    0.58       1.0  T
   4   -197.7200509 -0.241985E-04  0.454E-03    0.58       2.1  T
   5   -197.7200518 -0.929992E-06  0.262E-03    0.58       3.7  T
   6   -197.7200520 -0.222426E-06  0.146E-03    0.58       6.6  T
   7   -197.7200522 -0.117241E-06  0.914E-04    0.58      10.6  T
   8   -197.7200522 -0.270953E-08  0.652E-04    0.58      14.9  T
     SCC iter.                  ...        0 min,  0.106 sec
     gradient                   ...        0 min,  0.034 sec
 * total energy  :  -194.7445598 Eh     change       -0.5919120E-03 Eh
   gradient norm :     0.0084522 Eh/α   predicted    -0.5356935E-03 (  -9.50%)
   displ. norm   :     0.7454459 α      lambda       -0.7428906E-03
   maximum displ.:     0.5555299 α      in ANC's #5, #2, #10, ...

........................................................................
.............................. CYCLE   39 ..............................
........................................................................
   1   -197.7243949 -0.197724E+03  0.881E-02    0.58       0.0  T
   2   -197.7244030 -0.805490E-05  0.503E-02    0.59       1.0  T
   3   -197.7243672  0.357877E-04  0.176E-02    0.58       1.0  T
   4   -197.7244060 -0.387852E-04  0.484E-03    0.59       2.0  T
   5   -197.7244078 -0.182661E-05  0.290E-03    0.59       3.4  T
   6   -197.7244083 -0.510020E-06  0.139E-03    0.59       7.0  T
   7   -197.7244084 -0.828216E-07  0.810E-04    0.59      12.0  T
   8   -197.7244084 -0.759468E-08  0.577E-04    0.59      16.8  T
     SCC iter.                  ...        0 min,  0.105 sec
     gradient                   ...        0 min,  0.034 sec
 * total energy  :  -194.7451320 Eh     change       -0.5722060E-03 Eh
   gradient norm :     0.0117671 Eh/α   predicted    -0.5778553E-03 (   0.99%)
   displ. norm   :     0.7933632 α      lambda       -0.7393195E-03
   maximum displ.:     0.5911491 α      in ANC's #5, #2, #20, ...

........................................................................
.............................. CYCLE   40 ..............................
........................................................................
   1   -197.7192027 -0.197719E+03  0.102E-01    0.59       0.0  T
   2   -197.7192163 -0.136226E-04  0.580E-02    0.59       1.0  T
   3   -197.7191857  0.306218E-04  0.182E-02    0.59       1.0  T
   4   -197.7192212 -0.355668E-04  0.517E-03    0.59       1.9  T
   5   -197.7192227 -0.142042E-05  0.312E-03    0.59       3.1  T
   6   -197.7192232 -0.513278E-06  0.164E-03    0.59       5.9  T
   7   -197.7192234 -0.189388E-06  0.842E-04    0.59      11.5  T
   8   -197.7192234 -0.102722E-07  0.614E-04    0.59      15.8  T
     SCC iter.                  ...        0 min,  0.105 sec
     gradient                   ...        0 min,  0.034 sec
 * total energy  :  -194.7457210 Eh     change       -0.5890528E-03 Eh
   gradient norm :     0.0087277 Eh/α   predicted    -0.6023384E-03 (   2.26%)
   displ. norm   :     0.6769206 α      lambda       -0.6208765E-03
   maximum displ.:     0.5097370 α      in ANC's #5, #2, #10, ...

........................................................................
.............................. CYCLE   41 ..............................
........................................................................
   1   -197.7192913 -0.197719E+03  0.921E-02    0.59       0.0  T
   2   -197.7193036 -0.123195E-04  0.522E-02    0.59       1.0  T
   3   -197.7192755  0.281361E-04  0.176E-02    0.59       1.0  T
   4   -197.7193090 -0.335236E-04  0.417E-03    0.59       2.3  T
   5   -197.7193099 -0.882571E-06  0.236E-03    0.59       4.1  T
   6   -197.7193100 -0.164403E-06  0.137E-03    0.59       7.1  T
   7   -197.7193102 -0.120131E-06  0.703E-04    0.59      13.8  T
   8   -197.7193102 -0.665258E-08  0.525E-04    0.59      18.5  T
     SCC iter.                  ...        0 min,  0.106 sec
     gradient                   ...        0 min,  0.034 sec
 * total energy  :  -194.7462325 Eh     change       -0.5114923E-03 Eh
   gradient norm :     0.0119908 Eh/α   predicted    -0.4526893E-03 ( -11.50%)
   displ. norm   :     0.7144627 α      lambda       -0.6717733E-03
   maximum displ.:     0.5422525 α      in ANC's #5, #2, #10, ...

........................................................................
.............................. CYCLE   42 ..............................
........................................................................
   1   -197.7213618 -0.197721E+03  0.868E-02    0.59       0.0  T
   2   -197.7213727 -0.108930E-04  0.495E-02    0.58       1.0  T
   3   -197.7213380  0.346210E-04  0.189E-02    0.59       1.0  T
   4   -197.7213770 -0.389673E-04  0.502E-03    0.58       1.9  T
   5   -197.7213790 -0.193577E-05  0.265E-03    0.59       3.7  T
   6   -197.7213793 -0.396108E-06  0.147E-03    0.59       6.6  T
   7   -197.7213795 -0.127850E-06  0.819E-04    0.59      11.9  T
   8   -197.7213795 -0.101187E-07  0.617E-04    0.59      15.7  T
     SCC iter.                  ...        0 min,  0.105 sec
     gradient                   ...        0 min,  0.034 sec
 * total energy  :  -194.7467918 Eh     change       -0.5592320E-03 Eh
   gradient norm :     0.0106926 Eh/α   predicted    -0.5073487E-03 (  -9.28%)
   displ. norm   :     0.7551238 α      lambda       -0.7193146E-03
   maximum displ.:     0.5705994 α      in ANC's #5, #2, #8, ...
 * RMSD in coord.:     1.1568462 α      energy gain  -0.1243142E-01 Eh

generating ANC from model Hessian ...
Using Lindh-Hessian (1995)
 Shifting diagonal of input Hessian by   1.001448900732541E-002
 Lowest  eigenvalues of input Hessian
    0.010000    0.010011    0.000000    0.000000    0.000000    0.000000
    0.000000    0.000000    0.010063    0.010106    0.010140    0.010191
    0.010312    0.010434    0.010620    0.010629    0.010715    0.010767
 Highest eigenvalues
    2.275723    2.283673    2.601527    2.614683    2.648607    2.650197
 

........................................................................
.............................. CYCLE   43 ..............................
........................................................................
   1   -197.7274902 -0.197727E+03  0.988E-02    0.59       0.0  T
   2   -197.7275066 -0.164334E-04  0.567E-02    0.58       1.0  T
   3   -197.7274217  0.848756E-04  0.275E-02    0.59       1.0  T
   4   -197.7275163 -0.945184E-04  0.597E-03    0.58       1.6  T
   5   -197.7275195 -0.327046E-05  0.306E-03    0.59       3.2  T
   6   -197.7275201 -0.552040E-06  0.177E-03    0.58       5.5  T
   7   -197.7275203 -0.214876E-06  0.870E-04    0.58      11.2  T
   8   -197.7275203 -0.136568E-07  0.634E-04    0.58      15.3  T
     SCC iter.                  ...        0 min,  0.110 sec
     gradient                   ...        0 min,  0.034 sec
 * total energy  :  -194.7473084 Eh     change       -0.5166571E-03 Eh
   gradient norm :     0.0144724 Eh/α   predicted     0.0000000E+00 (-100.00%)
   displ. norm   :     0.1131398 α      lambda       -0.3146765E-03
   maximum displ.:     0.0553183 α      in ANC's #4, #10, #22, ...

........................................................................
.............................. CYCLE   44 ..............................
........................................................................
   1   -197.7264700 -0.197726E+03  0.696E-02    0.59       0.0  T
   2   -197.7264799 -0.993252E-05  0.387E-02    0.59       1.0  T
   3   -197.7264658  0.141283E-04  0.126E-02    0.59       1.0  T
   4   -197.7264839 -0.181196E-04  0.268E-03    0.59       3.6  T
   5   -197.7264845 -0.563201E-06  0.150E-03    0.59       6.5  T
   6   -197.7264847 -0.150339E-06  0.758E-04    0.59      12.8  T
   7   -197.7264847 -0.193635E-07  0.466E-04    0.59      20.8  T
     SCC iter.                  ...        0 min,  0.093 sec
     gradient                   ...        0 min,  0.034 sec
 * total energy  :  -194.7473510 Eh     change       -0.4261976E-04 Eh
   gradient norm :     0.0078703 Eh/α   predicted    -0.1593649E-03 ( 273.92%)
   displ. norm   :     0.1598475 α      lambda       -0.4705588E-03
   maximum displ.:     0.0682014 α      in ANC's #4, #9, #27, ...

........................................................................
.............................. CYCLE   45 ..............................
........................................................................
   1   -197.7275296 -0.197728E+03  0.714E-02    0.59       0.0  T
   2   -197.7275395 -0.989897E-05  0.399E-02    0.59       1.0  T
   3   -197.7275172  0.222724E-04  0.140E-02    0.59       1.0  T
   4   -197.7275440 -0.267355E-04  0.316E-03    0.59       3.1  T
   5   -197.7275449 -0.884919E-06  0.154E-03    0.59       6.3  T
   6   -197.7275449 -0.953231E-07  0.888E-04    0.59      10.9  T
   7   -197.7275450 -0.454663E-07  0.498E-04    0.59      19.5  T
     SCC iter.                  ...        0 min,  0.093 sec
     gradient                   ...        0 min,  0.034 sec
 * total energy  :  -194.7475397 Eh     change       -0.1887140E-03 Eh
   gradient norm :     0.0155882 Eh/α   predicted    -0.2412936E-03 (  27.86%)
   displ. norm   :     0.1181604 α      lambda       -0.2372416E-03
   maximum displ.:     0.0643808 α      in ANC's #4, #9, #6, ...

........................................................................
.............................. CYCLE   46 ..............................
........................................................................
   1   -197.7273781 -0.197727E+03  0.402E-02    0.59       0.0  T
   2   -197.7273808 -0.270814E-05  0.225E-02    0.59       1.0  T
   3   -197.7273751  0.568532E-05  0.778E-03    0.59       1.2  T
   4   -197.7273822 -0.706186E-05  0.131E-03    0.59       7.4  T
   5   -197.7273823 -0.681708E-07  0.819E-04    0.59      11.9  T
   6   -197.7273823 -0.479622E-07  0.381E-04    0.59      25.5  T
     SCC iter.                  ...        0 min,  0.080 sec
     gradient                   ...        0 min,  0.034 sec
 * total energy  :  -194.7476830 Eh     change       -0.1432971E-03 Eh
   gradient norm :     0.0055274 Eh/α   predicted    -0.1202773E-03 ( -16.06%)
   displ. norm   :     0.2577922 α      lambda       -0.3193714E-03
   maximum displ.:     0.1387168 α      in ANC's #4, #9, #6, ...

........................................................................
.............................. CYCLE   47 ..............................
........................................................................
   1   -197.7268172 -0.197727E+03  0.513E-02    0.59       0.0  T
   2   -197.7268210 -0.372944E-05  0.293E-02    0.59       1.0  T
   3   -197.7267958  0.251370E-04  0.142E-02    0.59       1.0  T
   4   -197.7268241 -0.282947E-04  0.269E-03    0.59       3.6  T
   5   -197.7268247 -0.615859E-06  0.144E-03    0.59       6.7  T
   6   -197.7268248 -0.869310E-07  0.785E-04    0.59      12.4  T
   7   -197.7268249 -0.294718E-07  0.432E-04    0.59      22.5  T
     SCC iter.                  ...        0 min,  0.094 sec
     gradient                   ...        0 min,  0.034 sec
 * total energy  :  -194.7478894 Eh     change       -0.2063103E-03 Eh
   gradient norm :     0.0135306 Eh/α   predicted    -0.1702991E-03 ( -17.45%)
   displ. norm   :     0.4069882 α      lambda       -0.3437525E-03
   maximum displ.:     0.2139998 α      in ANC's #4, #9, #1, ...

........................................................................
.............................. CYCLE   48 ..............................
........................................................................
   1   -197.7256493 -0.197726E+03  0.675E-02    0.59       0.0  T
   2   -197.7256528 -0.353627E-05  0.389E-02    0.59       1.0  T
   3   -197.7255967  0.561540E-04  0.208E-02    0.59       1.0  T
   4   -197.7256586 -0.619181E-04  0.357E-03    0.59       2.7  T
   5   -197.7256596 -0.104689E-05  0.191E-03    0.59       5.1  T
   6   -197.7256598 -0.177639E-06  0.926E-04    0.59      10.5  T
   7   -197.7256599 -0.435325E-07  0.450E-04    0.59      21.6  T
     SCC iter.                  ...        0 min,  0.093 sec
     gradient                   ...        0 min,  0.034 sec
 * total energy  :  -194.7481886 Eh     change       -0.2992301E-03 Eh
   gradient norm :     0.0129841 Eh/α   predicted    -0.2003469E-03 ( -33.05%)
   displ. norm   :     0.7101555 α      lambda       -0.6487704E-03
   maximum displ.:     0.3654384 α      in ANC's #4, #9, #6, ...

........................................................................
.............................. CYCLE   49 ..............................
........................................................................
   1   -197.7220198 -0.197722E+03  0.121E-01    0.59       0.0  T
   2   -197.7220316 -0.117949E-04  0.700E-02    0.59       1.0  T
   3   -197.7218650  0.166619E-03  0.360E-02    0.59       1.0  T
   4   -197.7220490 -0.184015E-03  0.580E-03    0.59       1.7  T
   5   -197.7220513 -0.228248E-05  0.339E-03    0.59       2.9  T
   6   -197.7220519 -0.645319E-06  0.144E-03    0.59       6.7  T
   7   -197.7220520 -0.103013E-06  0.700E-04    0.59      13.9  T
   8   -197.7220520 -0.671596E-08  0.503E-04    0.59      19.3  T
     SCC iter.                  ...        0 min,  0.106 sec
     gradient                   ...        0 min,  0.034 sec
 * total energy  :  -194.7485932 Eh     change       -0.4046029E-03 Eh
   gradient norm :     0.0110870 Eh/α   predicted    -0.4879823E-03 (  20.61%)
   displ. norm   :     0.5622057 α      lambda       -0.6168074E-03
   maximum displ.:     0.3017315 α      in ANC's #4, #9, #1, ...

........................................................................
.............................. CYCLE   50 ..............................
........................................................................
   1   -197.7225373 -0.197723E+03  0.105E-01    0.59       0.0  T
   2   -197.7225461 -0.881333E-05  0.601E-02    0.59       1.0  T
   3   -197.7224417  0.104489E-03  0.284E-02    0.59       1.0  T
   4   -197.7225568 -0.115155E-03  0.451E-03    0.59       2.2  T
   5   -197.7225582 -0.140796E-05  0.261E-03    0.59       3.7  T
   6   -197.7225586 -0.413433E-06  0.121E-03    0.59       8.0  T
   7   -197.7225587 -0.921655E-07  0.485E-04    0.59      20.0  T
   8   -197.7225587 -0.844619E-08  0.326E-04    0.59      29.8  T
     SCC iter.                  ...        0 min,  0.105 sec
     gradient                   ...        0 min,  0.034 sec
 * total energy  :  -194.7490759 Eh     change       -0.4826727E-03 Eh
   gradient norm :     0.0111590 Eh/α   predicted    -0.4058862E-03 ( -15.91%)
   displ. norm   :     0.5897078 α      lambda       -0.6054036E-03
   maximum displ.:     0.3306655 α      in ANC's #4, #9, #1, ...

........................................................................
.............................. CYCLE   51 ..............................
........................................................................
   1   -197.7253008 -0.197725E+03  0.103E-01    0.59       0.0  T
   2   -197.7253110 -0.101674E-04  0.592E-02    0.59       1.0  T
   3   -197.7251952  0.115706E-03  0.298E-02    0.59       1.0  T
   4   -197.7253226 -0.127303E-03  0.474E-03    0.58       2.0  T
   5   -197.7253244 -0.186350E-05  0.253E-03    0.59       3.8  T
   6   -197.7253247 -0.332045E-06  0.148E-03    0.59       6.6  T
   7   -197.7253249 -0.171311E-06  0.533E-04    0.59      18.2  T
   8   -197.7253249 -0.142103E-07  0.336E-04    0.59      28.9  T
     SCC iter.                  ...        0 min,  0.106 sec
     gradient                   ...        0 min,  0.034 sec
 * total energy  :  -194.7495751 Eh     change       -0.4992402E-03 Eh
   gradient norm :     0.0073365 Eh/α   predicted    -0.4079700E-03 ( -18.28%)
   displ. norm   :     0.7133655 α      lambda       -0.7030959E-03
   maximum displ.:     0.4080741 α      in ANC's #4, #9, #1, ...

........................................................................
.............................. CYCLE   52 ..............................
........................................................................
   1   -197.7270424 -0.197727E+03  0.129E-01    0.59       0.0  T
   2   -197.7270545 -0.121202E-04  0.742E-02    0.58       1.0  T
   3   -197.7268812  0.173347E-03  0.358E-02    0.59       1.0  T
   4   -197.7270717 -0.190568E-03  0.525E-03    0.58       1.8  T
   5   -197.7270732 -0.150287E-05  0.311E-03    0.58       3.1  T
   6   -197.7270738 -0.569532E-06  0.162E-03    0.58       6.0  T
   7   -197.7270740 -0.176865E-06  0.624E-04    0.58      15.6  T
   8   -197.7270740 -0.197583E-07  0.395E-04    0.58      24.6  T
     SCC iter.                  ...        0 min,  0.105 sec
     gradient                   ...        0 min,  0.034 sec
 * total energy  :  -194.7501304 Eh     change       -0.5553039E-03 Eh
   gradient norm :     0.0081527 Eh/α   predicted    -0.5304494E-03 (  -4.48%)
   displ. norm   :     0.7150524 α      lambda       -0.7431399E-03
   maximum displ.:     0.4145451 α      in ANC's #4, #9, #1, ...

........................................................................
.............................. CYCLE   53 ..............................
........................................................................
   1   -197.7296779 -0.197730E+03  0.109E-01    0.58       0.0  T
   2   -197.7296841 -0.624605E-05  0.636E-02    0.58       1.0  T
   3   -197.7295886  0.955570E-04  0.273E-02    0.59       1.0  T
   4   -197.7296921 -0.103480E-03  0.472E-03    0.58       2.1  T
   5   -197.7296938 -0.172116E-05  0.264E-03    0.58       3.7  T
   6   -197.7296942 -0.408924E-06  0.119E-03    0.58       8.1  T
   7   -197.7296943 -0.696343E-07  0.563E-04    0.58      17.2  T
   8   -197.7296943 -0.389784E-08  0.389E-04    0.58      25.0  T
     SCC iter.                  ...        0 min,  0.105 sec
     gradient                   ...        0 min,  0.034 sec
 * total energy  :  -194.7507403 Eh     change       -0.6099399E-03 Eh
   gradient norm :     0.0084222 Eh/α   predicted    -0.5615564E-03 (  -7.93%)
   displ. norm   :     0.6868360 α      lambda       -0.6428601E-03
   maximum displ.:     0.4092918 α      in ANC's #4, #1, #9, ...

........................................................................
.............................. CYCLE   54 ..............................
........................................................................
   1   -197.7313830 -0.197731E+03  0.103E-01    0.58       0.0  T
   2   -197.7313944 -0.113587E-04  0.599E-02    0.58       1.0  T
   3   -197.7312452  0.149220E-03  0.342E-02    0.58       1.0  T
   4   -197.7314092 -0.163996E-03  0.546E-03    0.58       1.8  T
   5   -197.7314122 -0.307417E-05  0.263E-03    0.58       3.7  T
   6   -197.7314126 -0.421575E-06  0.150E-03    0.58       6.5  T
   7   -197.7314128 -0.132208E-06  0.627E-04    0.58      15.5  T
   8   -197.7314128 -0.181664E-07  0.387E-04    0.58      25.1  T
     SCC iter.                  ...        0 min,  0.107 sec
     gradient                   ...        0 min,  0.034 sec
 * total energy  :  -194.7512638 Eh     change       -0.5234870E-03 Eh
   gradient norm :     0.0075911 Eh/α   predicted    -0.4730647E-03 (  -9.63%)
   displ. norm   :     0.7395259 α      lambda       -0.5871144E-03
   maximum displ.:     0.4341776 α      in ANC's #4, #1, #9, ...

........................................................................
.............................. CYCLE   55 ..............................
........................................................................
   1   -197.7227682 -0.197723E+03  0.111E-01    0.58       0.0  T
   2   -197.7227818 -0.136185E-04  0.657E-02    0.58       1.0  T
   3   -197.7227122  0.695520E-04  0.248E-02    0.58       1.0  T
   4   -197.7227894 -0.771509E-04  0.517E-03    0.58       1.9  T
   5   -197.7227915 -0.212680E-05  0.286E-03    0.58       3.4  T
   6   -197.7227920 -0.473637E-06  0.137E-03    0.58       7.1  T
   7   -197.7227921 -0.117423E-06  0.547E-04    0.58      17.8  T
   8   -197.7227921 -0.777936E-08  0.330E-04    0.58      29.4  T
     SCC iter.                  ...        0 min,  0.108 sec
     gradient                   ...        0 min,  0.034 sec
 * total energy  :  -194.7516550 Eh     change       -0.3911440E-03 Eh
   gradient norm :     0.0126916 Eh/α   predicted    -0.4541046E-03 (  16.10%)
   displ. norm   :     0.5264609 α      lambda       -0.6474454E-03
   maximum displ.:     0.3049851 α      in ANC's #4, #1, #21, ...

........................................................................
.............................. CYCLE   56 ..............................
........................................................................
   1   -197.7332341 -0.197733E+03  0.755E-02    0.59       0.0  T
   2   -197.7332424 -0.828644E-05  0.451E-02    0.58       1.0  T
   3   -197.7331161  0.126231E-03  0.328E-02    0.59       1.0  T
   4   -197.7332628 -0.146630E-03  0.610E-03    0.58       1.6  T
   5   -197.7332672 -0.442376E-05  0.221E-03    0.58       4.4  T
   6   -197.7332675 -0.293568E-06  0.116E-03    0.58       8.4  T
   7   -197.7332675 -0.571028E-07  0.557E-04    0.58      17.4  T
   8   -197.7332676 -0.148901E-07  0.349E-04    0.58      27.8  T
     SCC iter.                  ...        0 min,  0.108 sec
     gradient                   ...        0 min,  0.034 sec
 * total energy  :  -194.7520724 Eh     change       -0.4173987E-03 Eh
[...]
    70   6 C        1.947     0.122    28.084     8.558
    71   7 N        0.911    -0.230    26.039     7.380
    72   6 C        1.945     0.122    28.083     8.558
    73   7 N        0.911    -0.241    26.283     7.415
    74   1 H        0.925     0.074     2.040     2.234
    75   1 H        0.926     0.092     1.862     2.134
    76   1 H        0.926     0.091     1.874     2.140
    77   1 H        0.924     0.056     2.247     2.344
    78   1 H        0.924     0.058     2.228     2.334
    79   1 H        0.925     0.055     2.257     2.349
    80   1 H        0.925     0.040     2.445     2.445
    81   1 H        0.925     0.043     2.407     2.426
    82   1 H        0.925     0.055     2.257     2.349
    83   1 H        0.925     0.055     2.254     2.348
    84   1 H        0.925     0.067     2.118     2.276
    85   1 H        0.925     0.067     2.116     2.275
    86   1 H        0.925     0.055     2.257     2.349
    87   1 H        0.925     0.055     2.254     2.348
    88   1 H        0.924     0.057     2.236     2.339
    89   1 H        0.924     0.056     2.250     2.346
    90   1 H        0.925     0.043     2.414     2.430
    91   1 H        0.925     0.055     2.263     2.352
    92   1 H        0.925     0.040     2.449     2.447
    93   1 H        0.925     0.061     2.192     2.315
    94   1 H        0.924     0.062     2.172     2.305
    95   1 H        0.925     0.047     2.364     2.404
    96   1 H        0.925     0.056     2.252     2.347
    97   1 H        0.925     0.056     2.249     2.345
    98   1 H        0.924     0.063     2.164     2.300
    99   1 H        0.925     0.061     2.190     2.314
   100   1 H        0.925     0.047     2.363     2.404
   101   1 H        0.925     0.055     2.264     2.353
   102   1 H        0.925     0.056     2.247     2.344
   103   1 H        0.925     0.073     2.058     2.243
   104   1 H        0.926     0.068     2.112     2.273
   105   1 H        0.926     0.066     2.125     2.279
   106   1 H        0.926     0.073     2.052     2.240

 Mol. C6AA /au·bohr⁶  :     205477.389258
 Mol. C8AA /au·bohr⁸  :    5824837.666442
 Mol. α(0) /au        :        718.999370


Wiberg/Mayer (AO) data.
largest (>0.10) Wiberg bond orders for each atom

 ---------------------------------------------------------------------------
     #   Z sym  total        # sym  WBO       # sym  WBO       # sym  WBO
 ---------------------------------------------------------------------------
     1   6 C    3.942 --     2 C    1.454    19 C    1.344    74 H    0.931
     2   6 C    3.951 --     1 C    1.454    13 C    1.153     3 C    1.079
     3   6 C    3.920 --     4 O    1.707     2 C    1.079     5 C    1.015
     4   8 O    2.116 --     3 C    1.707    25 S    0.131
     5   6 C    3.975 --     6 C    1.419    12 C    1.301     3 C    1.015
     6   6 C    3.976 --     5 C    1.419     7 C    1.383    75 H    0.960
     7   6 C    3.881 --     6 C    1.383     9 C    1.334     8 F    0.987
     8   9 F    1.125 --     7 C    0.987
     9   6 C    3.888 --    11 C    1.387     7 C    1.334    10 F    0.990
    10   9 F    1.130 --     9 C    0.990
    11   6 C    3.971 --    12 C    1.404     9 C    1.387    76 H    0.954
    12   6 C    3.981 --    11 C    1.404     5 C    1.301    13 C    1.077
    13   6 C    3.970 --    14 C    1.480     2 C    1.153    12 C    1.077
    14   6 C    3.942 --    13 C    1.480    15 C    1.099    17 C    1.095
    15   6 C    3.945 --    16 N    2.749    14 C    1.099
    16   7 N    2.964 --    15 C    2.749
    17   6 C    3.945 --    18 N    2.766    14 C    1.095
    18   7 N    2.969 --    17 C    2.766
    19   6 C    3.931 --     1 C    1.344    20 C    1.312    25 S    1.075
    20   6 C    3.955 --    23 C    1.379    19 C    1.312    21 C    1.019
    21   6 C    3.992 --    20 C    1.019    22 C    0.990    78 H    0.968
                            77 H    0.963
    22   6 C    3.989 --    21 C    0.990    81 H    0.988    80 H    0.987
                            79 H    0.983
    23   6 C    3.928 --    20 C    1.379    24 C    1.274    28 S    1.080
    24   6 C    3.942 --    23 C    1.274    26 C    1.270    25 S    1.158
    25  16 S    2.719 --    24 C    1.158    19 C    1.075     4 O    0.131
    26   6 C    3.936 --    27 C    1.299    24 C    1.270    54 N    1.141
    27   6 C    3.910 --    26 C    1.299    29 C    1.274    28 S    1.117
    28  16 S    2.509 --    27 C    1.117    23 C    1.080
    29   6 C    3.953 --    27 C    1.274    53 C    1.268    30 C    1.171
    30   6 C    3.975 --    31 N    1.333    37 C    1.243    29 C    1.171
    31   7 N    3.056 --    32 C    1.480    30 C    1.333
    32   6 C    3.958 --    31 N    1.480    34 C    1.257    33 C    1.029
    33   6 C    3.993 --    32 C    1.029    84 H    0.983    82 H    0.965
                            83 H    0.965
    34   6 C    3.958 --    36 N    1.480    32 C    1.257    35 C    1.029
    35   6 C    3.993 --    34 C    1.029    85 H    0.983    86 H    0.965
                            87 H    0.965
    36   7 N    3.056 --    34 C    1.480    37 C    1.333
    37   6 C    3.975 --    36 N    1.333    30 C    1.243    38 C    1.171
    38   6 C    3.953 --    39 C    1.274    52 C    1.268    37 C    1.171
    39   6 C    3.910 --    48 C    1.300    38 C    1.274    40 S    1.117
    40  16 S    2.509 --    39 C    1.117    41 C    1.080
    41   6 C    3.928 --    42 C    1.374    47 C    1.279    40 S    1.080
    42   6 C    3.955 --    41 C    1.374    45 C    1.318    43 C    1.019
    43   6 C    3.993 --    42 C    1.019    44 C    0.991    88 H    0.968
                            89 H    0.963
    44   6 C    3.989 --    43 C    0.991    90 H    0.988    92 H    0.987
                            91 H    0.983
    45   6 C    3.931 --    57 C    1.335    42 C    1.318    46 S    1.077
    46  16 S    2.721 --    47 C    1.156    45 C    1.077    60 O    0.133
    47   6 C    3.942 --    41 C    1.279    48 C    1.267    46 S    1.156
    48   6 C    3.935 --    39 C    1.300    47 C    1.267    49 N    1.143
    49   7 N    3.534 --    52 C    1.163    48 C    1.143    50 C    0.977
    50   6 C    3.964 --    51 C    1.005    49 N    0.977    94 H    0.968
                            93 H    0.966
    51   6 C    3.989 --    50 C    1.005    95 H    0.987    96 H    0.983
                            97 H    0.982
    52   6 C    3.928 --    38 C    1.268    53 C    1.243    49 N    1.163
    53   6 C    3.928 --    29 C    1.268    52 C    1.243    54 N    1.163
    54   7 N    3.532 --    53 C    1.163    26 C    1.141    55 C    0.976
    55   6 C    3.964 --    56 C    1.005    54 N    0.976    98 H    0.968
                            99 H    0.966
    56   6 C    3.989 --    55 C    1.005   100 H    0.987   101 H    0.983
                           102 H    0.982
    57   6 C    3.944 --    58 C    1.464    45 C    1.335   103 H    0.931
    58   6 C    3.951 --    57 C    1.464    68 C    1.152    59 C    1.074
    59   6 C    3.917 --    60 O    1.704    58 C    1.074    61 C    1.021
    60   8 O    2.113 --    59 C    1.704    46 S    0.133
    61   6 C    3.975 --    62 C    1.416    67 C    1.296    59 C    1.021
    62   6 C    3.980 --    63 C    1.425    61 C    1.416   104 H    0.964
    63   6 C    3.971 --    62 C    1.425    64 C    1.405   105 H    0.966
    64   6 C    3.935 --    63 C    1.405    66 C    1.392    65 Br   1.002
    65  35 Br   1.137 --    64 C    1.002
    66   6 C    3.974 --    67 C    1.411    64 C    1.392   106 H    0.958
    67   6 C    3.981 --    66 C    1.411    61 C    1.296    68 C    1.074
    68   6 C    3.968 --    69 C    1.483    58 C    1.152    67 C    1.074
    69   6 C    3.945 --    68 C    1.483    72 C    1.099    70 C    1.095
    70   6 C    3.945 --    71 N    2.765    69 C    1.095
    71   7 N    2.969 --    70 C    2.765
    72   6 C    3.945 --    73 N    2.749    69 C    1.099
    73   7 N    2.965 --    72 C    2.749
    74   1 H    0.994 --     1 C    0.931
    75   1 H    0.991 --     6 C    0.960
    76   1 H    0.991 --    11 C    0.954
    77   1 H    0.996 --    21 C    0.963
    78   1 H    0.996 --    21 C    0.968
    79   1 H    0.995 --    22 C    0.983
    80   1 H    0.998 --    22 C    0.987
    81   1 H    0.998 --    22 C    0.988
    82   1 H    0.994 --    33 C    0.965
    83   1 H    0.994 --    33 C    0.965
    84   1 H    0.995 --    33 C    0.983
    85   1 H    0.995 --    35 C    0.983
    86   1 H    0.994 --    35 C    0.965
    87   1 H    0.994 --    35 C    0.965
    88   1 H    0.996 --    43 C    0.968
    89   1 H    0.996 --    43 C    0.963
    90   1 H    0.998 --    44 C    0.988
    91   1 H    0.995 --    44 C    0.983
    92   1 H    0.998 --    44 C    0.987
    93   1 H    0.996 --    50 C    0.966
    94   1 H    0.994 --    50 C    0.968
    95   1 H    0.998 --    51 C    0.987
    96   1 H    0.997 --    51 C    0.983
    97   1 H    0.996 --    51 C    0.982
    98   1 H    0.994 --    55 C    0.968
    99   1 H    0.996 --    55 C    0.966
   100   1 H    0.998 --    56 C    0.987
   101   1 H    0.997 --    56 C    0.983
   102   1 H    0.996 --    56 C    0.982
   103   1 H    0.994 --    57 C    0.931
   104   1 H    0.995 --    62 C    0.964
   105   1 H    0.995 --    63 C    0.966
   106   1 H    0.994 --    66 C    0.958
 ---------------------------------------------------------------------------

Topologies differ in bond orders
Writing corrected topology to xtbtopo.mol

molecular dipole:
                 x           y           z       tot (Debye)
 q only:       -0.438      -2.465       0.794
   full:       -0.359      -1.980       0.883       5.585
molecular quadrupole (traceless):
                xx          xy          yy          xz          yz          zz
 q only:       92.144      -0.979      31.558      17.965     -90.922    -123.702
  q+dip:      107.696       1.309      47.580      25.967     -92.672    -155.276
   full:      123.960      -0.112      39.350      30.485     -94.161    -163.310

           -------------------------------------------------
          |                Geometry Summary                 |
           -------------------------------------------------

      molecular mass/u    :     1096.0751744
   center of mass at/Å    :        0.3780086       0.5109341      -1.3027364
  moments of inertia/u·Å² :        0.1692938E+05   0.6225705E+05   0.7823421E+05
rotational constants/cm⁻¹ :        0.9957620E-03   0.2707747E-03   0.2154765E-03

 * 101 selected distances

     #   Z          #   Z                                           value/Å
     1   6 C        2   6 C                                       1.3781103
     3   6 C        4   8 O                                       1.2186264
     5   6 C        6   6 C                                       1.3801441
     6   6 C        7   6 C                                       1.3857180
     7   6 C        8   9 F                                       1.3391365
     7   6 C        9   6 C                                       1.3944535
     9   6 C       10   9 F                                       1.3380035
     9   6 C       11   6 C                                       1.3876495
     5   6 C       12   6 C                                       1.4046564
    11   6 C       12   6 C                                       1.3856902
    13   6 C       14   6 C                                       1.3722445
    15   6 C       16   7 N                                       1.1491425
    17   6 C       18   7 N                                       1.1478456
     1   6 C       19   6 C                                       1.3941571
    19   6 C       20   6 C                                       1.4101513
    20   6 C       21   6 C                                       1.4932297
    21   6 C       22   6 C                                       1.5315070
    20   6 C       23   6 C                                       1.3856464
    23   6 C       24   6 C                                       1.4085120
    24   6 C       25  16 S                                       1.7214437
    24   6 C       26   6 C                                       1.3944755
    26   6 C       27   6 C                                       1.4037103
    23   6 C       28  16 S                                       1.7543589
    27   6 C       28  16 S                                       1.7278774
    27   6 C       29   6 C                                       1.4039562
    29   6 C       30   6 C                                       1.4215008
    30   6 C       31   7 N                                       1.3377507
    31   7 N       32   6 C                                       1.3164432
    32   6 C       34   6 C                                       1.4176596
    34   6 C       36   7 N                                       1.3164339
    30   6 C       37   6 C                                       1.4156766
    36   7 N       37   6 C                                       1.3377460
    37   6 C       38   6 C                                       1.4215489
    38   6 C       39   6 C                                       1.4039135
    39   6 C       40  16 S                                       1.7278328
    40  16 S       41   6 C                                       1.7539058
    41   6 C       42   6 C                                       1.3864586
    42   6 C       43   6 C                                       1.4934171
    43   6 C       44   6 C                                       1.5314719
    42   6 C       45   6 C                                       1.4087253
    41   6 C       47   6 C                                       1.4076609
    46  16 S       47   6 C                                       1.7224173
    39   6 C       48   6 C                                       1.4036551
    47   6 C       48   6 C                                       1.3954703
    48   6 C       49   7 N                                       1.3736584
    49   7 N       50   6 C                                       1.4495283
    50   6 C       51   6 C                                       1.5281835
    38   6 C       52   6 C                                       1.4204736
    49   7 N       52   6 C                                       1.3805474
    29   6 C       53   6 C                                       1.4206057
    52   6 C       53   6 C                                       1.4063089
    26   6 C       54   7 N                                       1.3741006
    53   6 C       54   7 N                                       1.3807889
    54   7 N       55   6 C                                       1.4497855
    55   6 C       56   6 C                                       1.5282570
    45   6 C       57   6 C                                       1.3955547
    57   6 C       58   6 C                                       1.3762474
    59   6 C       60   8 O                                       1.2194337
    61   6 C       62   6 C                                       1.3814497
    62   6 C       63   6 C                                       1.3861196
    63   6 C       64   6 C                                       1.3881663
    64   6 C       65  35 Br                                      1.9005324 (max)
    64   6 C       66   6 C                                       1.3904285
    61   6 C       67   6 C                                       1.4056759
    66   6 C       67   6 C                                       1.3843328
    68   6 C       69   6 C                                       1.3717860
    70   6 C       71   7 N                                       1.1478892
    72   6 C       73   7 N                                       1.1493007
     1   6 C       74   1 H                                       1.0812713
     6   6 C       75   1 H                                       1.0782626
    11   6 C       76   1 H                                       1.0774604 (min)
    21   6 C       77   1 H                                       1.0907830
    21   6 C       78   1 H                                       1.0917389
    22   6 C       79   1 H                                       1.0860065
    22   6 C       80   1 H                                       1.0873643
    22   6 C       81   1 H                                       1.0874712
    33   6 C       82   1 H                                       1.0890101
    33   6 C       83   1 H                                       1.0890385
    33   6 C       84   1 H                                       1.0861372
    35   6 C       85   1 H                                       1.0861334
    35   6 C       86   1 H                                       1.0890566
    35   6 C       87   1 H                                       1.0890196
    43   6 C       88   1 H                                       1.0917564
    43   6 C       89   1 H                                       1.0908675
    44   6 C       90   1 H                                       1.0875110
    44   6 C       91   1 H                                       1.0860708
    44   6 C       92   1 H                                       1.0873967
    50   6 C       93   1 H                                       1.0883219
    50   6 C       94   1 H                                       1.0942804
    51   6 C       95   1 H                                       1.0881424
    51   6 C       96   1 H                                       1.0860493
    51   6 C       97   1 H                                       1.0861773
    55   6 C       98   1 H                                       1.0941449
    55   6 C       99   1 H                                       1.0882164
    56   6 C      100   1 H                                       1.0881665
    56   6 C      101   1 H                                       1.0861718
    56   6 C      102   1 H                                       1.0861252
    57   6 C      103   1 H                                       1.0812582
    62   6 C      104   1 H                                       1.0788252
    63   6 C      105   1 H                                       1.0789182
    66   6 C      106   1 H                                       1.0776098

 * 7 distinct bonds (by element types)

   Z      Z             #   av. dist./Å        max./Å        min./Å
   1 H    6 C          33     1.0865080     1.0942804     1.0774604
   6 C    6 C          43     1.4140642     1.5315070     1.3717860
   6 C    7 N          14     1.3079258     1.4497855     1.1478456
   6 C    8 O           2     1.2190301     1.2194337     1.2186264
   6 C    9 F           2     1.3385700     1.3391365     1.3380035
   6 C   16 S           6     1.7346393     1.7543589     1.7214437
   6 C   35 Br          1     1.9005324     1.9005324     1.9005324


optimized geometry written to: xtbopt.mol


           -------------------------------------------------
          | TOTAL ENERGY             -194.756782046283 Eh   |
          | GRADIENT NORM               0.000606866918 Eh/α |
          | HOMO-LUMO GAP               0.574240142493 eV   |
           -------------------------------------------------

------------------------------------------------------------------------
 * finished run on 2022/01/27 at 09:52:19.550     
------------------------------------------------------------------------
 total:
 * wall-time:     0 d,  0 h,  0 min, 18.548 sec
 *  cpu-time:     0 d,  0 h,  2 min, 28.273 sec
 * ratio c/w:     7.994 speedup
 SCF:
 * wall-time:     0 d,  0 h,  0 min,  0.284 sec
 *  cpu-time:     0 d,  0 h,  0 min,  2.256 sec
 * ratio c/w:     7.957 speedup
 ANC optimizer:
 * wall-time:     0 d,  0 h,  0 min, 18.203 sec
 *  cpu-time:     0 d,  0 h,  2 min, 25.603 sec
 * ratio c/w:     7.999 speedup

