      -----------------------------------------------------------      
     |                   =====================                   |     
     |                           x T B                           |     
     |                   =====================                   |     
     |                         S. Grimme                         |     
     |          Mulliken Center for Theoretical Chemistry        |     
     |                    University of Bonn                     |     
      -----------------------------------------------------------      

   * xtb version 6.4.1 (unknown) compiled by 'oda6@login1.crc.pitt.edu' on 2021-06-25

   xtb is free software: you can redistribute it and/or modify it under
   the terms of the GNU Lesser General Public License as published by
   the Free Software Foundation, either version 3 of the License, or
   (at your option) any later version.
   
   xtb is distributed in the hope that it will be useful,
   but WITHOUT ANY WARRANTY; without even the implied warranty of
   MERCHANTABILITY or FITNESS FOR A PARTICULAR PURPOSE.  See the
   GNU Lesser General Public License for more details.
   
   Cite this work as:
   * C. Bannwarth, E. Caldeweyher, S. Ehlert, A. Hansen, P. Pracht,
     J. Seibert, S. Spicher, S. Grimme, WIREs Comput. Mol. Sci., 2020, 11,
     e01493. DOI: 10.1002/wcms.1493
   
   for GFN2-xTB:
   * C. Bannwarth, S. Ehlert and S. Grimme., J. Chem. Theory Comput., 2019,
     15, 1652-1671. DOI: 10.1021/acs.jctc.8b01176
   for GFN1-xTB:
   * S. Grimme, C. Bannwarth, P. Shushkov, J. Chem. Theory Comput., 2017,
     13, 1989-2009. DOI: 10.1021/acs.jctc.7b00118
   for GFN0-xTB:
   * P. Pracht, E. Caldeweyher, S. Ehlert, S. Grimme, ChemRxiv, 2019, preprint.
     DOI: 10.26434/chemrxiv.8326202.v1
   for GFN-FF:
   * S. Spicher and S. Grimme, Angew. Chem. Int. Ed., 2020, 59, 15665-15673.
     DOI: 10.1002/anie.202004239
   
   for DFT-D4:
   * E. Caldeweyher, C. Bannwarth and S. Grimme, J. Chem. Phys., 2017,
     147, 034112. DOI: 10.1063/1.4993215
   * E. Caldeweyher, S. Ehlert, A. Hansen, H. Neugebauer, S. Spicher,
     C. Bannwarth and S. Grimme, J. Chem. Phys., 2019, 150, 154122.
     DOI: 10.1063/1.5090222
   * E. Caldeweyher, J.-M. Mewes, S. Ehlert and S. Grimme, Phys. Chem. Chem. Phys.
     2020, 22, 8499-8512. DOI: 10.1039/D0CP00502A
   
   for sTDA-xTB:
   * S. Grimme and C. Bannwarth, J. Chem. Phys., 2016, 145, 054103.
     DOI: 10.1063/1.4959605
   
   in the mass-spec context:
   * V. Asgeirsson, C. Bauer and S. Grimme, Chem. Sci., 2017, 8, 4879.
     DOI: 10.1039/c7sc00601b
   * J. Koopman and S. Grimme, ACS Omega 2019, 4, 12, 15120-15133.
     DOI: 10.1021/acsomega.9b02011
   
   for metadynamics refer to:
   * S. Grimme, J. Chem. Theory Comput., 2019, 155, 2847-2862
     DOI: 10.1021/acs.jctc.9b00143
   
   for SPH calculations refer to:
   * S. Spicher and S. Grimme, J. Chem. Theory Comput., 2021, 17, 1701-1714
     DOI: 10.1021/acs.jctc.0c01306
   
   with help from (in alphabetical order)
   P. Atkinson, C. Bannwarth, F. Bohle, G. Brandenburg, E. Caldeweyher
   M. Checinski, S. Dohm, S. Ehlert, S. Ehrlich, I. Gerasimov, J. Koopman
   C. Lavigne, S. Lehtola, F. März, M. Müller, F. Musil, H. Neugebauer
   J. Pisarek, C. Plett, P. Pracht, J. Seibert, P. Shushkov, S. Spicher
   M. Stahn, M. Steiner, T. Strunk, J. Stückrath, T. Rose, and J. Unsleber
   
 * started run on 2022/02/01 at 16:18:32.046     

           -------------------------------------------------
          |                Calculation Setup                |
           -------------------------------------------------

          program call               : /ihome/ghutchison/oda6/xtb/xtb-641/bin/xtb ../../FF_optimized/16_92_64.mol -opt
          hostname                   : smp-n66
          coordinate file            : ../../FF_optimized/16_92_64.mol
          omp threads                :                     8
          number of atoms            :                   107
          number of electrons        :                   370
          charge                     :                     0
          spin                       :                   0.0
          first test random number   :      0.93804387549578

   ID    Z sym.   atoms
    1    6 C      1-3, 5, 8-10, 12, 13, 15-18, 22, 23, 25-28, 31, 32, 34-36,
                  38, 39, 41-46, 49, 50, 52-57, 59-61, 63-65, 67, 69-73, 75
    2    7 N      4, 19, 21, 29, 30, 33, 37, 40, 47, 48, 51, 74, 76
    3    8 O      6, 7, 62
    4   16 S      11, 14, 20, 24, 58
    5   17 Cl     66
    6    9 F      68
    7    1 H      77-107
########################################################################
[WARNING] Please study the warnings concerning your input carefully
-1- prog_main_parseArguments: the use of '-opt' is discouraged, please use '--opt' next time
########################################################################

           -------------------------------------------------
          |                 G F N 2 - x T B                 |
           -------------------------------------------------

        Reference                      10.1021/acs.jctc.8b01176
      * Hamiltonian:
        H0-scaling (s, p, d)           1.850000    2.230000    2.230000
        zeta-weighting                 0.500000
      * Dispersion:
        s8                             2.700000
        a1                             0.520000
        a2                             5.000000
        s9                             5.000000
      * Repulsion:
        kExp                           1.500000    1.000000
        rExp                           1.000000
      * Coulomb:
        alpha                          2.000000
        third order                    shell-resolved
        anisotropic                    true
        a3                             3.000000
        a5                             4.000000
        cn-shift                       1.200000
        cn-exp                         4.000000
        max-rad                        5.000000


          ...................................................
          :                      SETUP                      :
          :.................................................:
          :  # basis functions                 371          :
          :  # atomic orbitals                 365          :
          :  # shells                          189          :
          :  # electrons                       370          :
          :  max. iterations                   250          :
          :  Hamiltonian                  GFN2-xTB          :
          :  restarted?                      false          :
          :  GBSA solvation                  false          :
          :  PC potential                    false          :
          :  electronic temp.          300.0000000     K    :
          :  accuracy                    1.0000000          :
          :  -> integral cutoff          0.2500000E+02      :
          :  -> integral neglect         0.1000000E-07      :
          :  -> SCF convergence          0.1000000E-05 Eh   :
          :  -> wf. convergence          0.1000000E-03 e    :
          :  Broyden damping             0.4000000          :
          ...................................................

 iter      E             dE          RMSdq      gap      omega  full diag
   1   -207.1853992 -0.207185E+03  0.474E+00    1.43       0.0  T
   2   -207.4651948 -0.279796E+00  0.308E+00    0.52       1.0  T
   3   -207.5142208 -0.490260E-01  0.187E+00    0.54       1.0  T
   4   -207.6291838 -0.114963E+00  0.860E-01    0.56       1.0  T
   5   -207.6973777 -0.681940E-01  0.235E-01    0.28       1.0  T
   6   -207.7005965 -0.321874E-02  0.124E-01    0.45       1.0  T
   7   -207.7013055 -0.709035E-03  0.625E-02    0.39       1.0  T
   8   -207.7015005 -0.194956E-03  0.374E-02    0.41       1.0  T
   9   -207.7015339 -0.334615E-04  0.276E-02    0.40       1.0  T
  10   -207.7015570 -0.230886E-04  0.206E-02    0.40       1.0  T
  11   -207.7015727 -0.157006E-04  0.138E-02    0.40       1.0  T
  12   -207.7015806 -0.788888E-05  0.787E-03    0.41       1.2  T
  13   -207.7015833 -0.270366E-05  0.448E-03    0.41       2.2  T
  14   -207.7015846 -0.129824E-05  0.169E-03    0.41       5.7  T
  15   -207.7015847 -0.119312E-06  0.955E-04    0.41      10.1  T
  16   -207.7015847 -0.248145E-07  0.533E-04    0.41      18.1  T

   *** convergence criteria satisfied after 16 iterations ***

         #    Occupation            Energy/Eh            Energy/eV
      -------------------------------------------------------------
         1        2.0000           -1.0789357             -29.3593
       ...           ...                  ...                  ...
       179        2.0000           -0.4070751             -11.0771
       180        2.0000           -0.4050747             -11.0226
       181        2.0000           -0.3984201             -10.8416
       182        2.0000           -0.3858911             -10.5006
       183        2.0000           -0.3840424             -10.4503
       184        2.0000           -0.3730417             -10.1510
       185        1.9992           -0.3637987              -9.8995 (HOMO)
       186        0.0008           -0.3488427              -9.4925 (LUMO)
       187                         -0.3380993              -9.2001
       188                         -0.3100685              -8.4374
       189                         -0.3024008              -8.2287
       190                         -0.2902540              -7.8982
       ...                                ...                  ...
       365                          1.0688082              29.0838
      -------------------------------------------------------------
                  HL-Gap            0.0149560 Eh            0.4070 eV
             Fermi-level           -0.3563207 Eh           -9.6960 eV

 SCC (total)                   0 d,  0 h,  0 min,  0.277 sec
 SCC setup                      ...        0 min,  0.001 sec (  0.225%)
 Dispersion                     ...        0 min,  0.004 sec (  1.398%)
 classical contributions        ...        0 min,  0.000 sec (  0.047%)
 integral evaluation            ...        0 min,  0.013 sec (  4.600%)
 iterations                     ...        0 min,  0.224 sec ( 80.714%)
 molecular gradient             ...        0 min,  0.035 sec ( 12.633%)
 printout                       ...        0 min,  0.001 sec (  0.357%)

         :::::::::::::::::::::::::::::::::::::::::::::::::::::
         ::                     SUMMARY                     ::
         :::::::::::::::::::::::::::::::::::::::::::::::::::::
         :: total energy            -204.899028270553 Eh    ::
         :: gradient norm              0.300457050245 Eh/a0 ::
         :: HOMO-LUMO gap              0.406974378579 eV    ::
         ::.................................................::
         :: SCC energy              -207.701584743306 Eh    ::
         :: -> isotropic ES            0.164075599903 Eh    ::
         :: -> anisotropic ES          0.010617906094 Eh    ::
         :: -> anisotropic XC          0.125933804292 Eh    ::
         :: -> dispersion             -0.172370002482 Eh    ::
         :: repulsion energy           2.801300145169 Eh    ::
         :: add. restraining           0.000000000000 Eh    ::
         :: total charge               0.000000000001 e     ::
         :::::::::::::::::::::::::::::::::::::::::::::::::::::

      ----------------------------------------------------------- 
     |                   =====================                   |
     |                        A N C O P T                        |
     |                   =====================                   |
     |               Approximate Normal Coordinate               |
     |                Rational Function Optimizer                |
      ----------------------------------------------------------- 

          ...................................................
          :                      SETUP                      :
          :.................................................:
          :   optimization level            normal          :
          :   max. optcycles                   321          :
          :   ANC micro-cycles                  20          :
          :   degrees of freedom               315          :
          :.................................................:
          :   RF solver                   davidson          :
          :   write xtbopt.log                true          :
          :   linear?                        false          :
          :   energy convergence         0.5000000E-05 Eh   :
          :   grad. convergence          0.1000000E-02 Eh/α :
          :   maximium RF displ.         1.0000000          :
          :   Hlow (freq-cutoff)         0.1000000E-01      :
          :   Hmax (freq-cutoff)         5.0000000          :
          :   S6 in model hess.         20.0000000          :
          ...................................................

generating ANC from model Hessian ...
Using Lindh-Hessian (1995)
 Shifting diagonal of input Hessian by   1.003465619286785E-002
 Lowest  eigenvalues of input Hessian
    0.010000    0.000000    0.000000    0.000000    0.000000    0.000000
    0.000000    0.010052    0.010055    0.010104    0.010135    0.010157
    0.010189    0.010203    0.010262    0.010323    0.010425    0.010769
 Highest eigenvalues
    2.286587    2.312654    2.321610    2.481692    2.518382    2.536433
 

........................................................................
.............................. CYCLE    1 ..............................
........................................................................
   1   -207.7015848 -0.207702E+03  0.233E-04    0.41       0.0  T
   2   -207.7015848 -0.457533E-09  0.175E-04    0.41      55.1  T
   3   -207.7015848 -0.130774E-08  0.126E-04    0.41      76.8  T
     SCC iter.                  ...        0 min,  0.046 sec
     gradient                   ...        0 min,  0.034 sec
 * total energy  :  -204.8990283 Eh     change       -0.1327774E-07 Eh
   gradient norm :     0.3004611 Eh/α   predicted     0.0000000E+00 (-100.00%)
   displ. norm   :     0.4566562 α      lambda       -0.9676144E-01
   maximum displ.:     0.1219278 α      in ANC's #174, #192, #148, ...

........................................................................
.............................. CYCLE    2 ..............................
........................................................................
   1   -207.8368574 -0.207837E+03  0.332E-01    0.41       0.0  T
   2   -207.8380241 -0.116670E-02  0.199E-01    0.40       1.0  T
   3   -207.8376971  0.327001E-03  0.106E-01    0.40       1.0  T
   4   -207.8383710 -0.673942E-03  0.471E-02    0.38       1.0  T
   5   -207.8384972 -0.126113E-03  0.211E-02    0.39       1.0  T
   6   -207.8385151 -0.179326E-04  0.938E-03    0.39       1.0  T
   7   -207.8385200 -0.486517E-05  0.490E-03    0.39       2.0  T
   8   -207.8385213 -0.137290E-05  0.282E-03    0.39       3.4  T
   9   -207.8385215 -0.202045E-06  0.189E-03    0.39       5.1  T
  10   -207.8385217 -0.134329E-06  0.124E-03    0.39       7.8  T
  11   -207.8385217 -0.441622E-07  0.936E-04    0.39      10.3  T
  12   -207.8385217 -0.346002E-07  0.560E-04    0.39      17.2  T
     SCC iter.                  ...        0 min,  0.163 sec
     gradient                   ...        0 min,  0.033 sec
 * total energy  :  -204.9695240 Eh     change       -0.7049568E-01 Eh
   gradient norm :     0.1410236 Eh/α   predicted    -0.5851565E-01 ( -16.99%)
   displ. norm   :     0.4589673 α      lambda       -0.4071489E-01
   maximum displ.:     0.1084541 α      in ANC's #58, #68, #174, ...

........................................................................
.............................. CYCLE    3 ..............................
........................................................................
   1   -207.9001627 -0.207900E+03  0.262E-01    0.36       0.0  T
   2   -207.9010182 -0.855519E-03  0.155E-01    0.38       1.0  T
   3   -207.9008965  0.121647E-03  0.824E-02    0.37       1.0  T
   4   -207.9012476 -0.351030E-03  0.386E-02    0.36       1.0  T
   5   -207.9013392 -0.916668E-04  0.154E-02    0.37       1.0  T
   6   -207.9013468 -0.758080E-05  0.718E-03    0.36       1.3  T
   7   -207.9013493 -0.252160E-05  0.406E-03    0.37       2.4  T
   8   -207.9013500 -0.727007E-06  0.266E-03    0.36       3.6  T
   9   -207.9013503 -0.203654E-06  0.193E-03    0.37       5.0  T
  10   -207.9013504 -0.140748E-06  0.130E-03    0.36       7.4  T
  11   -207.9013505 -0.626326E-07  0.877E-04    0.36      11.0  T
  12   -207.9013505 -0.331006E-07  0.489E-04    0.36      19.8  T
     SCC iter.                  ...        0 min,  0.159 sec
     gradient                   ...        0 min,  0.033 sec
 * total energy  :  -204.9948679 Eh     change       -0.2534393E-01 Eh
   gradient norm :     0.0477132 Eh/α   predicted    -0.2464576E-01 (  -2.75%)
   displ. norm   :     0.4576422 α      lambda       -0.1019862E-01
   maximum displ.:     0.1627464 α      in ANC's #58, #33, #52, ...

........................................................................
.............................. CYCLE    4 ..............................
........................................................................
   1   -207.9065827 -0.207907E+03  0.157E-01    0.38       0.0  T
   2   -207.9067761 -0.193376E-03  0.911E-02    0.37       1.0  T
   3   -207.9066650  0.111049E-03  0.458E-02    0.38       1.0  T
   4   -207.9067998 -0.134828E-03  0.192E-02    0.37       1.0  T
   5   -207.9068319 -0.320400E-04  0.579E-03    0.37       1.7  T
   6   -207.9068332 -0.131225E-05  0.332E-03    0.37       2.9  T
   7   -207.9068337 -0.503696E-06  0.192E-03    0.37       5.0  T
   8   -207.9068338 -0.142123E-06  0.131E-03    0.37       7.4  T
   9   -207.9068339 -0.397300E-07  0.958E-04    0.37      10.1  T
  10   -207.9068339 -0.369345E-07  0.586E-04    0.37      16.5  T
     SCC iter.                  ...        0 min,  0.139 sec
     gradient                   ...        0 min,  0.034 sec
 * total energy  :  -205.0019351 Eh     change       -0.7067193E-02 Eh
   gradient norm :     0.0281763 Eh/α   predicted    -0.6167558E-02 ( -12.73%)
   displ. norm   :     0.6476488 α      lambda       -0.8423515E-02
   maximum displ.:     0.1958299 α      in ANC's #58, #33, #1, ...

........................................................................
.............................. CYCLE    5 ..............................
........................................................................
   1   -207.8944259 -0.207894E+03  0.362E-01    0.35       0.0  T
   2   -207.8948057 -0.379779E-03  0.201E-01    0.38       1.0  T
   3   -207.8944852  0.320421E-03  0.618E-02    0.35       1.0  T
   4   -207.8948732 -0.387950E-03  0.241E-02    0.38       1.0  T
   5   -207.8949298 -0.566464E-04  0.853E-03    0.37       1.1  T
   6   -207.8949319 -0.203880E-05  0.500E-03    0.37       1.9  T
   7   -207.8949332 -0.134081E-05  0.220E-03    0.37       4.4  T
   8   -207.8949334 -0.197394E-06  0.145E-03    0.37       6.7  T
   9   -207.8949335 -0.490479E-07  0.106E-03    0.37       9.2  T
  10   -207.8949335 -0.403751E-07  0.688E-04    0.37      14.0  T
  11   -207.8949335 -0.194744E-07  0.427E-04    0.37      22.6  T
     SCC iter.                  ...        0 min,  0.146 sec
     gradient                   ...        0 min,  0.033 sec
 * total energy  :  -205.0032816 Eh     change       -0.1346550E-02 Eh
   gradient norm :     0.0510901 Eh/α   predicted    -0.5978522E-02 ( 343.99%)
   displ. norm   :     0.4003998 α      lambda       -0.9164428E-02
   maximum displ.:     0.1355147 α      in ANC's #27, #26, #33, ...

........................................................................
.............................. CYCLE    6 ..............................
........................................................................
   1   -207.9046334 -0.207905E+03  0.256E-01    0.42       0.0  T
   2   -207.9047767 -0.143334E-03  0.142E-01    0.42       1.0  T
   3   -207.9047177  0.589697E-04  0.315E-02    0.41       1.0  T
   4   -207.9048174 -0.997220E-04  0.943E-03    0.42       1.0  T
   5   -207.9048238 -0.640103E-05  0.438E-03    0.41       2.2  T
   6   -207.9048246 -0.797946E-06  0.179E-03    0.42       5.4  T
   7   -207.9048247 -0.983537E-07  0.925E-04    0.41      10.5  T
   8   -207.9048248 -0.667756E-07  0.429E-04    0.42      22.5  T
     SCC iter.                  ...        0 min,  0.107 sec
     gradient                   ...        0 min,  0.034 sec
 * total energy  :  -205.0078786 Eh     change       -0.4596937E-02 Eh
   gradient norm :     0.0421238 Eh/α   predicted    -0.5316855E-02 (  15.66%)
   displ. norm   :     0.3394132 α      lambda       -0.3007837E-02
   maximum displ.:     0.1291966 α      in ANC's #33, #23, #27, ...

........................................................................
.............................. CYCLE    7 ..............................
........................................................................
   1   -207.8982282 -0.207898E+03  0.812E-02    0.41       0.0  T
   2   -207.8982428 -0.146225E-04  0.494E-02    0.44       1.0  T
   3   -207.8981346  0.108193E-03  0.356E-02    0.41       1.0  T
   4   -207.8982675 -0.132876E-03  0.642E-03    0.43       1.5  T
   5   -207.8982703 -0.281525E-05  0.311E-03    0.43       3.1  T
   6   -207.8982709 -0.649481E-06  0.132E-03    0.43       7.3  T
   7   -207.8982710 -0.758822E-07  0.568E-04    0.43      17.0  T
   8   -207.8982710 -0.124267E-07  0.289E-04    0.43      33.5  T
     SCC iter.                  ...        0 min,  0.110 sec
     gradient                   ...        0 min,  0.034 sec
 * total energy  :  -205.0100149 Eh     change       -0.2136333E-02 Eh
   gradient norm :     0.0184349 Eh/α   predicted    -0.1677172E-02 ( -21.49%)
   displ. norm   :     0.5726256 α      lambda       -0.3165360E-02
   maximum displ.:     0.2155588 α      in ANC's #33, #23, #19, ...

........................................................................
.............................. CYCLE    8 ..............................
........................................................................
   1   -207.8954748 -0.207895E+03  0.140E-01    0.43       0.0  T
   2   -207.8955100 -0.351564E-04  0.810E-02    0.47       1.0  T
   3   -207.8952087  0.301235E-03  0.498E-02    0.42       1.0  T
   4   -207.8955523 -0.343613E-03  0.872E-03    0.46       1.1  T
   5   -207.8955561 -0.375827E-05  0.473E-03    0.46       2.0  T
   6   -207.8955572 -0.105830E-05  0.203E-03    0.46       4.8  T
   7   -207.8955574 -0.186465E-06  0.895E-04    0.46      10.8  T
   8   -207.8955574 -0.365631E-07  0.459E-04    0.46      21.0  T
     SCC iter.                  ...        0 min,  0.108 sec
     gradient                   ...        0 min,  0.033 sec
 * total energy  :  -205.0126090 Eh     change       -0.2594091E-02 Eh
   gradient norm :     0.0196609 Eh/α   predicted    -0.2101643E-02 ( -18.98%)
   displ. norm   :     0.6414662 α      lambda       -0.3039763E-02
   maximum displ.:     0.1946334 α      in ANC's #23, #33, #19, ...

........................................................................
.............................. CYCLE    9 ..............................
........................................................................
   1   -207.8980515 -0.207898E+03  0.176E-01    0.46       0.0  T
   2   -207.8981067 -0.552193E-04  0.102E-01    0.52       1.0  T
   3   -207.8975641  0.542583E-03  0.637E-02    0.45       1.0  T
   4   -207.8981797 -0.615619E-03  0.106E-02    0.51       1.0  T
   5   -207.8981850 -0.526512E-05  0.592E-03    0.51       1.6  T
   6   -207.8981866 -0.165575E-05  0.246E-03    0.50       3.9  T
   7   -207.8981869 -0.271170E-06  0.113E-03    0.50       8.6  T
   8   -207.8981870 -0.623809E-07  0.564E-04    0.50      17.2  T
   9   -207.8981870 -0.156522E-07  0.302E-04    0.50      32.0  T
     SCC iter.                  ...        0 min,  0.119 sec
     gradient                   ...        0 min,  0.033 sec
 * total energy  :  -205.0149410 Eh     change       -0.2332008E-02 Eh
   gradient norm :     0.0233411 Eh/α   predicted    -0.2145282E-02 (  -8.01%)
   displ. norm   :     0.6647882 α      lambda       -0.2892766E-02
   maximum displ.:     0.1994972 α      in ANC's #33, #19, #23, ...

........................................................................
.............................. CYCLE   10 ..............................
........................................................................
   1   -207.8935809 -0.207894E+03  0.222E-01    0.50       0.0  T
   2   -207.8936704 -0.895109E-04  0.127E-01    0.58       1.0  T
   3   -207.8928819  0.788560E-03  0.754E-02    0.49       1.0  T
   4   -207.8937746 -0.892735E-03  0.125E-02    0.56       1.0  T
   5   -207.8937829 -0.829615E-05  0.675E-03    0.56       1.4  T
   6   -207.8937849 -0.195184E-05  0.285E-03    0.56       3.4  T
   7   -207.8937853 -0.434510E-06  0.119E-03    0.56       8.1  T
   8   -207.8937853 -0.468845E-07  0.640E-04    0.56      15.1  T
   9   -207.8937854 -0.255195E-07  0.326E-04    0.56      29.7  T
     SCC iter.                  ...        0 min,  0.124 sec
     gradient                   ...        0 min,  0.034 sec
 * total energy  :  -205.0159931 Eh     change       -0.1052117E-02 Eh
   gradient norm :     0.0371719 Eh/α   predicted    -0.2085605E-02 (  98.23%)
   displ. norm   :     0.4640770 α      lambda       -0.3543635E-02
   maximum displ.:     0.1478715 α      in ANC's #6, #14, #19, ...

........................................................................
.............................. CYCLE   11 ..............................
........................................................................
   1   -207.9063492 -0.207906E+03  0.203E-01    0.56       0.0  T
   2   -207.9064225 -0.732926E-04  0.114E-01    0.60       1.0  T
   3   -207.9060745  0.347925E-03  0.498E-02    0.55       1.0  T
   4   -207.9064756 -0.401060E-03  0.898E-03    0.60       1.1  T
   5   -207.9064800 -0.438237E-05  0.489E-03    0.59       2.0  T
   6   -207.9064809 -0.896559E-06  0.197E-03    0.59       4.9  T
   7   -207.9064811 -0.204532E-06  0.851E-04    0.59      11.4  T
   8   -207.9064811 -0.360013E-07  0.442E-04    0.59      21.9  T
     SCC iter.                  ...        0 min,  0.110 sec
     gradient                   ...        0 min,  0.033 sec
 * total energy  :  -205.0180511 Eh     change       -0.2057937E-02 Eh
   gradient norm :     0.0191707 Eh/α   predicted    -0.2153411E-02 (   4.64%)
   displ. norm   :     0.4212295 α      lambda       -0.1550371E-02
   maximum displ.:     0.1318213 α      in ANC's #8, #16, #19, ...

........................................................................
.............................. CYCLE   12 ..............................
........................................................................
   1   -207.9135703 -0.207914E+03  0.118E-01    0.59       0.0  T
   2   -207.9136069 -0.365502E-04  0.682E-02    0.64       1.0  T
   3   -207.9133582  0.248692E-03  0.447E-02    0.59       1.0  T
   4   -207.9136447 -0.286501E-03  0.945E-03    0.63       1.0  T
   5   -207.9136526 -0.789461E-05  0.369E-03    0.63       2.6  T
   6   -207.9136531 -0.508473E-06  0.183E-03    0.63       5.3  T
   7   -207.9136532 -0.137451E-06  0.742E-04    0.63      13.0  T
   8   -207.9136532 -0.215434E-07  0.398E-04    0.63      24.3  T
     SCC iter.                  ...        0 min,  0.110 sec
     gradient                   ...        0 min,  0.034 sec
 * total energy  :  -205.0191483 Eh     change       -0.1097270E-02 Eh
   gradient norm :     0.0142329 Eh/α   predicted    -0.9127306E-03 ( -16.82%)
   displ. norm   :     0.6858190 α      lambda       -0.1880234E-02
   maximum displ.:     0.2024388 α      in ANC's #16, #19, #8, ...

........................................................................
.............................. CYCLE   13 ..............................
........................................................................
   1   -207.9080413 -0.207908E+03  0.154E-01    0.63       0.0  T
   2   -207.9080723 -0.310047E-04  0.910E-02    0.69       1.0  T
   3   -207.9074838  0.588530E-03  0.668E-02    0.62       1.0  T
   4   -207.9081585 -0.674659E-03  0.114E-02    0.68       1.0  T
   5   -207.9081673 -0.883764E-05  0.498E-03    0.68       1.9  T
   6   -207.9081683 -0.968780E-06  0.238E-03    0.68       4.1  T
   7   -207.9081685 -0.235695E-06  0.105E-03    0.67       9.2  T
   8   -207.9081685 -0.329140E-07  0.617E-04    0.67      15.7  T
   9   -207.9081686 -0.142476E-07  0.399E-04    0.67      24.3  T
     SCC iter.                  ...        0 min,  0.124 sec
     gradient                   ...        0 min,  0.034 sec
 * total energy  :  -205.0203756 Eh     change       -0.1227312E-02 Eh
   gradient norm :     0.0168053 Eh/α   predicted    -0.1382301E-02 (  12.63%)
   displ. norm   :     0.4831409 α      lambda       -0.1665322E-02
   maximum displ.:     0.1408296 α      in ANC's #19, #16, #2, ...

........................................................................
.............................. CYCLE   14 ..............................
........................................................................
   1   -207.9281815 -0.207928E+03  0.132E-01    0.69       0.0  T
   2   -207.9282147 -0.331221E-04  0.747E-02    0.71       1.0  T
   3   -207.9280963  0.118342E-03  0.312E-02    0.68       1.0  T
   4   -207.9282270 -0.130676E-03  0.843E-03    0.71       1.1  T
   5   -207.9282341 -0.707530E-05  0.375E-03    0.70       2.6  T
   6   -207.9282347 -0.616862E-06  0.173E-03    0.70       5.6  T
   7   -207.9282348 -0.101928E-06  0.800E-04    0.70      12.1  T
   8   -207.9282348 -0.294742E-07  0.474E-04    0.70      20.4  T
     SCC iter.                  ...        0 min,  0.111 sec
     gradient                   ...        0 min,  0.034 sec
 * total energy  :  -205.0212039 Eh     change       -0.8282898E-03 Eh
   gradient norm :     0.0311120 Eh/α   predicted    -0.1027026E-02 (  23.99%)
   displ. norm   :     0.4979652 α      lambda       -0.1266054E-02
   maximum displ.:     0.1555882 α      in ANC's #16, #8, #2, ...

........................................................................
.............................. CYCLE   15 ..............................
........................................................................
   1   -207.9145492 -0.207915E+03  0.106E-01    0.70       0.0  T
   2   -207.9145680 -0.188182E-04  0.624E-02    0.74       1.0  T
   3   -207.9143222  0.245787E-03  0.439E-02    0.70       1.0  T
   4   -207.9146038 -0.281541E-03  0.710E-03    0.73       1.4  T
   5   -207.9146070 -0.323633E-05  0.365E-03    0.73       2.6  T
   6   -207.9146078 -0.763847E-06  0.155E-03    0.73       6.2  T
   7   -207.9146078 -0.691974E-07  0.769E-04    0.73      12.6  T
   8   -207.9146078 -0.290277E-07  0.393E-04    0.73      24.6  T
     SCC iter.                  ...        0 min,  0.109 sec
     gradient                   ...        0 min,  0.033 sec
 * total energy  :  -205.0220106 Eh     change       -0.8066971E-03 Eh
   gradient norm :     0.0184716 Eh/α   predicted    -0.7899990E-03 (  -2.07%)
   displ. norm   :     0.4251003 α      lambda       -0.1668316E-02
   maximum displ.:     0.1418339 α      in ANC's #2, #5, #16, ...

........................................................................
.............................. CYCLE   16 ..............................
........................................................................
   1   -207.9095375 -0.207910E+03  0.970E-02    0.73       0.0  T
   2   -207.9095695 -0.320533E-04  0.558E-02    0.74       1.0  T
   3   -207.9095057  0.638434E-04  0.275E-02    0.73       1.0  T
   4   -207.9095798 -0.740655E-04  0.694E-03    0.74       1.4  T
   5   -207.9095839 -0.413434E-05  0.312E-03    0.74       3.1  T
   6   -207.9095842 -0.324690E-06  0.171E-03    0.74       5.6  T
   7   -207.9095844 -0.156479E-06  0.755E-04    0.74      12.8  T
   8   -207.9095844 -0.290244E-07  0.335E-04    0.74      28.9  T
     SCC iter.                  ...        0 min,  0.109 sec
     gradient                   ...        0 min,  0.034 sec
 * total energy  :  -205.0223296 Eh     change       -0.3189627E-03 Eh
   gradient norm :     0.0412915 Eh/α   predicted    -0.9849063E-03 ( 208.78%)
   displ. norm   :     0.3334750 α      lambda       -0.1549398E-02
   maximum displ.:     0.1208054 α      in ANC's #5, #19, #2, ...

........................................................................
.............................. CYCLE   17 ..............................
........................................................................
   1   -207.9066160 -0.207907E+03  0.102E-01    0.74       0.0  T
   2   -207.9066332 -0.172379E-04  0.584E-02    0.76       1.0  T
   3   -207.9065024  0.130809E-03  0.346E-02    0.73       1.0  T
   4   -207.9066505 -0.148103E-03  0.542E-03    0.75       1.8  T
   5   -207.9066523 -0.179181E-05  0.286E-03    0.75       3.4  T
   6   -207.9066527 -0.347450E-06  0.132E-03    0.75       7.3  T
   7   -207.9066527 -0.757556E-07  0.421E-04    0.75      23.0  T
   8   -207.9066527 -0.758422E-08  0.174E-04    0.75      55.5  T
     SCC iter.                  ...        0 min,  0.110 sec
     gradient                   ...        0 min,  0.034 sec
 * total energy  :  -205.0233551 Eh     change       -0.1025481E-02 Eh
   gradient norm :     0.0233337 Eh/α   predicted    -0.8608519E-03 ( -16.05%)
   displ. norm   :     0.4450894 α      lambda       -0.1675759E-02
   maximum displ.:     0.1877274 α      in ANC's #5, #2, #10, ...

........................................................................
.............................. CYCLE   18 ..............................
........................................................................
   1   -207.9238294 -0.207924E+03  0.139E-01    0.77       0.0  T
   2   -207.9238856 -0.561873E-04  0.778E-02    0.78       1.0  T
   3   -207.9238198  0.657350E-04  0.333E-02    0.77       1.0  T
   4   -207.9239045 -0.846375E-04  0.666E-03    0.77       1.5  T
   5   -207.9239074 -0.291040E-05  0.332E-03    0.78       2.9  T
   6   -207.9239079 -0.529220E-06  0.197E-03    0.77       4.9  T
   7   -207.9239082 -0.273258E-06  0.692E-04    0.77      14.0  T
   8   -207.9239082 -0.217142E-07  0.318E-04    0.77      30.4  T
     SCC iter.                  ...        0 min,  0.110 sec
     gradient                   ...        0 min,  0.033 sec
 * total energy  :  -205.0232376 Eh     change        0.1174238E-03 Eh
   gradient norm :     0.0532663 Eh/α   predicted    -0.1003867E-02 (-954.91%)
   displ. norm   :     0.2686782 α      lambda       -0.2187873E-02
   maximum displ.:     0.0952701 α      in ANC's #5, #2, #16, ...

........................................................................
.............................. CYCLE   19 ..............................
........................................................................
   1   -207.9167244 -0.207917E+03  0.104E-01    0.77       0.0  T
   2   -207.9167445 -0.200953E-04  0.596E-02    0.78       1.0  T
   3   -207.9165967  0.147786E-03  0.396E-02    0.76       1.0  T
   4   -207.9167676 -0.170906E-03  0.507E-03    0.77       1.9  T
   5   -207.9167689 -0.131604E-05  0.299E-03    0.77       3.2  T
   6   -207.9167695 -0.607659E-06  0.126E-03    0.77       7.7  T
   7   -207.9167696 -0.473707E-07  0.496E-04    0.77      19.5  T
   8   -207.9167696 -0.143859E-07  0.197E-04    0.77      49.2  T
     SCC iter.                  ...        0 min,  0.112 sec
     gradient                   ...        0 min,  0.034 sec
 * total energy  :  -205.0246466 Eh     change       -0.1408969E-02 Eh
   gradient norm :     0.0145304 Eh/α   predicted    -0.1172909E-02 ( -16.75%)
   displ. norm   :     0.4991646 α      lambda       -0.1252645E-02
   maximum displ.:     0.1950658 α      in ANC's #5, #2, #6, ...

........................................................................
.............................. CYCLE   20 ..............................
........................................................................
   1   -207.9113650 -0.207911E+03  0.102E-01    0.76       0.0  T
   2   -207.9113828 -0.178019E-04  0.573E-02    0.77       1.0  T
   3   -207.9113252  0.575965E-04  0.230E-02    0.76       1.0  T
   4   -207.9113917 -0.665119E-04  0.410E-03    0.77       2.4  T
   5   -207.9113923 -0.650977E-06  0.257E-03    0.77       3.8  T
   6   -207.9113927 -0.374858E-06  0.124E-03    0.77       7.8  T
   7   -207.9113928 -0.729934E-07  0.520E-04    0.77      18.6  T
   8   -207.9113928 -0.147629E-07  0.231E-04    0.77      41.9  T
     SCC iter.                  ...        0 min,  0.113 sec
     gradient                   ...        0 min,  0.034 sec
 * total energy  :  -205.0252782 Eh     change       -0.6316314E-03 Eh
   gradient norm :     0.0297331 Eh/α   predicted    -0.7823807E-03 (  23.87%)
   displ. norm   :     0.4889836 α      lambda       -0.1369547E-02
   maximum displ.:     0.2080087 α      in ANC's #5, #2, #6, ...
 * RMSD in coord.:     0.6776632 α      energy gain  -0.1262500E+00 Eh

generating ANC from model Hessian ...
Using Lindh-Hessian (1995)
 Shifting diagonal of input Hessian by   9.998210005604427E-003
 Lowest  eigenvalues of input Hessian
    0.000000    0.000000    0.000000    0.000000    0.000000    0.000000
    0.010000    0.010013    0.010021    0.010075    0.010113    0.010143
    0.010180    0.010247    0.010278    0.010560    0.010669    0.010736
 Highest eigenvalues
    2.266280    2.277561    2.419174    2.598920    2.624282    2.646231
 

........................................................................
.............................. CYCLE   21 ..............................
........................................................................
   1   -207.9111499 -0.207911E+03  0.875E-02    0.77       0.0  T
   2   -207.9111629 -0.130128E-04  0.502E-02    0.79       1.0  T
   3   -207.9111115  0.513325E-04  0.212E-02    0.77       1.0  T
   4   -207.9111688 -0.572208E-04  0.489E-03    0.79       2.0  T
   5   -207.9111704 -0.160850E-05  0.273E-03    0.79       3.5  T
   6   -207.9111708 -0.448319E-06  0.118E-03    0.79       8.2  T
   7   -207.9111709 -0.476123E-07  0.453E-04    0.79      21.3  T
   8   -207.9111709 -0.109110E-07  0.224E-04    0.79      43.2  T
     SCC iter.                  ...        0 min,  0.107 sec
     gradient                   ...        0 min,  0.033 sec
 * total energy  :  -205.0261779 Eh     change       -0.8996572E-03 Eh
   gradient norm :     0.0229755 Eh/α   predicted     0.0000000E+00 (-100.00%)
   displ. norm   :     0.1669992 α      lambda       -0.8666901E-03
   maximum displ.:     0.0583141 α      in ANC's #17, #3, #6, ...

........................................................................
.............................. CYCLE   22 ..............................
........................................................................
   1   -207.9205213 -0.207921E+03  0.662E-02    0.79       0.0  T
   2   -207.9205298 -0.853812E-05  0.373E-02    0.78       1.0  T
   3   -207.9205105  0.193778E-04  0.136E-02    0.79       1.0  T
   4   -207.9205332 -0.227389E-04  0.300E-03    0.78       3.2  T
   5   -207.9205338 -0.583320E-06  0.170E-03    0.79       5.7  T
   6   -207.9205339 -0.161561E-06  0.808E-04    0.78      12.0  T
   7   -207.9205340 -0.304736E-07  0.289E-04    0.79      33.5  T
     SCC iter.                  ...        0 min,  0.093 sec
     gradient                   ...        0 min,  0.033 sec
 * total energy  :  -205.0267556 Eh     change       -0.5776982E-03 Eh
   gradient norm :     0.0064958 Eh/α   predicted    -0.4455920E-03 ( -22.87%)
   displ. norm   :     0.3906470 α      lambda       -0.1191611E-02
   maximum displ.:     0.1365532 α      in ANC's #6, #17, #18, ...

........................................................................
.............................. CYCLE   23 ..............................
........................................................................
   1   -207.9300850 -0.207930E+03  0.140E-01    0.79       0.0  T
   2   -207.9301121 -0.271351E-04  0.784E-02    0.78       1.0  T
   3   -207.9300497  0.624272E-04  0.238E-02    0.79       1.0  T
   4   -207.9301259 -0.761864E-04  0.496E-03    0.78       1.9  T
   5   -207.9301270 -0.112067E-05  0.306E-03    0.78       3.2  T
   6   -207.9301275 -0.479124E-06  0.134E-03    0.78       7.2  T
   7   -207.9301276 -0.928204E-07  0.539E-04    0.78      18.0  T
   8   -207.9301276 -0.129526E-07  0.294E-04    0.78      32.9  T
     SCC iter.                  ...        0 min,  0.107 sec
     gradient                   ...        0 min,  0.033 sec
 * total energy  :  -205.0266506 Eh     change        0.1049679E-03 Eh
   gradient norm :     0.0301990 Eh/α   predicted    -0.6867470E-03 (-754.24%)
   displ. norm   :     0.2060155 α      lambda       -0.1565172E-02
   maximum displ.:     0.0768193 α      in ANC's #17, #3, #9, ...

........................................................................
.............................. CYCLE   24 ..............................
........................................................................
   1   -207.9273117 -0.207927E+03  0.109E-01    0.78       0.0  T
   2   -207.9273278 -0.160902E-04  0.603E-02    0.78       1.0  T
   3   -207.9273238  0.398750E-05  0.102E-02    0.78       1.0  T
   4   -207.9273346 -0.108253E-04  0.255E-03    0.78       3.8  T
   5   -207.9273346  0.583765E-07  0.171E-03    0.78       5.6  T
   6   -207.9273348 -0.229882E-06  0.489E-04    0.78      19.8  T
   7   -207.9273348 -0.166395E-07  0.213E-04    0.78      45.5  T
     SCC iter.                  ...        0 min,  0.092 sec
     gradient                   ...        0 min,  0.033 sec
 * total energy  :  -205.0276589 Eh     change       -0.1008254E-02 Eh
   gradient norm :     0.0159029 Eh/α   predicted    -0.8158060E-03 ( -19.09%)
   displ. norm   :     0.3410511 α      lambda       -0.7827535E-03
   maximum displ.:     0.1236876 α      in ANC's #17, #6, #18, ...

........................................................................
.............................. CYCLE   25 ..............................
........................................................................
   1   -207.9222465 -0.207922E+03  0.717E-02    0.77       0.0  T
   2   -207.9222528 -0.637874E-05  0.403E-02    0.77       1.0  T
   3   -207.9222395  0.133304E-04  0.121E-02    0.78       1.0  T
   4   -207.9222563 -0.167646E-04  0.246E-03    0.77       3.9  T
   5   -207.9222564 -0.128373E-06  0.154E-03    0.77       6.3  T
   6   -207.9222565 -0.117640E-06  0.657E-04    0.77      14.7  T
   7   -207.9222565 -0.335730E-07  0.239E-04    0.77      40.5  T
     SCC iter.                  ...        0 min,  0.093 sec
     gradient                   ...        0 min,  0.033 sec
 * total energy  :  -205.0282464 Eh     change       -0.5875541E-03 Eh
   gradient norm :     0.0084125 Eh/α   predicted    -0.4369048E-03 ( -25.64%)
   displ. norm   :     0.6141363 α      lambda       -0.1073084E-02
   maximum displ.:     0.2360945 α      in ANC's #6, #17, #18, ...

........................................................................
.............................. CYCLE   26 ..............................
........................................................................
   1   -207.9168043 -0.207917E+03  0.762E-02    0.77       0.0  T
   2   -207.9168113 -0.704359E-05  0.440E-02    0.77       1.0  T
   3   -207.9167765  0.347965E-04  0.177E-02    0.77       1.0  T
   4   -207.9168157 -0.391794E-04  0.379E-03    0.77       2.5  T
   5   -207.9168164 -0.651789E-06  0.208E-03    0.77       4.6  T
   6   -207.9168165 -0.153276E-06  0.105E-03    0.77       9.2  T
   7   -207.9168166 -0.711819E-07  0.409E-04    0.77      23.6  T
   8   -207.9168166 -0.873581E-08  0.200E-04    0.77      48.3  T
     SCC iter.                  ...        0 min,  0.107 sec
     gradient                   ...        0 min,  0.034 sec
 * total energy  :  -205.0289800 Eh     change       -0.7335163E-03 Eh
   gradient norm :     0.0135597 Eh/α   predicted    -0.7389069E-03 (   0.73%)
   displ. norm   :     0.4761954 α      lambda       -0.8659802E-03
   maximum displ.:     0.2060053 α      in ANC's #6, #3, #9, ...

........................................................................
.............................. CYCLE   27 ..............................
........................................................................
   1   -207.9172409 -0.207917E+03  0.761E-02    0.77       0.0  T
   2   -207.9172490 -0.814707E-05  0.430E-02    0.77       1.0  T
   3   -207.9172348  0.142452E-04  0.129E-02    0.77       1.0  T
   4   -207.9172530 -0.182275E-04  0.282E-03    0.77       3.4  T
   5   -207.9172531 -0.133728E-06  0.171E-03    0.77       5.6  T
   6   -207.9172533 -0.194756E-06  0.739E-04    0.77      13.1  T
   7   -207.9172534 -0.416210E-07  0.282E-04    0.77      34.3  T
     SCC iter.                  ...        0 min,  0.094 sec
     gradient                   ...        0 min,  0.033 sec
 * total energy  :  -205.0296516 Eh     change       -0.6716013E-03 Eh
   gradient norm :     0.0140569 Eh/α   predicted    -0.5311821E-03 ( -20.91%)
   displ. norm   :     0.5267893 α      lambda       -0.1117204E-02
   maximum displ.:     0.2434641 α      in ANC's #6, #3, #9, ...

........................................................................
.............................. CYCLE   28 ..............................
........................................................................
   1   -207.9219336 -0.207922E+03  0.863E-02    0.77       0.0  T
   2   -207.9219443 -0.106287E-04  0.485E-02    0.78       1.0  T
   3   -207.9219188  0.254212E-04  0.159E-02    0.77       1.0  T
   4   -207.9219490 -0.301961E-04  0.343E-03    0.78       2.8  T
   5   -207.9219495 -0.417399E-06  0.210E-03    0.78       4.6  T
   6   -207.9219497 -0.210005E-06  0.103E-03    0.78       9.4  T
   7   -207.9219497 -0.574643E-07  0.359E-04    0.78      26.9  T
   8   -207.9219497 -0.647842E-08  0.208E-04    0.78      46.5  T
     SCC iter.                  ...        0 min,  0.108 sec
     gradient                   ...        0 min,  0.034 sec
 * total energy  :  -205.0303847 Eh     change       -0.7331893E-03 Eh
   gradient norm :     0.0104874 Eh/α   predicted    -0.7136203E-03 (  -2.67%)
   displ. norm   :     0.6909941 α      lambda       -0.1045010E-02
   maximum displ.:     0.2979616 α      in ANC's #6, #3, #9, ...

........................................................................
.............................. CYCLE   29 ..............................
........................................................................
   1   -207.9210139 -0.207921E+03  0.965E-02    0.78       0.0  T
   2   -207.9210249 -0.110377E-04  0.549E-02    0.79       1.0  T
   3   -207.9209994  0.255345E-04  0.158E-02    0.78       1.0  T
   4   -207.9210299 -0.305260E-04  0.382E-03    0.78       2.5  T
   5   -207.9210304 -0.489038E-06  0.216E-03    0.78       4.5  T
   6   -207.9210305 -0.130157E-06  0.110E-03    0.78       8.8  T
   7   -207.9210306 -0.908453E-07  0.400E-04    0.78      24.1  T
   8   -207.9210306 -0.875110E-08  0.230E-04    0.78      42.0  T
     SCC iter.                  ...        0 min,  0.110 sec
     gradient                   ...        0 min,  0.033 sec
 * total energy  :  -205.0310899 Eh     change       -0.7051570E-03 Eh
   gradient norm :     0.0104036 Eh/α   predicted    -0.7719880E-03 (   9.48%)
   displ. norm   :     0.5845507 α      lambda       -0.8550574E-03
   maximum displ.:     0.2730565 α      in ANC's #6, #3, #9, ...

........................................................................
.............................. CYCLE   30 ..............................
........................................................................
   1   -207.9262247 -0.207926E+03  0.672E-02    0.79       0.0  T
   2   -207.9262312 -0.644551E-05  0.385E-02    0.80       1.0  T
   3   -207.9261912  0.399212E-04  0.181E-02    0.78       1.0  T
   4   -207.9262356 -0.443992E-04  0.364E-03    0.80       2.7  T
   5   -207.9262363 -0.716101E-06  0.207E-03    0.79       4.7  T
   6   -207.9262365 -0.187798E-06  0.947E-04    0.79      10.2  T
   7   -207.9262366 -0.344315E-07  0.409E-04    0.79      23.6  T
     SCC iter.                  ...        0 min,  0.097 sec
     gradient                   ...        0 min,  0.033 sec
 * total energy  :  -205.0317401 Eh     change       -0.6501736E-03 Eh
   gradient norm :     0.0103860 Eh/α   predicted    -0.5736236E-03 ( -11.77%)
   displ. norm   :     0.6469913 α      lambda       -0.9085362E-03
   maximum displ.:     0.3105418 α      in ANC's #6, #3, #9, ...

........................................................................
.............................. CYCLE   31 ..............................
........................................................................
   1   -207.9280077 -0.207928E+03  0.827E-02    0.80       0.0  T
   2   -207.9280151 -0.734488E-05  0.471E-02    0.81       1.0  T
   3   -207.9279506  0.644784E-04  0.231E-02    0.79       1.0  T
   4   -207.9280230 -0.723890E-04  0.372E-03    0.81       2.6  T
   5   -207.9280235 -0.474902E-06  0.231E-03    0.81       4.2  T
   6   -207.9280237 -0.248493E-06  0.978E-04    0.81       9.9  T
   7   -207.9280238 -0.546408E-07  0.405E-04    0.81      23.9  T
     SCC iter.                  ...        0 min,  0.098 sec
     gradient                   ...        0 min,  0.034 sec
 * total energy  :  -205.0324662 Eh     change       -0.7261162E-03 Eh
   gradient norm :     0.0099580 Eh/α   predicted    -0.6444294E-03 ( -11.25%)
   displ. norm   :     0.6983109 α      lambda       -0.8707108E-03
   maximum displ.:     0.3485608 α      in ANC's #6, #3, #9, ...

........................................................................
.............................. CYCLE   32 ..............................
........................................................................
   1   -207.9317618 -0.207932E+03  0.887E-02    0.81       0.0  T
   2   -207.9317709 -0.906044E-05  0.509E-02    0.83       1.0  T
   3   -207.9316644  0.106450E-03  0.290E-02    0.80       1.0  T
   4   -207.9317825 -0.118116E-03  0.437E-03    0.82       2.2  T
   5   -207.9317833 -0.729831E-06  0.258E-03    0.82       3.8  T
   6   -207.9317836 -0.321694E-06  0.117E-03    0.82       8.3  T
   7   -207.9317836 -0.523820E-07  0.527E-04    0.82      18.3  T
   8   -207.9317837 -0.108890E-07  0.299E-04    0.82      32.3  T
     SCC iter.                  ...        0 min,  0.108 sec
     gradient                   ...        0 min,  0.033 sec
 * total energy  :  -205.0331005 Eh     change       -0.6343254E-03 Eh
   gradient norm :     0.0097631 Eh/α   predicted    -0.6476521E-03 (   2.10%)
   displ. norm   :     0.8198541 α      lambda       -0.1024851E-02
   maximum displ.:     0.3902960 α      in ANC's #6, #3, #9, ...

........................................................................
.............................. CYCLE   33 ..............................
........................................................................
   1   -207.9197012 -0.207920E+03  0.994E-02    0.82       0.0  T
   2   -207.9197154 -0.142353E-04  0.572E-02    0.83       1.0  T
   3   -207.9196348  0.806312E-04  0.268E-02    0.81       1.0  T
   4   -207.9197244 -0.896425E-04  0.523E-03    0.83       1.8  T
   5   -207.9197261 -0.164882E-05  0.279E-03    0.83       3.5  T
   6   -207.9197264 -0.328094E-06  0.145E-03    0.83       6.7  T
   7   -207.9197265 -0.109585E-06  0.551E-04    0.83      17.6  T
   8   -207.9197265 -0.137554E-07  0.273E-04    0.83      35.4  T
     SCC iter.                  ...        0 min,  0.107 sec
     gradient                   ...        0 min,  0.034 sec
 * total energy  :  -205.0337173 Eh     change       -0.6168119E-03 Eh
   gradient norm :     0.0141023 Eh/α   predicted    -0.8568645E-03 (  38.92%)
   displ. norm   :     0.5596883 α      lambda       -0.7685220E-03
   maximum displ.:     0.2765629 α      in ANC's #6, #3, #9, ...

........................................................................
.............................. CYCLE   34 ..............................
........................................................................
   1   -207.9220383 -0.207922E+03  0.715E-02    0.83       0.0  T
   2   -207.9220456 -0.730128E-05  0.410E-02    0.84       1.0  T
   3   -207.9220224  0.232397E-04  0.146E-02    0.83       1.0  T
   4   -207.9220484 -0.260068E-04  0.381E-03    0.84       2.5  T
   5   -207.9220495 -0.106637E-05  0.190E-03    0.84       5.1  T
   6   -207.9220496 -0.110304E-06  0.102E-03    0.84       9.5  T
   7   -207.9220496 -0.587901E-07  0.400E-04    0.84      24.2  T
   8   -207.9220496 -0.810155E-08  0.213E-04    0.84      45.4  T
     SCC iter.                  ...        0 min,  0.108 sec
     gradient                   ...        0 min,  0.033 sec
 * total energy  :  -205.0342581 Eh     change       -0.5407626E-03 Eh
   gradient norm :     0.0110833 Eh/α   predicted    -0.5046312E-03 (  -6.68%)
   displ. norm   :     0.5647172 α      lambda       -0.8337545E-03
   maximum displ.:     0.2853626 α      in ANC's #3, #6, #9, ...

........................................................................
.............................. CYCLE   35 ..............................
........................................................................
   1   -207.9321442 -0.207932E+03  0.831E-02    0.84       0.0  T
   2   -207.9321544 -0.101677E-04  0.475E-02    0.85       1.0  T
   3   -207.9321336  0.207997E-04  0.160E-02    0.84       1.0  T
   4   -207.9321583 -0.247038E-04  0.379E-03    0.84       2.5  T
   5   -207.9321591 -0.811159E-06  0.176E-03    0.85       5.5  T
   6   -207.9321592 -0.455697E-07  0.107E-03    0.84       9.0  T
   7   -207.9321592 -0.855228E-07  0.424E-04    0.84      22.8  T
   8   -207.9321593 -0.101208E-07  0.202E-04    0.84      47.9  T
     SCC iter.                  ...        0 min,  0.107 sec
     gradient                   ...        0 min,  0.033 sec
 * total energy  :  -205.0348126 Eh     change       -0.5545157E-03 Eh
   gradient norm :     0.0095076 Eh/α   predicted    -0.5498231E-03 (  -0.85%)
   displ. norm   :     0.8034789 α      lambda       -0.7080432E-03
   maximum displ.:     0.3955489 α      in ANC's #3, #6, #9, ...

........................................................................
.............................. CYCLE   36 ..............................
........................................................................
   1   -207.9275552 -0.207928E+03  0.899E-02    0.85       0.0  T
   2   -207.9275648 -0.963329E-05  0.519E-02    0.85       1.0  T
   3   -207.9275230  0.418862E-04  0.209E-02    0.84       1.0  T
   4   -207.9275710 -0.480111E-04  0.397E-03    0.85       2.4  T
   5   -207.9275717 -0.743161E-06  0.205E-03    0.85       4.7  T
   6   -207.9275718 -0.738147E-07  0.116E-03    0.85       8.3  T
   7   -207.9275719 -0.963763E-07  0.419E-04    0.85      23.1  T
   8   -207.9275719 -0.768844E-08  0.237E-04    0.85      40.8  T
     SCC iter.                  ...        0 min,  0.108 sec
     gradient                   ...        0 min,  0.033 sec
 * total energy  :  -205.0354027 Eh     change       -0.5900675E-03 Eh
   gradient norm :     0.0093346 Eh/α   predicted    -0.5825749E-03 (  -1.27%)
   displ. norm   :     0.6828843 α      lambda       -0.6769662E-03
   maximum displ.:     0.3509287 α      in ANC's #3, #6, #9, ...

........................................................................
.............................. CYCLE   37 ..............................
........................................................................
   1   -207.9280795 -0.207928E+03  0.834E-02    0.85       0.0  T
   2   -207.9280882 -0.867957E-05  0.480E-02    0.85       1.0  T
   3   -207.9280340  0.542326E-04  0.220E-02    0.85       1.0  T
   4   -207.9280955 -0.614769E-04  0.397E-03    0.85       2.4  T
   5   -207.9280965 -0.106254E-05  0.208E-03    0.85       4.6  T
   6   -207.9280967 -0.167557E-06  0.113E-03    0.85       8.6  T
   7   -207.9280968 -0.782903E-07  0.376E-04    0.85      25.7  T
   8   -207.9280968 -0.721855E-08  0.213E-04    0.85      45.4  T
     SCC iter.                  ...        0 min,  0.112 sec
     gradient                   ...        0 min,  0.033 sec
 * total energy  :  -205.0359545 Eh     change       -0.5518322E-03 Eh
   gradient norm :     0.0093804 Eh/α   predicted    -0.4963285E-03 ( -10.06%)
   displ. norm   :     0.7163935 α      lambda       -0.6704698E-03
   maximum displ.:     0.3808598 α      in ANC's #3, #6, #9, ...

........................................................................
.............................. CYCLE   38 ..............................
........................................................................
   1   -207.9279936 -0.207928E+03  0.840E-02    0.85       0.0  T
   2   -207.9280008 -0.725258E-05  0.482E-02    0.85       1.0  T
   3   -207.9279552  0.456143E-04  0.206E-02    0.85       1.0  T
   4   -207.9280072 -0.519261E-04  0.355E-03    0.85       2.7  T
   5   -207.9280079 -0.697077E-06  0.196E-03    0.85       4.9  T
   6   -207.9280080 -0.128464E-06  0.104E-03    0.85       9.3  T
   7   -207.9280081 -0.771865E-07  0.327E-04    0.85      29.5  T
   8   -207.9280081 -0.391140E-08  0.208E-04    0.85      46.4  T
     SCC iter.                  ...        0 min,  0.108 sec
     gradient                   ...        0 min,  0.034 sec
 * total energy  :  -205.0365417 Eh     change       -0.5872104E-03 Eh
   gradient norm :     0.0074059 Eh/α   predicted    -0.5072856E-03 ( -13.61%)
   displ. norm   :     0.7462005 α      lambda       -0.7236668E-03
   maximum displ.:     0.4070319 α      in ANC's #3, #6, #2, ...

........................................................................
.............................. CYCLE   39 ..............................
........................................................................
   1   -207.9336428 -0.207934E+03  0.836E-02    0.85       0.0  T
   2   -207.9336513 -0.849561E-05  0.480E-02    0.85       1.0  T
   3   -207.9336082  0.431587E-04  0.203E-02    0.85       1.0  T
   4   -207.9336569 -0.487492E-04  0.381E-03    0.85       2.5  T
   5   -207.9336579 -0.978308E-06  0.193E-03    0.85       5.0  T
   6   -207.9336580 -0.122849E-06  0.111E-03    0.85       8.7  T
   7   -207.9336581 -0.850627E-07  0.361E-04    0.85      26.8  T
   8   -207.9336581 -0.507131E-08  0.217E-04    0.85      44.6  T
     SCC iter.                  ...        0 min,  0.114 sec
     gradient                   ...        0 min,  0.033 sec
 * total energy  :  -205.0371326 Eh     change       -0.5909195E-03 Eh
   gradient norm :     0.0077072 Eh/α   predicted    -0.5633104E-03 (  -4.67%)
   displ. norm   :     0.8622338 α      lambda       -0.6913394E-03
   maximum displ.:     0.4670514 α      in ANC's #3, #6, #2, ...

........................................................................
.............................. CYCLE   40 ..............................
........................................................................
   1   -207.9295107 -0.207930E+03  0.873E-02    0.85       0.0  T
   2   -207.9295183 -0.760352E-05  0.506E-02    0.86       1.0  T
   3   -207.9294742  0.440888E-04  0.207E-02    0.85       1.0  T
   4   -207.9295243 -0.500316E-04  0.369E-03    0.86       2.6  T
   5   -207.9295249 -0.667222E-06  0.181E-03    0.86       5.4  T
   6   -207.9295250 -0.314002E-07  0.969E-04    0.86      10.0  T
   7   -207.9295250 -0.614723E-07  0.351E-04    0.86      27.5  T
     SCC iter.                  ...        0 min,  0.095 sec
     gradient                   ...        0 min,  0.034 sec
 * total energy  :  -205.0377333 Eh     change       -0.6006503E-03 Eh
   gradient norm :     0.0089535 Eh/α   predicted    -0.6026609E-03 (   0.33%)
   displ. norm   :     0.7671657 α      lambda       -0.6869632E-03
   maximum displ.:     0.4373451 α      in ANC's #3, #6, #2, ...

........................................................................
.............................. CYCLE   41 ..............................
........................................................................
   1   -207.9327344 -0.207933E+03  0.722E-02    0.85       0.0  T
   2   -207.9327410 -0.654874E-05  0.417E-02    0.86       1.0  T
   3   -207.9327179  0.231025E-04  0.145E-02    0.85       1.0  T
   4   -207.9327439 -0.260226E-04  0.343E-03    0.86       2.8  T
   5   -207.9327447 -0.868044E-06  0.160E-03    0.86       6.0  T
   6   -207.9327448 -0.403806E-07  0.926E-04    0.86      10.4  T
   7   -207.9327448 -0.464878E-07  0.452E-04    0.86      21.4  T
     SCC iter.                  ...        0 min,  0.095 sec
     gradient                   ...        0 min,  0.033 sec
 * total energy  :  -205.0382878 Eh     change       -0.5545146E-03 Eh
   gradient norm :     0.0112364 Eh/α   predicted    -0.5456371E-03 (  -1.60%)
   displ. norm   :     0.8027185 α      lambda       -0.7482392E-03
   maximum displ.:     0.4551561 α      in ANC's #3, #6, #2, ...

........................................................................
.............................. CYCLE   42 ..............................
........................................................................
   1   -207.9256607 -0.207926E+03  0.974E-02    0.86       0.0  T
   2   -207.9256736 -0.128771E-04  0.558E-02    0.87       1.0  T
   3   -207.9256280  0.456122E-04  0.214E-02    0.86       1.0  T
   4   -207.9256803 -0.522794E-04  0.433E-03    0.86       2.2  T
   5   -207.9256813 -0.104513E-05  0.218E-03    0.86       4.4  T
   6   -207.9256814 -0.113533E-06  0.126E-03    0.86       7.7  T
   7   -207.9256815 -0.101874E-06  0.516E-04    0.86      18.7  T
   8   -207.9256815 -0.977224E-08  0.338E-04    0.86      28.6  T
     SCC iter.                  ...        0 min,  0.109 sec
     gradient                   ...        0 min,  0.034 sec
 * total energy  :  -205.0388548 Eh     change       -0.5669810E-03 Eh
   gradient norm :     0.0142938 Eh/α   predicted    -0.6151924E-03 (   8.50%)
   displ. norm   :     0.7013766 α      lambda       -0.7046081E-03
   maximum displ.:     0.4053082 α      in ANC's #3, #2, #6, ...
 * RMSD in coord.:     1.2074311 α      energy gain  -0.1357654E-01 Eh

generating ANC from model Hessian ...
Using Lindh-Hessian (1995)
 Shifting diagonal of input Hessian by   9.982906856484258E-003
 Lowest  eigenvalues of input Hessian
    0.000000    0.000000    0.000000    0.000000    0.000000    0.000000
    0.010000    0.010003    0.010018    0.010073    0.010115    0.010139
    0.010190    0.010252    0.010272    0.010629    0.010752    0.010818
 Highest eigenvalues
    2.262632    2.280613    2.382700    2.603319    2.634752    2.653043
 

........................................................................
.............................. CYCLE   43 ..............................
........................................................................
   1   -207.9299692 -0.207930E+03  0.664E-02    0.86       0.0  T
   2   -207.9299752 -0.597112E-05  0.384E-02    0.87       1.0  T
   3   -207.9299666  0.855981E-05  0.102E-02    0.86       1.0  T
   4   -207.9299762 -0.958848E-05  0.325E-03    0.87       3.0  T
   5   -207.9299771 -0.842446E-06  0.131E-03    0.87       7.4  T
   6   -207.9299771 -0.587210E-07  0.672E-04    0.87      14.4  T
   7   -207.9299771 -0.208324E-07  0.352E-04    0.87      27.5  T
     SCC iter.                  ...        0 min,  0.096 sec
     gradient                   ...        0 min,  0.033 sec
 * total energy  :  -205.0393881 Eh     change       -0.5332814E-03 Eh
   gradient norm :     0.0119582 Eh/α   predicted     0.0000000E+00 (-100.00%)
   displ. norm   :     0.1069510 α      lambda       -0.3176764E-03
   maximum displ.:     0.0491087 α      in ANC's #3, #23, #2, ...

........................................................................
.............................. CYCLE   44 ..............................
........................................................................
   1   -207.9325872 -0.207933E+03  0.733E-02    0.87       0.0  T
   2   -207.9325958 -0.862879E-05  0.405E-02    0.87       1.0  T
   3   -207.9325941  0.168360E-05  0.674E-03    0.87       1.4  T
   4   -207.9325985 -0.443361E-05  0.211E-03    0.87       4.6  T
   5   -207.9325988 -0.220346E-06  0.110E-03    0.87       8.8  T
   6   -207.9325988 -0.525726E-07  0.560E-04    0.87      17.3  T
   7   -207.9325988 -0.256339E-07  0.206E-04    0.87      47.0  T
     SCC iter.                  ...        0 min,  0.097 sec
     gradient                   ...        0 min,  0.034 sec
 * total energy  :  -205.0395101 Eh     change       -0.1220225E-03 Eh
   gradient norm :     0.0061248 Eh/α   predicted    -0.1606587E-03 (  31.66%)
   displ. norm   :     0.2042076 α      lambda       -0.5215220E-03
   maximum displ.:     0.0895382 α      in ANC's #2, #3, #11, ...

........................................................................
.............................. CYCLE   45 ..............................
........................................................................
   1   -207.9387830 -0.207939E+03  0.749E-02    0.88       0.0  T
   2   -207.9387952 -0.121768E-04  0.420E-02    0.87       1.0  T
   3   -207.9387826  0.126536E-04  0.115E-02    0.88       1.0  T
   4   -207.9387979 -0.153140E-04  0.389E-03    0.87       2.5  T
   5   -207.9387993 -0.143167E-05  0.166E-03    0.87       5.8  T
   6   -207.9387994 -0.103926E-06  0.862E-04    0.87      11.2  T
   7   -207.9387995 -0.424941E-07  0.367E-04    0.87      26.3  T
     SCC iter.                  ...        0 min,  0.097 sec
     gradient                   ...        0 min,  0.034 sec
 * total energy  :  -205.0395762 Eh     change       -0.6609215E-04 Eh
   gradient norm :     0.0168573 Eh/α   predicted    -0.2716373E-03 ( 311.00%)
   displ. norm   :     0.0669936 α      lambda       -0.3418623E-03
   maximum displ.:     0.0299869 α      in ANC's #3, #2, #52, ...

........................................................................
.............................. CYCLE   46 ..............................
........................................................................
   1   -207.9362607 -0.207936E+03  0.407E-02    0.87       0.0  T
   2   -207.9362643 -0.362576E-05  0.228E-02    0.87       1.0  T
   3   -207.9362589  0.546944E-05  0.741E-03    0.87       1.3  T
   4   -207.9362656 -0.671557E-05  0.172E-03    0.87       5.6  T
   5   -207.9362658 -0.244433E-06  0.815E-04    0.87      11.9  T
   6   -207.9362658 -0.310999E-07  0.452E-04    0.87      21.4  T
     SCC iter.                  ...        0 min,  0.083 sec
     gradient                   ...        0 min,  0.034 sec
 * total energy  :  -205.0397929 Eh     change       -0.2166877E-03 Eh
   gradient norm :     0.0061751 Eh/α   predicted    -0.1717036E-03 ( -20.76%)
   displ. norm   :     0.1714662 α      lambda       -0.2763957E-03
   maximum displ.:     0.0853528 α      in ANC's #3, #2, #1, ...

........................................................................
.............................. CYCLE   47 ..............................
........................................................................
   1   -207.9326389 -0.207933E+03  0.573E-02    0.87       0.0  T
   2   -207.9326437 -0.480933E-05  0.320E-02    0.87       1.0  T
   3   -207.9326382  0.547919E-05  0.820E-03    0.87       1.2  T
   4   -207.9326453 -0.703697E-05  0.209E-03    0.87       4.6  T
   5   -207.9326456 -0.306469E-06  0.104E-03    0.87       9.3  T
   6   -207.9326456 -0.609436E-07  0.477E-04    0.87      20.3  T
   7   -207.9326456 -0.123658E-07  0.201E-04    0.87      48.0  T
     SCC iter.                  ...        0 min,  0.097 sec
     gradient                   ...        0 min,  0.034 sec
 * total energy  :  -205.0399227 Eh     change       -0.1298503E-03 Eh
   gradient norm :     0.0074354 Eh/α   predicted    -0.1422626E-03 (   9.56%)
   displ. norm   :     0.2652700 α      lambda       -0.2571107E-03
   maximum displ.:     0.1309108 α      in ANC's #3, #2, #1, ...

........................................................................
.............................. CYCLE   48 ..............................
........................................................................
   1   -207.9319203 -0.207932E+03  0.450E-02    0.87       0.0  T
   2   -207.9319227 -0.235631E-05  0.254E-02    0.87       1.0  T
   3   -207.9319202  0.241982E-05  0.543E-03    0.87       1.8  T
   4   -207.9319236 -0.334174E-05  0.170E-03    0.87       5.7  T
   5   -207.9319237 -0.106466E-06  0.958E-04    0.87      10.1  T
   6   -207.9319237 -0.507247E-07  0.414E-04    0.87      23.4  T
     SCC iter.                  ...        0 min,  0.082 sec
     gradient                   ...        0 min,  0.033 sec
 * total energy  :  -205.0401333 Eh     change       -0.2105292E-03 Eh
   gradient norm :     0.0068278 Eh/α   predicted    -0.1376073E-03 ( -34.64%)
   displ. norm   :     0.4842236 α      lambda       -0.3791234E-03
   maximum displ.:     0.2442847 α      in ANC's #3, #2, #1, ...

........................................................................
.............................. CYCLE   49 ..............................
........................................................................
   1   -207.9318304 -0.207932E+03  0.672E-02    0.87       0.0  T
   2   -207.9318353 -0.491381E-05  0.383E-02    0.88       1.0  T
   3   -207.9318296  0.574379E-05  0.824E-03    0.87       1.2  T
   4   -207.9318369 -0.733534E-05  0.283E-03    0.88       3.4  T
   5   -207.9318373 -0.431688E-06  0.156E-03    0.88       6.2  T
   6   -207.9318374 -0.106818E-06  0.703E-04    0.88      13.8  T
   7   -207.9318375 -0.428485E-07  0.266E-04    0.88      36.4  T
     SCC iter.                  ...        0 min,  0.095 sec
     gradient                   ...        0 min,  0.034 sec
 * total energy  :  -205.0404421 Eh     change       -0.3088778E-03 Eh
   gradient norm :     0.0052524 Eh/α   predicted    -0.2340187E-03 ( -24.24%)
   displ. norm   :     0.5694616 α      lambda       -0.3809583E-03
   maximum displ.:     0.3014061 α      in ANC's #3, #2, #1, ...

........................................................................
.............................. CYCLE   50 ..............................
........................................................................
   1   -207.9327632 -0.207933E+03  0.699E-02    0.88       0.0  T
   2   -207.9327680 -0.473620E-05  0.401E-02    0.88       1.0  T
   3   -207.9327574  0.105454E-04  0.104E-02    0.88       1.0  T
   4   -207.9327698 -0.123473E-04  0.295E-03    0.88       3.3  T
   5   -207.9327703 -0.508036E-06  0.154E-03    0.88       6.3  T
   6   -207.9327703 -0.584823E-07  0.787E-04    0.88      12.3  T
   7   -207.9327704 -0.525639E-07  0.302E-04    0.88      32.0  T
     SCC iter.                  ...        0 min,  0.096 sec
     gradient                   ...        0 min,  0.033 sec
 * total energy  :  -205.0407664 Eh     change       -0.3243030E-03 Eh
   gradient norm :     0.0056690 Eh/α   predicted    -0.2522557E-03 ( -22.22%)
   displ. norm   :     0.6136180 α      lambda       -0.4366654E-03
   maximum displ.:     0.3359000 α      in ANC's #3, #2, #1, ...

........................................................................
.............................. CYCLE   51 ..............................
........................................................................
   1   -207.9345725 -0.207935E+03  0.764E-02    0.88       0.0  T
   2   -207.9345785 -0.597532E-05  0.438E-02    0.89       1.0  T
   3   -207.9345683  0.102425E-04  0.105E-02    0.88       1.0  T
   4   -207.9345806 -0.123200E-04  0.310E-03    0.89       3.1  T
   5   -207.9345812 -0.670054E-06  0.150E-03    0.88       6.4  T
   6   -207.9345813 -0.554346E-07  0.686E-04    0.88      14.1  T
   7   -207.9345813 -0.341345E-07  0.315E-04    0.88      30.7  T
     SCC iter.                  ...        0 min,  0.096 sec
     gradient                   ...        0 min,  0.034 sec
 * total energy  :  -205.0411473 Eh     change       -0.3809160E-03 Eh
   gradient norm :     0.0061834 Eh/α   predicted    -0.3005495E-03 ( -21.10%)
   displ. norm   :     0.6813921 α      lambda       -0.4892650E-03
   maximum displ.:     0.3774144 α      in ANC's #3, #2, #1, ...

........................................................................
.............................. CYCLE   52 ..............................
........................................................................
   1   -207.9369531 -0.207937E+03  0.817E-02    0.88       0.0  T
   2   -207.9369591 -0.595096E-05  0.471E-02    0.89       1.0  T
   3   -207.9369398  0.192875E-04  0.140E-02    0.88       1.0  T
   4   -207.9369618 -0.220550E-04  0.331E-03    0.89       2.9  T
   5   -207.9369626 -0.776579E-06  0.159E-03    0.89       6.1  T
   6   -207.9369627 -0.456416E-07  0.877E-04    0.89      11.0  T
   7   -207.9369627 -0.735400E-07  0.380E-04    0.89      25.4  T
     SCC iter.                  ...        0 min,  0.098 sec
     gradient                   ...        0 min,  0.035 sec
 * total energy  :  -205.0415802 Eh     change       -0.4328937E-03 Eh
   gradient norm :     0.0054843 Eh/α   predicted    -0.3582279E-03 ( -17.25%)
   displ. norm   :     0.7245184 α      lambda       -0.4964233E-03
   maximum displ.:     0.3994142 α      in ANC's #3, #2, #1, ...

........................................................................
.............................. CYCLE   53 ..............................
........................................................................
   1   -207.9359654 -0.207936E+03  0.867E-02    0.89       0.0  T
   2   -207.9359717 -0.624326E-05  0.499E-02    0.89       1.0  T
   3   -207.9359460  0.256757E-04  0.153E-02    0.89       1.0  T
   4   -207.9359748 -0.287717E-04  0.358E-03    0.88       2.7  T
   5   -207.9359758 -0.106974E-05  0.174E-03    0.89       5.6  T
   6   -207.9359759 -0.882700E-07  0.101E-03    0.89       9.6  T
   7   -207.9359760 -0.885913E-07  0.392E-04    0.89      24.7  T
   8   -207.9359760 -0.425527E-08  0.250E-04    0.89      38.6  T
     SCC iter.                  ...        0 min,  0.111 sec
     gradient                   ...        0 min,  0.034 sec
 * total energy  :  -205.0420381 Eh     change       -0.4578339E-03 Eh
   gradient norm :     0.0056752 Eh/α   predicted    -0.3785160E-03 ( -17.32%)
   displ. norm   :     0.7706243 α      lambda       -0.5624060E-03
   maximum displ.:     0.4264641 α      in ANC's #3, #2, #1, ...

........................................................................
.............................. CYCLE   54 ..............................
........................................................................
   1   -207.9389167 -0.207939E+03  0.868E-02    0.89       0.0  T
   2   -207.9389231 -0.636652E-05  0.505E-02    0.88       1.0  T
   3   -207.9388657  0.574498E-04  0.217E-02    0.89       1.0  T
   4   -207.9389281 -0.624068E-04  0.425E-03    0.88       2.3  T
   5   -207.9389300 -0.194056E-05  0.186E-03    0.89       5.2  T
   6   -207.9389301 -0.118668E-06  0.112E-03    0.88       8.6  T
   7   -207.9389302 -0.805069E-07  0.430E-04    0.89      22.5  T
   8   -207.9389302 -0.546277E-08  0.288E-04    0.89      33.6  T
     SCC iter.                  ...        0 min,  0.111 sec
     gradient                   ...        0 min,  0.033 sec
 * total energy  :  -205.0425441 Eh     change       -0.5060674E-03 Eh
   gradient norm :     0.0067739 Eh/α   predicted    -0.4482171E-03 ( -11.43%)
   displ. norm   :     0.8373843 α      lambda       -0.5952861E-03
   maximum displ.:     0.4691553 α      in ANC's #3, #2, #1, ...

........................................................................
.............................. CYCLE   55 ..............................
........................................................................
   1   -207.9353340 -0.207935E+03  0.974E-02    0.89       0.0  T
   2   -207.9353411 -0.717084E-05  0.564E-02    0.88       1.0  T
   3   -207.9352909  0.502044E-04  0.203E-02    0.89       1.0  T
   4   -207.9353460 -0.550657E-04  0.406E-03    0.88       2.4  T
   5   -207.9353475 -0.149625E-05  0.204E-03    0.88       4.7  T
   6   -207.9353477 -0.163998E-06  0.113E-03    0.88       8.5  T
   7   -207.9353477 -0.870194E-07  0.408E-04    0.88      23.7  T
   8   -207.9353478 -0.609143E-08  0.252E-04    0.88      38.4  T
     SCC iter.                  ...        0 min,  0.110 sec
     gradient                   ...        0 min,  0.033 sec
 * total energy  :  -205.0430933 Eh     change       -0.5491714E-03 Eh
   gradient norm :     0.0054561 Eh/α   predicted    -0.5063755E-03 (  -7.79%)
   displ. norm   :     0.8081462 α      lambda       -0.6255519E-03
   maximum displ.:     0.4596617 α      in ANC's #3, #2, #1, ...

........................................................................
.............................. CYCLE   56 ..............................
........................................................................
   1   -207.9359695 -0.207936E+03  0.984E-02    0.89       0.0  T
   2   -207.9359781 -0.861934E-05  0.571E-02    0.88       1.0  T
   3   -207.9358935  0.846303E-04  0.255E-02    0.89       1.0  T
   4   -207.9359861 -0.925875E-04  0.456E-03    0.88       2.1  T
   5   -207.9359881 -0.197436E-05  0.215E-03    0.88       4.5  T
   6   -207.9359882 -0.163013E-06  0.124E-03    0.88       7.8  T
   7   -207.9359883 -0.101537E-06  0.438E-04    0.88      22.1  T
   8   -207.9359883 -0.795688E-08  0.282E-04    0.88      34.3  T
     SCC iter.                  ...        0 min,  0.109 sec
     gradient                   ...        0 min,  0.033 sec
 * total energy  :  -205.0436636 Eh     change       -0.5702462E-03 Eh
   gradient norm :     0.0054443 Eh/α   predicted    -0.5170651E-03 (  -9.33%)
   displ. norm   :     0.8465095 α      lambda       -0.6407318E-03
   maximum displ.:     0.4844653 α      in ANC's #3, #2, #1, ...

........................................................................
.............................. CYCLE   57 ..............................
........................................................................
   1   -207.9356366 -0.207936E+03  0.101E-01    0.89       0.0  T
   2   -207.9356428 -0.620487E-05  0.587E-02    0.88       1.0  T
   3   -207.9355840  0.587978E-04  0.214E-02    0.89       1.0  T
   4   -207.9356480 -0.640166E-04  0.404E-03    0.88       2.4  T
   5   -207.9356494 -0.139981E-05  0.204E-03    0.88       4.7  T
   6   -207.9356496 -0.168905E-06  0.100E-03    0.88       9.6  T
   7   -207.9356496 -0.593166E-07  0.388E-04    0.88      24.9  T
   8   -207.9356496 -0.580198E-08  0.222E-04    0.88      43.6  T
     SCC iter.                  ...        0 min,  0.107 sec
     gradient                   ...        0 min,  0.034 sec
 * total energy  :  -205.0442533 Eh     change       -0.5897108E-03 Eh
   gradient norm :     0.0068271 Eh/α   predicted    -0.5499535E-03 (  -6.74%)
   displ. norm   :     0.7931952 α      lambda       -0.7311117E-03
   maximum displ.:     0.4570392 α      in ANC's #3, #2, #1, ...

........................................................................
.............................. CYCLE   58 ..............................
[...]
    96   1 H        0.925     0.040     2.445     2.445
    97   1 H        0.925     0.044     2.394     2.420
    98   1 H        0.925     0.046     2.371     2.408
    99   1 H        0.924     0.053     2.285     2.364
   100   1 H        0.924     0.077     2.011     2.218
   101   1 H        0.925     0.046     2.370     2.407
   102   1 H        0.925     0.061     2.187     2.313
   103   1 H        0.925     0.050     2.317     2.380
   104   1 H        0.926     0.066     2.127     2.281
   105   1 H        0.925     0.072     2.068     2.249
   106   1 H        0.926     0.093     1.854     2.129
   107   1 H        0.926     0.091     1.871     2.139

 Mol. C6AA /au·bohr⁶  :     217261.503551
 Mol. C8AA /au·bohr⁸  :    6083547.849868
 Mol. α(0) /au        :        736.423793


Wiberg/Mayer (AO) data.
largest (>0.10) Wiberg bond orders for each atom

 ---------------------------------------------------------------------------
     #   Z sym  total        # sym  WBO       # sym  WBO       # sym  WBO
 ---------------------------------------------------------------------------
     1   6 C    3.983 --     2 C    1.650    10 C    1.192    77 H    0.954
                             4 N    0.103
     2   6 C    3.952 --     1 C    1.650     3 C    1.118     5 C    0.921
     3   6 C    3.949 --     4 N    2.767     2 C    1.118
     4   7 N    2.963 --     3 C    2.767     1 C    0.103
     5   6 C    3.920 --     6 O    1.757     7 O    1.148     2 C    0.921
     6   8 O    2.065 --     5 C    1.757     7 O    0.181
     7   8 O    2.326 --     5 C    1.148     8 C    0.927     6 O    0.181
     8   6 C    3.919 --     9 C    1.013    79 H    0.971    78 H    0.969
                             7 O    0.927
     9   6 C    3.990 --     8 C    1.013    81 H    0.986    80 H    0.984
                            82 H    0.982
    10   6 C    3.934 --    46 C    1.482     1 C    1.192    11 S    1.105
    11  16 S    2.573 --    12 C    1.145    10 C    1.105
    12   6 C    3.947 --    45 C    1.304    13 C    1.286    11 S    1.145
    13   6 C    3.936 --    42 C    1.322    12 C    1.286    14 S    1.114
    14  16 S    2.535 --    15 C    1.118    13 C    1.114
    15   6 C    3.927 --    41 C    1.332    16 C    1.259    14 S    1.118
    16   6 C    3.956 --    39 C    1.287    15 C    1.259    17 C    1.173
    17   6 C    3.974 --    21 N    1.427    16 C    1.173    18 C    1.166
                            20 S    0.103
    18   6 C    3.973 --    19 N    1.428    22 C    1.172    17 C    1.166
                            20 S    0.101
    19   7 N    3.075 --    18 C    1.428    20 S    1.390    21 N    0.149
    20  16 S    3.105 --    21 N    1.391    19 N    1.390    17 C    0.103
                            18 C    0.101
    21   7 N    3.074 --    17 C    1.427    20 S    1.391    19 N    0.149
    22   6 C    3.957 --    23 C    1.273    38 C    1.270    18 C    1.172
    23   6 C    3.924 --    36 C    1.307    22 C    1.273    24 S    1.128
    24  16 S    2.545 --    23 C    1.128    25 C    1.109
    25   6 C    3.935 --    35 C    1.314    26 C    1.299    24 S    1.109
    26   6 C    3.946 --    25 C    1.299    27 C    1.259    58 S    1.178
    27   6 C    3.962 --    56 C    1.358    26 C    1.259    28 C    1.153
    28   6 C    3.970 --    29 N    1.386    34 C    1.229    27 C    1.153
    29   7 N    2.984 --    28 C    1.386    30 N    1.277    33 N    0.197
    30   7 N    3.729 --    29 N    1.277    33 N    1.264    31 C    0.983
    31   6 C    3.963 --    32 C    1.001    30 N    0.983    83 H    0.967
                            84 H    0.967
    32   6 C    3.985 --    31 C    1.001    87 H    0.986    85 H    0.986
                            86 H    0.983
    33   7 N    2.980 --    34 C    1.372    30 N    1.264    29 N    0.197
    34   6 C    3.970 --    33 N    1.372    28 C    1.229    35 C    1.163
    35   6 C    3.953 --    25 C    1.314    36 C    1.227    34 C    1.163
    36   6 C    3.928 --    23 C    1.307    35 C    1.227    37 N    1.162
    37   7 N    3.570 --    38 C    1.178    36 C    1.162    54 C    0.985
    38   6 C    3.927 --    22 C    1.270    39 C    1.218    37 N    1.178
    39   6 C    3.932 --    16 C    1.287    38 C    1.218    40 N    1.157
    40   7 N    3.531 --    39 C    1.157    41 C    1.155    52 C    0.976
    41   6 C    3.935 --    15 C    1.332    42 C    1.214    40 N    1.155
    42   6 C    3.963 --    13 C    1.322    41 C    1.214    43 C    1.174
    43   6 C    3.972 --    51 N    1.366    44 C    1.224    42 C    1.174
    44   6 C    3.970 --    47 N    1.377    43 C    1.224    45 C    1.166
    45   6 C    3.965 --    12 C    1.304    46 C    1.288    44 C    1.166
    46   6 C    3.963 --    10 C    1.482    45 C    1.288    88 H    0.961
    47   7 N    2.985 --    44 C    1.377    48 N    1.281    51 N    0.202
    48   7 N    3.730 --    47 N    1.281    51 N    1.261    49 C    0.983
    49   6 C    3.963 --    50 C    1.000    48 N    0.983    90 H    0.967
                            89 H    0.967
    50   6 C    3.985 --    49 C    1.000    93 H    0.986    91 H    0.986
                            92 H    0.983
    51   7 N    2.992 --    43 C    1.366    48 N    1.261    47 N    0.202
    52   6 C    3.956 --    53 C    1.005    40 N    0.976    95 H    0.956
                            94 H    0.948
    53   6 C    3.990 --    52 C    1.005    97 H    0.987    96 H    0.986
                            98 H    0.984
    54   6 C    3.964 --    55 C    1.004    37 N    0.985    99 H    0.963
                           100 H    0.958
    55   6 C    3.988 --    54 C    1.004   101 H    0.984   103 H    0.981
                           102 H    0.980
    56   6 C    3.955 --    57 C    1.382    27 C    1.358   104 H    0.961
    57   6 C    3.939 --    56 C    1.382    59 C    1.297    58 S    1.101
    58  16 S    2.720 --    26 C    1.178    57 C    1.101    62 O    0.119
    59   6 C    3.939 --    60 C    1.494    57 C    1.297   105 H    0.939
    60   6 C    3.951 --    59 C    1.494    71 C    1.142    61 C    1.062
    61   6 C    3.922 --    62 O    1.729    60 C    1.062    63 C    1.015
    62   8 O    2.125 --    61 C    1.729    58 S    0.119
    63   6 C    3.975 --    64 C    1.423    70 C    1.294    61 C    1.015
    64   6 C    3.975 --    63 C    1.423    65 C    1.384   106 H    0.960
    65   6 C    3.914 --    64 C    1.384    67 C    1.338    66 Cl   1.014
    66  17 Cl   1.162 --    65 C    1.014
    67   6 C    3.888 --    69 C    1.392    65 C    1.338    68 F    0.988
    68   9 F    1.128 --    67 C    0.988
    69   6 C    3.971 --    70 C    1.397    67 C    1.392   107 H    0.953
    70   6 C    3.981 --    69 C    1.397    63 C    1.294    71 C    1.084
    71   6 C    3.969 --    72 C    1.485    60 C    1.142    70 C    1.084
    72   6 C    3.939 --    71 C    1.485    73 C    1.098    75 C    1.095
    73   6 C    3.946 --    74 N    2.754    72 C    1.098
    74   7 N    2.965 --    73 C    2.754
    75   6 C    3.945 --    76 N    2.766    72 C    1.095
    76   7 N    2.969 --    75 C    2.766
    77   1 H    0.995 --     1 C    0.954
    78   1 H    0.996 --     8 C    0.969
    79   1 H    0.996 --     8 C    0.971
    80   1 H    0.996 --     9 C    0.984
    81   1 H    0.997 --     9 C    0.986
    82   1 H    0.996 --     9 C    0.982
    83   1 H    0.993 --    31 C    0.967
    84   1 H    0.993 --    31 C    0.967
    85   1 H    0.996 --    32 C    0.986
    86   1 H    0.996 --    32 C    0.983
    87   1 H    0.997 --    32 C    0.986
    88   1 H    0.996 --    46 C    0.961
    89   1 H    0.993 --    49 C    0.967
    90   1 H    0.993 --    49 C    0.967
    91   1 H    0.997 --    50 C    0.986
    92   1 H    0.996 --    50 C    0.983
    93   1 H    0.997 --    50 C    0.986
    94   1 H    0.991 --    52 C    0.948
    95   1 H    0.995 --    52 C    0.956
    96   1 H    0.998 --    53 C    0.986
    97   1 H    0.998 --    53 C    0.987
    98   1 H    0.997 --    53 C    0.984
    99   1 H    0.996 --    54 C    0.963
   100   1 H    0.992 --    54 C    0.958
   101   1 H    0.997 --    55 C    0.984
   102   1 H    0.996 --    55 C    0.980
   103   1 H    0.997 --    55 C    0.981
   104   1 H    0.995 --    56 C    0.961
   105   1 H    0.994 --    59 C    0.939
   106   1 H    0.991 --    64 C    0.960
   107   1 H    0.991 --    69 C    0.953
 ---------------------------------------------------------------------------

Topologies differ in bond orders
Writing corrected topology to xtbtopo.mol

molecular dipole:
                 x           y           z       tot (Debye)
 q only:        0.227      -1.390       5.485
   full:        0.553      -1.192       5.171      13.562
molecular quadrupole (traceless):
                xx          xy          yy          xz          yz          zz
 q only:     -116.645      90.435      46.971     107.405     -43.660      69.673
  q+dip:     -148.920     113.333      51.372     101.495     -44.273      97.548
   full:     -153.671     121.842      60.271     105.321     -41.575      93.400

           -------------------------------------------------
          |                Geometry Summary                 |
           -------------------------------------------------

      molecular mass/u    :     1112.6758002
   center of mass at/Å    :        0.2468975      -0.2661750      -1.2978884
  moments of inertia/u·Å² :        0.1148137E+05   0.7134878E+05   0.8157018E+05
rotational constants/cm⁻¹ :        0.1468260E-02   0.2362708E-03   0.2066642E-03

 * 112 selected distances

     #   Z          #   Z                                           value/Å
     1   6 C        2   6 C                                       1.3507285
     3   6 C        4   7 N                                       1.1480567
     5   6 C        6   8 O                                       1.2001825
     5   6 C        7   8 O                                       1.3298365
     7   8 O        8   6 C                                       1.4315009
     8   6 C        9   6 C                                       1.5207073
     1   6 C       10   6 C                                       1.4227493
    10   6 C       11  16 S                                       1.7520400
    11  16 S       12   6 C                                       1.7295241
    12   6 C       13   6 C                                       1.4004901
    13   6 C       14  16 S                                       1.7495628
    14  16 S       15   6 C                                       1.7209814
    15   6 C       16   6 C                                       1.4028465
    16   6 C       17   6 C                                       1.4114823
    17   6 C       18   6 C                                       1.4331684
    18   6 C       19   7 N                                       1.3235089
    19   7 N       20  16 S                                       1.6190955
    17   6 C       21   7 N                                       1.3238368
    20  16 S       21   7 N                                       1.6193711
    18   6 C       22   6 C                                       1.4118023
    22   6 C       23   6 C                                       1.4004297
    23   6 C       24  16 S                                       1.7190565
    24  16 S       25   6 C                                       1.7508070
    25   6 C       26   6 C                                       1.3988966
    26   6 C       27   6 C                                       1.4128456
    27   6 C       28   6 C                                       1.4176611
    28   6 C       29   7 N                                       1.3326490
    29   7 N       30   7 N                                       1.3067364
    30   7 N       31   6 C                                       1.4341951
    31   6 C       32   6 C                                       1.5259165
    30   7 N       33   7 N                                       1.3101389
    28   6 C       34   6 C                                       1.4261398
    33   7 N       34   6 C                                       1.3370401
    25   6 C       35   6 C                                       1.4121515
    34   6 C       35   6 C                                       1.4208833
    23   6 C       36   6 C                                       1.3993020
    35   6 C       36   6 C                                       1.4119690
    36   6 C       37   7 N                                       1.3707374
    22   6 C       38   6 C                                       1.4242372
    37   7 N       38   6 C                                       1.3805064
    16   6 C       39   6 C                                       1.4218504
    38   6 C       39   6 C                                       1.4235657
    39   6 C       40   7 N                                       1.3908642
    15   6 C       41   6 C                                       1.3943730
    40   7 N       41   6 C                                       1.3755321
    13   6 C       42   6 C                                       1.4097884
    41   6 C       42   6 C                                       1.4141164
    42   6 C       43   6 C                                       1.4176612
    43   6 C       44   6 C                                       1.4268983
    12   6 C       45   6 C                                       1.4048785
    44   6 C       45   6 C                                       1.4150282
    10   6 C       46   6 C                                       1.3757755
    45   6 C       46   6 C                                       1.4027089
    44   6 C       47   7 N                                       1.3341916
    47   7 N       48   7 N                                       1.3057069
    48   7 N       49   6 C                                       1.4342568
    49   6 C       50   6 C                                       1.5259499
    43   6 C       51   7 N                                       1.3381368
    48   7 N       51   7 N                                       1.3107695
    40   7 N       52   6 C                                       1.4491938
    52   6 C       53   6 C                                       1.5285189
    37   7 N       54   6 C                                       1.4419578
    54   6 C       55   6 C                                       1.5297448
    27   6 C       56   6 C                                       1.3887696
    56   6 C       57   6 C                                       1.3926263
    26   6 C       58  16 S                                       1.7275846
    57   6 C       58  16 S                                       1.7569130 (max)
    57   6 C       59   6 C                                       1.4030867
    59   6 C       60   6 C                                       1.3724011
    61   6 C       62   8 O                                       1.2154349
    63   6 C       64   6 C                                       1.3795573
    64   6 C       65   6 C                                       1.3898874
    65   6 C       66  17 Cl                                      1.7195865
    65   6 C       67   6 C                                       1.3966384
    67   6 C       68   9 F                                       1.3386229
    67   6 C       69   6 C                                       1.3865013
    63   6 C       70   6 C                                       1.4051619
    69   6 C       70   6 C                                       1.3862188
    71   6 C       72   6 C                                       1.3713214
    73   6 C       74   7 N                                       1.1489065
    75   6 C       76   7 N                                       1.1478202
     1   6 C       77   1 H                                       1.0840741
     8   6 C       78   1 H                                       1.0947727
     8   6 C       79   1 H                                       1.0915704
     9   6 C       80   1 H                                       1.0873395
     9   6 C       81   1 H                                       1.0874525
     9   6 C       82   1 H                                       1.0861059
    31   6 C       83   1 H                                       1.0912193
    31   6 C       84   1 H                                       1.0921315
    32   6 C       85   1 H                                       1.0870898
    32   6 C       86   1 H                                       1.0860403
    32   6 C       87   1 H                                       1.0873882
    46   6 C       88   1 H                                       1.0748659 (min)
    49   6 C       89   1 H                                       1.0921207
    49   6 C       90   1 H                                       1.0912929
    50   6 C       91   1 H                                       1.0871398
    50   6 C       92   1 H                                       1.0860930
    50   6 C       93   1 H                                       1.0873481
    52   6 C       94   1 H                                       1.0921169
    52   6 C       95   1 H                                       1.0829651
    53   6 C       96   1 H                                       1.0888942
    53   6 C       97   1 H                                       1.0876516
    53   6 C       98   1 H                                       1.0866946
    54   6 C       99   1 H                                       1.0908778
    54   6 C      100   1 H                                       1.0927329
    55   6 C      101   1 H                                       1.0866506
    55   6 C      102   1 H                                       1.0858372
    55   6 C      103   1 H                                       1.0867429
    56   6 C      104   1 H                                       1.0753660
    59   6 C      105   1 H                                       1.0834376
    64   6 C      106   1 H                                       1.0783111
    69   6 C      107   1 H                                       1.0776285

 * 9 distinct bonds (by element types)

   Z      Z             #   av. dist./Å        max./Å        min./Å
   1 H    6 C          31     1.0867726     1.0947727     1.0748659
   6 C    6 C          44     1.4174417     1.5297448     1.3507285
   6 C    7 N          17     1.3359641     1.4491938     1.1478202
   7 N    7 N           4     1.3083379     1.3107695     1.3057069
   6 C    8 O           4     1.2942387     1.4315009     1.2001825
   6 C    9 F           1     1.3386229     1.3386229     1.3386229
   6 C   16 S           8     1.7383087     1.7569130     1.7190565
   7 N   16 S           2     1.6192333     1.6193711     1.6190955
   6 C   17 Cl          1     1.7195865     1.7195865     1.7195865


optimized geometry written to: xtbopt.mol


           -------------------------------------------------
          | TOTAL ENERGY             -205.065878407840 Eh   |
          | GRADIENT NORM               0.000378344206 Eh/α |
          | HOMO-LUMO GAP               0.910940489326 eV   |
           -------------------------------------------------

------------------------------------------------------------------------
 * finished run on 2022/02/01 at 16:19:00.600     
------------------------------------------------------------------------
 total:
 * wall-time:     0 d,  0 h,  0 min, 28.554 sec
 *  cpu-time:     0 d,  0 h,  3 min, 48.317 sec
 * ratio c/w:     7.996 speedup
 SCF:
 * wall-time:     0 d,  0 h,  0 min,  0.279 sec
 *  cpu-time:     0 d,  0 h,  0 min,  2.223 sec
 * ratio c/w:     7.974 speedup
 ANC optimizer:
 * wall-time:     0 d,  0 h,  0 min, 28.206 sec
 *  cpu-time:     0 d,  0 h,  3 min, 45.624 sec
 * ratio c/w:     7.999 speedup

