      -----------------------------------------------------------      
     |                   =====================                   |     
     |                           x T B                           |     
     |                   =====================                   |     
     |                         S. Grimme                         |     
     |          Mulliken Center for Theoretical Chemistry        |     
     |                    University of Bonn                     |     
      -----------------------------------------------------------      

   * xtb version 6.4.1 (unknown) compiled by 'oda6@login1.crc.pitt.edu' on 2021-06-25

   xtb is free software: you can redistribute it and/or modify it under
   the terms of the GNU Lesser General Public License as published by
   the Free Software Foundation, either version 3 of the License, or
   (at your option) any later version.
   
   xtb is distributed in the hope that it will be useful,
   but WITHOUT ANY WARRANTY; without even the implied warranty of
   MERCHANTABILITY or FITNESS FOR A PARTICULAR PURPOSE.  See the
   GNU Lesser General Public License for more details.
   
   Cite this work as:
   * C. Bannwarth, E. Caldeweyher, S. Ehlert, A. Hansen, P. Pracht,
     J. Seibert, S. Spicher, S. Grimme, WIREs Comput. Mol. Sci., 2020, 11,
     e01493. DOI: 10.1002/wcms.1493
   
   for GFN2-xTB:
   * C. Bannwarth, S. Ehlert and S. Grimme., J. Chem. Theory Comput., 2019,
     15, 1652-1671. DOI: 10.1021/acs.jctc.8b01176
   for GFN1-xTB:
   * S. Grimme, C. Bannwarth, P. Shushkov, J. Chem. Theory Comput., 2017,
     13, 1989-2009. DOI: 10.1021/acs.jctc.7b00118
   for GFN0-xTB:
   * P. Pracht, E. Caldeweyher, S. Ehlert, S. Grimme, ChemRxiv, 2019, preprint.
     DOI: 10.26434/chemrxiv.8326202.v1
   for GFN-FF:
   * S. Spicher and S. Grimme, Angew. Chem. Int. Ed., 2020, 59, 15665-15673.
     DOI: 10.1002/anie.202004239
   
   for DFT-D4:
   * E. Caldeweyher, C. Bannwarth and S. Grimme, J. Chem. Phys., 2017,
     147, 034112. DOI: 10.1063/1.4993215
   * E. Caldeweyher, S. Ehlert, A. Hansen, H. Neugebauer, S. Spicher,
     C. Bannwarth and S. Grimme, J. Chem. Phys., 2019, 150, 154122.
     DOI: 10.1063/1.5090222
   * E. Caldeweyher, J.-M. Mewes, S. Ehlert and S. Grimme, Phys. Chem. Chem. Phys.
     2020, 22, 8499-8512. DOI: 10.1039/D0CP00502A
   
   for sTDA-xTB:
   * S. Grimme and C. Bannwarth, J. Chem. Phys., 2016, 145, 054103.
     DOI: 10.1063/1.4959605
   
   in the mass-spec context:
   * V. Asgeirsson, C. Bauer and S. Grimme, Chem. Sci., 2017, 8, 4879.
     DOI: 10.1039/c7sc00601b
   * J. Koopman and S. Grimme, ACS Omega 2019, 4, 12, 15120-15133.
     DOI: 10.1021/acsomega.9b02011
   
   for metadynamics refer to:
   * S. Grimme, J. Chem. Theory Comput., 2019, 155, 2847-2862
     DOI: 10.1021/acs.jctc.9b00143
   
   for SPH calculations refer to:
   * S. Spicher and S. Grimme, J. Chem. Theory Comput., 2021, 17, 1701-1714
     DOI: 10.1021/acs.jctc.0c01306
   
   with help from (in alphabetical order)
   P. Atkinson, C. Bannwarth, F. Bohle, G. Brandenburg, E. Caldeweyher
   M. Checinski, S. Dohm, S. Ehlert, S. Ehrlich, I. Gerasimov, J. Koopman
   C. Lavigne, S. Lehtola, F. März, M. Müller, F. Musil, H. Neugebauer
   J. Pisarek, C. Plett, P. Pracht, J. Seibert, P. Shushkov, S. Spicher
   M. Stahn, M. Steiner, T. Strunk, J. Stückrath, T. Rose, and J. Unsleber
   
 * started run on 2022/02/11 at 02:56:08.527     

           -------------------------------------------------
          |                Calculation Setup                |
           -------------------------------------------------

          program call               : /ihome/ghutchison/oda6/xtb/xtb-641/bin/xtb ../../FF_optimized/23_104_39.mol -opt
          hostname                   : smp-n28
          coordinate file            : ../../FF_optimized/23_104_39.mol
          omp threads                :                     8
          number of atoms            :                   104
          number of electrons        :                   342
          charge                     :                     0
          spin                       :                   0.0
          first test random number   :      0.76466366089713

   ID    Z sym.   atoms
    1    6 C      1-3, 5, 7, 9-13, 15, 17, 19-22, 26, 27, 29-33, 35, 36, 38,
                  39, 41-51, 53-61, 63, 65-71
    2    8 O      4, 52
    3   16 S      6, 18, 24, 28, 34
    4   35 Br     8
    5    7 N      14, 16, 23, 25, 37, 40, 62, 64
    6    1 H      72-104
########################################################################
[WARNING] Please study the warnings concerning your input carefully
-1- prog_main_parseArguments: the use of '-opt' is discouraged, please use '--opt' next time
########################################################################

           -------------------------------------------------
          |                 G F N 2 - x T B                 |
           -------------------------------------------------

        Reference                      10.1021/acs.jctc.8b01176
      * Hamiltonian:
        H0-scaling (s, p, d)           1.850000    2.230000    2.230000
        zeta-weighting                 0.500000
      * Dispersion:
        s8                             2.700000
        a1                             0.520000
        a2                             5.000000
        s9                             5.000000
      * Repulsion:
        kExp                           1.500000    1.000000
        rExp                           1.000000
      * Coulomb:
        alpha                          2.000000
        third order                    shell-resolved
        anisotropic                    true
        a3                             3.000000
        a5                             4.000000
        cn-shift                       1.200000
        cn-exp                         4.000000
        max-rad                        5.000000


          ...................................................
          :                      SETUP                      :
          :.................................................:
          :  # basis functions                 353          :
          :  # atomic orbitals                 347          :
          :  # shells                          181          :
          :  # electrons                       342          :
          :  max. iterations                   250          :
          :  Hamiltonian                  GFN2-xTB          :
          :  restarted?                      false          :
          :  GBSA solvation                  false          :
          :  PC potential                    false          :
          :  electronic temp.          300.0000000     K    :
          :  accuracy                    1.0000000          :
          :  -> integral cutoff          0.2500000E+02      :
          :  -> integral neglect         0.1000000E-07      :
          :  -> SCF convergence          0.1000000E-05 Eh   :
          :  -> wf. convergence          0.1000000E-03 e    :
          :  Broyden damping             0.4000000          :
          ...................................................

 iter      E             dE          RMSdq      gap      omega  full diag
   1   -188.5915725 -0.188592E+03  0.478E+00    1.35       0.0  T
   2   -188.7577897 -0.166217E+00  0.310E+00    0.84       1.0  T
   3   -188.7201655  0.376241E-01  0.198E+00    0.85       1.0  T
   4   -188.9295375 -0.209372E+00  0.749E-01    0.91       1.0  T
   5   -188.9723056 -0.427681E-01  0.239E-01    0.61       1.0  T
   6   -188.9757944 -0.348882E-02  0.134E-01    0.73       1.0  T
   7   -188.9765672 -0.772753E-03  0.528E-02    0.71       1.0  T
   8   -188.9767015 -0.134349E-03  0.280E-02    0.72       1.0  T
   9   -188.9767200 -0.185082E-04  0.190E-02    0.71       1.0  T
  10   -188.9767277 -0.769881E-05  0.138E-02    0.71       1.0  T
  11   -188.9767309 -0.316491E-05  0.897E-03    0.71       1.1  T
  12   -188.9767325 -0.159788E-05  0.607E-03    0.71       1.6  T
  13   -188.9767335 -0.101611E-05  0.334E-03    0.71       2.9  T
  14   -188.9767338 -0.331207E-06  0.154E-03    0.71       6.4  T
  15   -188.9767339 -0.848334E-07  0.894E-04    0.71      11.0  T
  16   -188.9767340 -0.327385E-07  0.528E-04    0.71      18.6  T

   *** convergence criteria satisfied after 16 iterations ***

         #    Occupation            Energy/Eh            Energy/eV
      -------------------------------------------------------------
         1        2.0000           -0.8674148             -23.6036
       ...           ...                  ...                  ...
       165        2.0000           -0.4097246             -11.1492
       166        2.0000           -0.4084191             -11.1136
       167        2.0000           -0.4055497             -11.0356
       168        2.0000           -0.3974476             -10.8151
       169        2.0000           -0.3856308             -10.4935
       170        2.0000           -0.3766307             -10.2486
       171        2.0000           -0.3694821             -10.0541 (HOMO)
       172        0.0000           -0.3433536              -9.3431 (LUMO)
       173                         -0.3316996              -9.0260
       174                         -0.3298491              -8.9757
       175                         -0.3227106              -8.7814
       176                         -0.3054367              -8.3114
       ...                                ...                  ...
       347                          1.0735852              29.2137
      -------------------------------------------------------------
                  HL-Gap            0.0261286 Eh            0.7110 eV
             Fermi-level           -0.3564176 Eh           -9.6986 eV

 SCC (total)                   0 d,  0 h,  0 min,  0.280 sec
 SCC setup                      ...        0 min,  0.001 sec (  0.233%)
 Dispersion                     ...        0 min,  0.004 sec (  1.340%)
 classical contributions        ...        0 min,  0.000 sec (  0.045%)
 integral evaluation            ...        0 min,  0.013 sec (  4.775%)
 iterations                     ...        0 min,  0.226 sec ( 80.862%)
 molecular gradient             ...        0 min,  0.035 sec ( 12.375%)
 printout                       ...        0 min,  0.001 sec (  0.341%)

         :::::::::::::::::::::::::::::::::::::::::::::::::::::
         ::                     SUMMARY                     ::
         :::::::::::::::::::::::::::::::::::::::::::::::::::::
         :: total energy            -186.181566785664 Eh    ::
         :: gradient norm              0.290867261483 Eh/a0 ::
         :: HOMO-LUMO gap              0.710994204554 eV    ::
         ::.................................................::
         :: SCC energy              -188.976733954561 Eh    ::
         :: -> isotropic ES            0.116080201253 Eh    ::
         :: -> anisotropic ES          0.017665338585 Eh    ::
         :: -> anisotropic XC          0.130999523038 Eh    ::
         :: -> dispersion             -0.169935936969 Eh    ::
         :: repulsion energy           2.793998167950 Eh    ::
         :: add. restraining           0.000000000000 Eh    ::
         :: total charge               0.000000001137 e     ::
         :::::::::::::::::::::::::::::::::::::::::::::::::::::

      ----------------------------------------------------------- 
     |                   =====================                   |
     |                        A N C O P T                        |
     |                   =====================                   |
     |               Approximate Normal Coordinate               |
     |                Rational Function Optimizer                |
      ----------------------------------------------------------- 

          ...................................................
          :                      SETUP                      :
          :.................................................:
          :   optimization level            normal          :
          :   max. optcycles                   312          :
          :   ANC micro-cycles                  20          :
          :   degrees of freedom               306          :
          :.................................................:
          :   RF solver                   davidson          :
          :   write xtbopt.log                true          :
          :   linear?                        false          :
          :   energy convergence         0.5000000E-05 Eh   :
          :   grad. convergence          0.1000000E-02 Eh/α :
          :   maximium RF displ.         1.0000000          :
          :   Hlow (freq-cutoff)         0.1000000E-01      :
          :   Hmax (freq-cutoff)         5.0000000          :
          :   S6 in model hess.         20.0000000          :
          ...................................................

generating ANC from model Hessian ...
Using Lindh-Hessian (1995)
 Shifting diagonal of input Hessian by   1.006284326413569E-002
 Lowest  eigenvalues of input Hessian
    0.010000    0.010061    0.000000    0.000000    0.000000    0.000000
    0.000000    0.000000    0.010085    0.010089    0.010139    0.010186
    0.010238    0.010295    0.010372    0.010425    0.010590    0.010683
 Highest eigenvalues
    2.275626    2.334930    2.499878    2.505123    2.556895    2.559917
 

........................................................................
.............................. CYCLE    1 ..............................
........................................................................
   1   -188.9767340 -0.188977E+03  0.315E-04    0.71       0.0  T
   2   -188.9767340  0.239538E-09  0.275E-04    0.71      35.7  T
   3   -188.9767340 -0.361948E-08  0.191E-04    0.71      51.3  T
     SCC iter.                  ...        0 min,  0.044 sec
     gradient                   ...        0 min,  0.034 sec
 * total energy  :  -186.1815668 Eh     change       -0.8459494E-08 Eh
   gradient norm :     0.2908665 Eh/α   predicted     0.0000000E+00 (-100.00%)
   displ. norm   :     0.4613988 α      lambda       -0.9462245E-01
   maximum displ.:     0.1012277 α      in ANC's #182, #173, #185, ...

........................................................................
.............................. CYCLE    2 ..............................
........................................................................
   1   -189.1069378 -0.189107E+03  0.362E-01    0.71       0.0  T
   2   -189.1081984 -0.126060E-02  0.212E-01    0.68       1.0  T
   3   -189.1077917  0.406714E-03  0.114E-01    0.70       1.0  T
   4   -189.1084264 -0.634660E-03  0.526E-02    0.68       1.0  T
   5   -189.1085700 -0.143611E-03  0.258E-02    0.70       1.0  T
   6   -189.1085999 -0.298896E-04  0.140E-02    0.69       1.0  T
   7   -189.1086064 -0.654490E-05  0.934E-03    0.69       1.1  T
   8   -189.1086082 -0.174051E-05  0.683E-03    0.69       1.4  T
   9   -189.1086087 -0.492850E-06  0.454E-03    0.69       2.2  T
  10   -189.1086094 -0.690895E-06  0.259E-03    0.69       3.8  T
  11   -189.1086095 -0.133448E-06  0.145E-03    0.69       6.8  T
  12   -189.1086096 -0.666397E-07  0.582E-04    0.69      16.9  T
  13   -189.1086096 -0.128845E-07  0.283E-04    0.69      34.7  T
     SCC iter.                  ...        0 min,  0.176 sec
     gradient                   ...        0 min,  0.034 sec
 * total energy  :  -186.2490078 Eh     change       -0.6744101E-01 Eh
   gradient norm :     0.1293564 Eh/α   predicted    -0.5742757E-01 ( -14.85%)
   displ. norm   :     0.4547026 α      lambda       -0.3489824E-01
   maximum displ.:     0.0927791 α      in ANC's #70, #106, #66, ...

........................................................................
.............................. CYCLE    3 ..............................
........................................................................
   1   -189.1612499 -0.189161E+03  0.291E-01    0.66       0.0  T
   2   -189.1619858 -0.735915E-03  0.168E-01    0.67       1.0  T
   3   -189.1616911  0.294640E-03  0.920E-02    0.67       1.0  T
   4   -189.1621585 -0.467412E-03  0.370E-02    0.66       1.0  T
   5   -189.1622211 -0.625990E-04  0.186E-02    0.68       1.0  T
   6   -189.1622383 -0.171728E-04  0.110E-02    0.67       1.0  T
   7   -189.1622419 -0.363488E-05  0.774E-03    0.67       1.3  T
   8   -189.1622432 -0.124454E-05  0.543E-03    0.67       1.8  T
   9   -189.1622435 -0.309160E-06  0.368E-03    0.67       2.7  T
  10   -189.1622439 -0.424626E-06  0.205E-03    0.67       4.8  T
  11   -189.1622440 -0.102387E-06  0.100E-03    0.67       9.8  T
  12   -189.1622440 -0.236864E-07  0.541E-04    0.67      18.1  T
  13   -189.1622441 -0.162091E-07  0.243E-04    0.67      40.3  T
     SCC iter.                  ...        0 min,  0.178 sec
     gradient                   ...        0 min,  0.034 sec
 * total energy  :  -186.2698035 Eh     change       -0.2079573E-01 Eh
   gradient norm :     0.0374410 Eh/α   predicted    -0.2105682E-01 (   1.26%)
   displ. norm   :     0.5063552 α      lambda       -0.9805520E-02
   maximum displ.:     0.1768661 α      in ANC's #15, #53, #36, ...

........................................................................
.............................. CYCLE    4 ..............................
........................................................................
   1   -189.1619462 -0.189162E+03  0.309E-01    0.68       0.0  T
   2   -189.1620856 -0.139415E-03  0.175E-01    0.70       1.0  T
   3   -189.1617494  0.336204E-03  0.605E-02    0.69       1.0  T
   4   -189.1621567 -0.407370E-03  0.144E-02    0.71       1.0  T
   5   -189.1621670 -0.102209E-04  0.839E-03    0.70       1.2  T
   6   -189.1621696 -0.260799E-05  0.457E-03    0.70       2.1  T
   7   -189.1621703 -0.710248E-06  0.297E-03    0.70       3.3  T
   8   -189.1621704 -0.159148E-06  0.215E-03    0.70       4.6  T
   9   -189.1621705 -0.557982E-07  0.159E-03    0.70       6.2  T
  10   -189.1621706 -0.801658E-07  0.793E-04    0.70      12.4  T
  11   -189.1621706 -0.200271E-07  0.393E-04    0.70      25.0  T
     SCC iter.                  ...        0 min,  0.154 sec
     gradient                   ...        0 min,  0.034 sec
 * total energy  :  -186.2724576 Eh     change       -0.2654043E-02 Eh
   gradient norm :     0.0388825 Eh/α   predicted    -0.6159814E-02 ( 132.09%)
   displ. norm   :     0.4941629 α      lambda       -0.9703792E-02
   maximum displ.:     0.1493427 α      in ANC's #13, #1, #34, ...

........................................................................
.............................. CYCLE    5 ..............................
........................................................................
   1   -189.1676266 -0.189168E+03  0.348E-01    0.71       0.0  T
   2   -189.1678142 -0.187604E-03  0.194E-01    0.74       1.0  T
   3   -189.1672351  0.579085E-03  0.717E-02    0.71       1.0  T
   4   -189.1679194 -0.684300E-03  0.147E-02    0.74       1.0  T
   5   -189.1679366 -0.171210E-04  0.712E-03    0.74       1.4  T
   6   -189.1679385 -0.194079E-05  0.321E-03    0.74       3.1  T
   7   -189.1679391 -0.565452E-06  0.127E-03    0.74       7.7  T
   8   -189.1679392 -0.866193E-07  0.686E-04    0.74      14.3  T
   9   -189.1679392 -0.129129E-07  0.431E-04    0.74      22.7  T
     SCC iter.                  ...        0 min,  0.124 sec
     gradient                   ...        0 min,  0.034 sec
 * total energy  :  -186.2769519 Eh     change       -0.4494347E-02 Eh
   gradient norm :     0.0272942 Eh/α   predicted    -0.6036715E-02 (  34.32%)
   displ. norm   :     0.3550165 α      lambda       -0.2827870E-02
   maximum displ.:     0.1068254 α      in ANC's #13, #8, #23, ...

........................................................................
.............................. CYCLE    6 ..............................
........................................................................
   1   -189.1584796 -0.189158E+03  0.209E-01    0.74       0.0  T
   2   -189.1585336 -0.539798E-04  0.117E-01    0.77       1.0  T
   3   -189.1580984  0.435186E-03  0.594E-02    0.73       1.0  T
   4   -189.1585954 -0.497014E-03  0.775E-03    0.76       1.3  T
   5   -189.1585977 -0.233703E-05  0.455E-03    0.76       2.2  T
   6   -189.1585984 -0.676230E-06  0.228E-03    0.76       4.3  T
   7   -189.1585986 -0.237874E-06  0.140E-03    0.76       7.0  T
   8   -189.1585987 -0.250495E-07  0.104E-03    0.76       9.4  T
   9   -189.1585987 -0.131420E-07  0.746E-04    0.76      13.1  T
  10   -189.1585987 -0.153244E-07  0.429E-04    0.76      22.8  T
     SCC iter.                  ...        0 min,  0.138 sec
     gradient                   ...        0 min,  0.034 sec
 * total energy  :  -186.2783525 Eh     change       -0.1400564E-02 Eh
   gradient norm :     0.0234638 Eh/α   predicted    -0.1592145E-02 (  13.68%)
   displ. norm   :     0.5627763 α      lambda       -0.4633560E-02
   maximum displ.:     0.2477278 α      in ANC's #31, #23, #15, ...

........................................................................
.............................. CYCLE    7 ..............................
........................................................................
   1   -189.1543483 -0.189154E+03  0.233E-01    0.79       0.0  T
   2   -189.1543977 -0.493552E-04  0.134E-01    0.84       1.0  T
   3   -189.1533419  0.105576E-02  0.916E-02    0.78       1.0  T
   4   -189.1545435 -0.120160E-02  0.125E-02    0.82       1.0  T
   5   -189.1545509 -0.744669E-05  0.709E-03    0.83       1.4  T
   6   -189.1545523 -0.137979E-05  0.407E-03    0.83       2.4  T
   7   -189.1545529 -0.581977E-06  0.275E-03    0.82       3.6  T
   8   -189.1545530 -0.998142E-07  0.198E-03    0.82       5.0  T
   9   -189.1545531 -0.554683E-07  0.132E-03    0.82       7.4  T
  10   -189.1545531 -0.565177E-07  0.706E-04    0.83      13.9  T
  11   -189.1545531 -0.181616E-07  0.341E-04    0.83      28.7  T
     SCC iter.                  ...        0 min,  0.151 sec
     gradient                   ...        0 min,  0.034 sec
 * total energy  :  -186.2802931 Eh     change       -0.1940588E-02 Eh
   gradient norm :     0.0281285 Eh/α   predicted    -0.3050546E-02 (  57.20%)
   displ. norm   :     0.4172640 α      lambda       -0.2655509E-02
   maximum displ.:     0.1623808 α      in ANC's #15, #31, #8, ...

........................................................................
.............................. CYCLE    8 ..............................
........................................................................
   1   -189.1577745 -0.189158E+03  0.154E-01    0.83       0.0  T
   2   -189.1578106 -0.361590E-04  0.879E-02    0.87       1.0  T
   3   -189.1574512  0.359422E-03  0.560E-02    0.83       1.0  T
   4   -189.1578650 -0.413809E-03  0.996E-03    0.86       1.0  T
   5   -189.1578723 -0.723484E-05  0.437E-03    0.86       2.2  T
   6   -189.1578730 -0.708117E-06  0.221E-03    0.86       4.4  T
   7   -189.1578732 -0.245881E-06  0.116E-03    0.86       8.5  T
   8   -189.1578732 -0.227095E-07  0.815E-04    0.86      12.0  T
   9   -189.1578732 -0.149070E-07  0.604E-04    0.86      16.2  T
     SCC iter.                  ...        0 min,  0.125 sec
     gradient                   ...        0 min,  0.034 sec
 * total energy  :  -186.2818265 Eh     change       -0.1533386E-02 Eh
   gradient norm :     0.0203108 Eh/α   predicted    -0.1558934E-02 (   1.67%)
   displ. norm   :     0.5545097 α      lambda       -0.3284079E-02
   maximum displ.:     0.2008636 α      in ANC's #13, #7, #9, ...

........................................................................
.............................. CYCLE    9 ..............................
........................................................................
   1   -189.1541211 -0.189154E+03  0.287E-01    0.82       0.0  T
   2   -189.1542489 -0.127873E-03  0.162E-01    0.87       1.0  T
   3   -189.1533621  0.886789E-03  0.861E-02    0.83       1.0  T
   4   -189.1543786 -0.101641E-02  0.164E-02    0.87       1.0  T
   5   -189.1544003 -0.216969E-04  0.760E-03    0.86       1.3  T
   6   -189.1544019 -0.169048E-05  0.398E-03    0.86       2.5  T
   7   -189.1544027 -0.713737E-06  0.243E-03    0.86       4.0  T
   8   -189.1544027 -0.628768E-07  0.186E-03    0.86       5.3  T
   9   -189.1544028 -0.742641E-07  0.134E-03    0.86       7.3  T
  10   -189.1544028 -0.411059E-07  0.761E-04    0.86      12.9  T
  11   -189.1544029 -0.111088E-07  0.447E-04    0.86      22.0  T
     SCC iter.                  ...        0 min,  0.153 sec
     gradient                   ...        0 min,  0.034 sec
 * total energy  :  -186.2824311 Eh     change       -0.6046377E-03 Eh
   gradient norm :     0.0377758 Eh/α   predicted    -0.2146943E-02 ( 255.08%)
   displ. norm   :     0.3448098 α      lambda       -0.3130673E-02
   maximum displ.:     0.1425402 α      in ANC's #15, #23, #20, ...

........................................................................
.............................. CYCLE   10 ..............................
........................................................................
   1   -189.1552706 -0.189155E+03  0.176E-01    0.88       0.0  T
   2   -189.1553057 -0.351233E-04  0.987E-02    0.90       1.0  T
   3   -189.1549010  0.404673E-03  0.569E-02    0.87       1.0  T
   4   -189.1553553 -0.454234E-03  0.626E-03    0.89       1.6  T
   5   -189.1553566 -0.130343E-05  0.369E-03    0.89       2.7  T
   6   -189.1553573 -0.779265E-06  0.157E-03    0.89       6.3  T
   7   -189.1553574 -0.107455E-06  0.733E-04    0.89      13.4  T
   8   -189.1553575 -0.203442E-07  0.401E-04    0.89      24.4  T
     SCC iter.                  ...        0 min,  0.114 sec
     gradient                   ...        0 min,  0.034 sec
 * total energy  :  -186.2840699 Eh     change       -0.1638759E-02 Eh
   gradient norm :     0.0293808 Eh/α   predicted    -0.1751447E-02 (   6.88%)
   displ. norm   :     0.4295038 α      lambda       -0.2357157E-02
   maximum displ.:     0.1234766 α      in ANC's #13, #9, #15, ...

........................................................................
.............................. CYCLE   11 ..............................
........................................................................
   1   -189.1627947 -0.189163E+03  0.158E-01    0.90       0.0  T
   2   -189.1628391 -0.443895E-04  0.913E-02    0.92       1.0  T
   3   -189.1624838  0.355258E-03  0.554E-02    0.88       1.0  T
   4   -189.1628881 -0.404272E-03  0.864E-03    0.91       1.1  T
   5   -189.1628918 -0.368268E-05  0.477E-03    0.91       2.1  T
   6   -189.1628930 -0.117734E-05  0.241E-03    0.91       4.1  T
   7   -189.1628931 -0.155589E-06  0.157E-03    0.91       6.2  T
   8   -189.1628932 -0.486650E-07  0.111E-03    0.91       8.9  T
   9   -189.1628932 -0.137290E-07  0.857E-04    0.91      11.4  T
  10   -189.1628932 -0.194559E-07  0.462E-04    0.91      21.2  T
     SCC iter.                  ...        0 min,  0.137 sec
     gradient                   ...        0 min,  0.034 sec
 * total energy  :  -186.2846971 Eh     change       -0.6272425E-03 Eh
   gradient norm :     0.0329076 Eh/α   predicted    -0.1396000E-02 ( 122.56%)
   displ. norm   :     0.4053725 α      lambda       -0.1691453E-02
   maximum displ.:     0.1264037 α      in ANC's #9, #13, #15, ...

........................................................................
.............................. CYCLE   12 ..............................
........................................................................
   1   -189.1549656 -0.189155E+03  0.140E-01    0.90       0.0  T
   2   -189.1549865 -0.209237E-04  0.795E-02    0.93       1.0  T
   3   -189.1546127  0.373810E-03  0.538E-02    0.90       1.0  T
   4   -189.1550372 -0.424565E-03  0.801E-03    0.92       1.2  T
   5   -189.1550415 -0.430408E-05  0.384E-03    0.92       2.6  T
   6   -189.1550421 -0.598014E-06  0.164E-03    0.92       6.0  T
   7   -189.1550423 -0.141664E-06  0.753E-04    0.92      13.0  T
   8   -189.1550423 -0.184690E-07  0.474E-04    0.92      20.7  T
     SCC iter.                  ...        0 min,  0.114 sec
     gradient                   ...        0 min,  0.034 sec
 * total energy  :  -186.2859762 Eh     change       -0.1279133E-02 Eh
   gradient norm :     0.0139463 Eh/α   predicted    -0.9847096E-03 ( -23.02%)
   displ. norm   :     0.5245990 α      lambda       -0.1648073E-02
   maximum displ.:     0.1714477 α      in ANC's #15, #9, #1, ...

........................................................................
.............................. CYCLE   13 ..............................
........................................................................
   1   -189.1615141 -0.189162E+03  0.154E-01    0.91       0.0  T
   2   -189.1615467 -0.326184E-04  0.869E-02    0.92       1.0  T
   3   -189.1612534  0.293345E-03  0.492E-02    0.91       1.0  T
   4   -189.1615855 -0.332112E-03  0.864E-03    0.92       1.1  T
   5   -189.1615905 -0.497064E-05  0.455E-03    0.92       2.2  T
   6   -189.1615915 -0.100130E-05  0.205E-03    0.92       4.8  T
   7   -189.1615916 -0.164894E-06  0.121E-03    0.92       8.1  T
   8   -189.1615917 -0.380028E-07  0.872E-04    0.92      11.3  T
   9   -189.1615917 -0.122289E-07  0.646E-04    0.92      15.2  T
     SCC iter.                  ...        0 min,  0.125 sec
     gradient                   ...        0 min,  0.034 sec
 * total energy  :  -186.2869683 Eh     change       -0.9921028E-03 Eh
   gradient norm :     0.0211304 Eh/α   predicted    -0.1050817E-02 (   5.92%)
   displ. norm   :     0.6067875 α      lambda       -0.1239580E-02
   maximum displ.:     0.1970325 α      in ANC's #1, #9, #15, ...

........................................................................
.............................. CYCLE   14 ..............................
........................................................................
   1   -189.1558654 -0.189156E+03  0.139E-01    0.92       0.0  T
   2   -189.1558787 -0.133162E-04  0.811E-02    0.94       1.0  T
   3   -189.1554436  0.435081E-03  0.568E-02    0.91       1.0  T
   4   -189.1559353 -0.491704E-03  0.884E-03    0.94       1.1  T
   5   -189.1559403 -0.499182E-05  0.422E-03    0.93       2.3  T
   6   -189.1559411 -0.806992E-06  0.173E-03    0.94       5.7  T
   7   -189.1559413 -0.160396E-06  0.705E-04    0.93      13.9  T
   8   -189.1559413 -0.271561E-07  0.340E-04    0.93      28.8  T
     SCC iter.                  ...        0 min,  0.115 sec
     gradient                   ...        0 min,  0.034 sec
 * total energy  :  -186.2878995 Eh     change       -0.9311984E-03 Eh
   gradient norm :     0.0216711 Eh/α   predicted    -0.8479912E-03 (  -8.94%)
   displ. norm   :     0.5619537 α      lambda       -0.1389577E-02
   maximum displ.:     0.2396396 α      in ANC's #1, #8, #9, ...

........................................................................
.............................. CYCLE   15 ..............................
........................................................................
   1   -189.1664704 -0.189166E+03  0.132E-01    0.94       0.0  T
   2   -189.1664941 -0.236479E-04  0.752E-02    0.94       1.0  T
   3   -189.1663638  0.130223E-03  0.331E-02    0.93       1.0  T
   4   -189.1665121 -0.148286E-03  0.622E-03    0.94       1.6  T
   5   -189.1665138 -0.172182E-05  0.384E-03    0.94       2.6  T
   6   -189.1665148 -0.949459E-06  0.159E-03    0.94       6.2  T
   7   -189.1665149 -0.157036E-06  0.644E-04    0.94      15.2  T
   8   -189.1665150 -0.167282E-07  0.380E-04    0.94      25.8  T
     SCC iter.                  ...        0 min,  0.115 sec
     gradient                   ...        0 min,  0.034 sec
 * total energy  :  -186.2888559 Eh     change       -0.9564014E-03 Eh
   gradient norm :     0.0127346 Eh/α   predicted    -0.9142013E-03 (  -4.41%)
   displ. norm   :     0.6654828 α      lambda       -0.1301107E-02
   maximum displ.:     0.2656347 α      in ANC's #1, #8, #9, ...

........................................................................
.............................. CYCLE   16 ..............................
........................................................................
   1   -189.1603419 -0.189160E+03  0.163E-01    0.93       0.0  T
   2   -189.1603718 -0.299005E-04  0.924E-02    0.93       1.0  T
   3   -189.1601899  0.181898E-03  0.356E-02    0.92       1.0  T
   4   -189.1603936 -0.203623E-03  0.734E-03    0.93       1.3  T
   5   -189.1603959 -0.230117E-05  0.420E-03    0.93       2.3  T
   6   -189.1603968 -0.910157E-06  0.189E-03    0.93       5.2  T
   7   -189.1603970 -0.218590E-06  0.703E-04    0.93      14.0  T
   8   -189.1603970 -0.208198E-07  0.414E-04    0.93      23.7  T
     SCC iter.                  ...        0 min,  0.111 sec
     gradient                   ...        0 min,  0.034 sec
 * total energy  :  -186.2896065 Eh     change       -0.7506082E-03 Eh
   gradient norm :     0.0213878 Eh/α   predicted    -0.9386646E-03 (  25.05%)
   displ. norm   :     0.4647634 α      lambda       -0.1128853E-02
   maximum displ.:     0.1953530 α      in ANC's #1, #15, #8, ...

........................................................................
.............................. CYCLE   17 ..............................
........................................................................
   1   -189.1672574 -0.189167E+03  0.985E-02    0.93       0.0  T
   2   -189.1672640 -0.663294E-05  0.570E-02    0.92       1.0  T
   3   -189.1671312  0.132760E-03  0.349E-02    0.93       1.0  T
   4   -189.1672798 -0.148600E-03  0.488E-03    0.92       2.0  T
   5   -189.1672811 -0.125361E-05  0.278E-03    0.92       3.5  T
   6   -189.1672815 -0.398223E-06  0.106E-03    0.92       9.2  T
   7   -189.1672815 -0.476916E-07  0.482E-04    0.92      20.3  T
   8   -189.1672815 -0.742128E-08  0.308E-04    0.92      31.9  T
     SCC iter.                  ...        0 min,  0.111 sec
     gradient                   ...        0 min,  0.034 sec
 * total energy  :  -186.2903433 Eh     change       -0.7367896E-03 Eh
   gradient norm :     0.0177119 Eh/α   predicted    -0.6863470E-03 (  -6.85%)
   displ. norm   :     0.5400147 α      lambda       -0.1414688E-02
   maximum displ.:     0.2507781 α      in ANC's #1, #8, #6, ...

........................................................................
.............................. CYCLE   18 ..............................
........................................................................
   1   -189.1683642 -0.189168E+03  0.179E-01    0.92       0.0  T
   2   -189.1684222 -0.580804E-04  0.999E-02    0.91       1.0  T
   3   -189.1683644  0.578507E-04  0.247E-02    0.91       1.0  T
   4   -189.1684373 -0.729194E-04  0.804E-03    0.91       1.2  T
   5   -189.1684423 -0.495055E-05  0.371E-03    0.91       2.6  T
   6   -189.1684426 -0.304628E-06  0.213E-03    0.91       4.6  T
   7   -189.1684429 -0.370529E-06  0.717E-04    0.91      13.7  T
   8   -189.1684430 -0.371276E-07  0.344E-04    0.91      28.5  T
     SCC iter.                  ...        0 min,  0.109 sec
     gradient                   ...        0 min,  0.034 sec
 * total energy  :  -186.2905624 Eh     change       -0.2190985E-03 Eh
   gradient norm :     0.0393914 Eh/α   predicted    -0.9136199E-03 ( 316.99%)
   displ. norm   :     0.3745278 α      lambda       -0.1737371E-02
   maximum displ.:     0.1473907 α      in ANC's #1, #8, #15, ...

........................................................................
.............................. CYCLE   19 ..............................
........................................................................
   1   -189.1742532 -0.189174E+03  0.735E-02    0.91       0.0  T
   2   -189.1742694 -0.162779E-04  0.423E-02    0.92       1.0  T
   3   -189.1742345  0.349433E-04  0.217E-02    0.91       1.0  T
   4   -189.1742750 -0.405287E-04  0.476E-03    0.92       2.1  T
   5   -189.1742766 -0.154330E-05  0.231E-03    0.92       4.2  T
   6   -189.1742769 -0.345167E-06  0.124E-03    0.92       7.9  T
   7   -189.1742770 -0.620423E-07  0.549E-04    0.92      17.9  T
   8   -189.1742770 -0.165331E-07  0.283E-04    0.92      34.7  T
     SCC iter.                  ...        0 min,  0.111 sec
     gradient                   ...        0 min,  0.034 sec
 * total energy  :  -186.2914531 Eh     change       -0.8906545E-03 Eh
   gradient norm :     0.0143281 Eh/α   predicted    -0.9905418E-03 (  11.22%)
   displ. norm   :     0.4887903 α      lambda       -0.9021683E-03
   maximum displ.:     0.2036238 α      in ANC's #1, #8, #14, ...

........................................................................
.............................. CYCLE   20 ..............................
........................................................................
   1   -189.1633391 -0.189163E+03  0.134E-01    0.91       0.0  T
   2   -189.1633535 -0.143550E-04  0.762E-02    0.91       1.0  T
   3   -189.1631675  0.186000E-03  0.400E-02    0.90       1.0  T
   4   -189.1633742 -0.206661E-03  0.583E-03    0.91       1.7  T
   5   -189.1633756 -0.142745E-05  0.347E-03    0.90       2.8  T
   6   -189.1633764 -0.761802E-06  0.132E-03    0.91       7.4  T
   7   -189.1633765 -0.103877E-06  0.534E-04    0.90      18.4  T
   8   -189.1633765 -0.131866E-07  0.307E-04    0.90      31.9  T
     SCC iter.                  ...        0 min,  0.112 sec
     gradient                   ...        0 min,  0.034 sec
 * total energy  :  -186.2918691 Eh     change       -0.4159938E-03 Eh
   gradient norm :     0.0183996 Eh/α   predicted    -0.5588596E-03 (  34.34%)
   displ. norm   :     0.3502434 α      lambda       -0.8308920E-03
   maximum displ.:     0.1409759 α      in ANC's #1, #8, #3, ...
 * RMSD in coord.:     0.7070221 α      energy gain  -0.1103023E+00 Eh

generating ANC from model Hessian ...
Using Lindh-Hessian (1995)
 Shifting diagonal of input Hessian by   1.002344936939522E-002
 Lowest  eigenvalues of input Hessian
    0.010000    0.010016    0.000000    0.000000    0.000000    0.000000
    0.000000    0.000000    0.010053    0.010084    0.010179    0.010249
    0.010282    0.010367    0.010430    0.010669    0.010712    0.010771
 Highest eigenvalues
    2.276927    2.292798    2.609855    2.612305    2.644819    2.667567
 

........................................................................
.............................. CYCLE   21 ..............................
........................................................................
   1   -189.1743096 -0.189174E+03  0.565E-02    0.91       0.0  T
   2   -189.1743139 -0.432663E-05  0.329E-02    0.90       1.0  T
   3   -189.1742658  0.481342E-04  0.224E-02    0.91       1.0  T
   4   -189.1743210 -0.552573E-04  0.349E-03    0.90       2.8  T
   5   -189.1743218 -0.744060E-06  0.169E-03    0.90       5.8  T
   6   -189.1743219 -0.161948E-06  0.846E-04    0.90      11.6  T
   7   -189.1743220 -0.404658E-07  0.374E-04    0.90      26.2  T
     SCC iter.                  ...        0 min,  0.098 sec
     gradient                   ...        0 min,  0.034 sec
 * total energy  :  -186.2924334 Eh     change       -0.5643468E-03 Eh
   gradient norm :     0.0129108 Eh/α   predicted     0.0000000E+00 (-100.00%)
   displ. norm   :     0.1362589 α      lambda       -0.4642715E-03
   maximum displ.:     0.0438701 α      in ANC's #7, #2, #4, ...

........................................................................
.............................. CYCLE   22 ..............................
........................................................................
   1   -189.1724075 -0.189172E+03  0.846E-02    0.91       0.0  T
   2   -189.1724156 -0.810663E-05  0.470E-02    0.91       1.0  T
   3   -189.1723947  0.208821E-04  0.140E-02    0.91       1.0  T
   4   -189.1724198 -0.251201E-04  0.266E-03    0.91       3.7  T
   5   -189.1724202 -0.367987E-06  0.143E-03    0.91       6.9  T
   6   -189.1724203 -0.897775E-07  0.550E-04    0.91      17.8  T
   7   -189.1724203 -0.144688E-07  0.239E-04    0.91      41.0  T
     SCC iter.                  ...        0 min,  0.097 sec
     gradient                   ...        0 min,  0.034 sec
 * total energy  :  -186.2926334 Eh     change       -0.1999975E-03 Eh
   gradient norm :     0.0077339 Eh/α   predicted    -0.2364542E-03 (  18.23%)
   displ. norm   :     0.2928538 α      lambda       -0.8099047E-03
   maximum displ.:     0.0967399 α      in ANC's #6, #2, #5, ...

........................................................................
.............................. CYCLE   23 ..............................
........................................................................
   1   -189.1702771 -0.189170E+03  0.120E-01    0.92       0.0  T
   2   -189.1702954 -0.182546E-04  0.668E-02    0.93       1.0  T
   3   -189.1702168  0.785558E-04  0.282E-02    0.92       1.0  T
   4   -189.1703084 -0.915415E-04  0.506E-03    0.93       1.9  T
   5   -189.1703099 -0.155534E-05  0.266E-03    0.93       3.7  T
   6   -189.1703102 -0.319946E-06  0.103E-03    0.93       9.5  T
   7   -189.1703103 -0.576287E-07  0.406E-04    0.93      24.2  T
   8   -189.1703103 -0.643200E-08  0.201E-04    0.93      48.8  T
     SCC iter.                  ...        0 min,  0.111 sec
     gradient                   ...        0 min,  0.034 sec
 * total energy  :  -186.2928132 Eh     change       -0.1798151E-03 Eh
   gradient norm :     0.0183346 Eh/α   predicted    -0.4396841E-03 ( 144.52%)
   displ. norm   :     0.2052096 α      lambda       -0.7636741E-03
   maximum displ.:     0.0625694 α      in ANC's #7, #2, #53, ...

........................................................................
.............................. CYCLE   24 ..............................
........................................................................
   1   -189.1722988 -0.189172E+03  0.113E-01    0.93       0.0  T
   2   -189.1723133 -0.144982E-04  0.628E-02    0.93       1.0  T
   3   -189.1722986  0.147132E-04  0.123E-02    0.93       1.0  T
   4   -189.1723199 -0.212833E-04  0.299E-03    0.93       3.3  T
   5   -189.1723202 -0.362835E-06  0.172E-03    0.93       5.7  T
   6   -189.1723204 -0.143269E-06  0.564E-04    0.93      17.4  T
   7   -189.1723204 -0.178336E-07  0.241E-04    0.93      40.7  T
     SCC iter.                  ...        0 min,  0.097 sec
     gradient                   ...        0 min,  0.034 sec
 * total energy  :  -186.2931216 Eh     change       -0.3083410E-03 Eh
   gradient norm :     0.0130824 Eh/α   predicted    -0.3979178E-03 (  29.05%)
   displ. norm   :     0.1896054 α      lambda       -0.6244027E-03
   maximum displ.:     0.0660283 α      in ANC's #2, #6, #4, ...

........................................................................
.............................. CYCLE   25 ..............................
........................................................................
   1   -189.1742263 -0.189174E+03  0.773E-02    0.93       0.0  T
   2   -189.1742326 -0.629629E-05  0.437E-02    0.93       1.0  T
   3   -189.1741838  0.487997E-04  0.206E-02    0.93       1.0  T
   4   -189.1742388 -0.549561E-04  0.297E-03    0.93       3.3  T
   5   -189.1742392 -0.450086E-06  0.154E-03    0.93       6.4  T
   6   -189.1742393 -0.853348E-07  0.717E-04    0.93      13.7  T
   7   -189.1742393 -0.249349E-07  0.294E-04    0.93      33.3  T
     SCC iter.                  ...        0 min,  0.097 sec
     gradient                   ...        0 min,  0.034 sec
 * total energy  :  -186.2934674 Eh     change       -0.3458367E-03 Eh
   gradient norm :     0.0103214 Eh/α   predicted    -0.3234259E-03 (  -6.48%)
   displ. norm   :     0.3114649 α      lambda       -0.3696831E-03
   maximum displ.:     0.1195771 α      in ANC's #2, #6, #5, ...

........................................................................
.............................. CYCLE   26 ..............................
........................................................................
   1   -189.1714455 -0.189171E+03  0.688E-02    0.93       0.0  T
   2   -189.1714502 -0.470316E-05  0.386E-02    0.93       1.0  T
   3   -189.1714295  0.207288E-04  0.133E-02    0.93       1.0  T
   4   -189.1714533 -0.238643E-04  0.282E-03    0.93       3.5  T
   5   -189.1714537 -0.323250E-06  0.166E-03    0.93       5.9  T
   6   -189.1714538 -0.157008E-06  0.644E-04    0.93      15.2  T
   7   -189.1714538 -0.235652E-07  0.321E-04    0.93      30.5  T
     SCC iter.                  ...        0 min,  0.096 sec
     gradient                   ...        0 min,  0.034 sec
 * total energy  :  -186.2937449 Eh     change       -0.2774615E-03 Eh
   gradient norm :     0.0086138 Eh/α   predicted    -0.2027750E-03 ( -26.92%)
   displ. norm   :     0.5903713 α      lambda       -0.6986734E-03
   maximum displ.:     0.2298245 α      in ANC's #2, #6, #5, ...

........................................................................
.............................. CYCLE   27 ..............................
........................................................................
   1   -189.1669167 -0.189167E+03  0.985E-02    0.93       0.0  T
   2   -189.1669242 -0.751114E-05  0.562E-02    0.93       1.0  T
   3   -189.1668927  0.314959E-04  0.170E-02    0.93       1.0  T
   4   -189.1669282 -0.355453E-04  0.437E-03    0.93       2.2  T
   5   -189.1669288 -0.599421E-06  0.254E-03    0.93       3.9  T
   6   -189.1669293 -0.456463E-06  0.987E-04    0.93       9.9  T
   7   -189.1669293 -0.556516E-07  0.524E-04    0.93      18.7  T
     SCC iter.                  ...        0 min,  0.097 sec
     gradient                   ...        0 min,  0.034 sec
 * total energy  :  -186.2940392 Eh     change       -0.2943341E-03 Eh
   gradient norm :     0.0126942 Eh/α   predicted    -0.4710997E-03 (  60.06%)
   displ. norm   :     0.3258432 α      lambda       -0.6426500E-03
   maximum displ.:     0.1418122 α      in ANC's #2, #6, #4, ...

........................................................................
.............................. CYCLE   28 ..............................
........................................................................
   1   -189.1709045 -0.189171E+03  0.950E-02    0.93       0.0  T
   2   -189.1709171 -0.125147E-04  0.526E-02    0.93       1.0  T
   3   -189.1708980  0.190892E-04  0.145E-02    0.93       1.0  T
   4   -189.1709218 -0.238111E-04  0.368E-03    0.93       2.7  T
   5   -189.1709226 -0.782018E-06  0.184E-03    0.93       5.3  T
   6   -189.1709227 -0.111958E-06  0.999E-04    0.93       9.8  T
   7   -189.1709227 -0.666637E-07  0.359E-04    0.93      27.3  T
     SCC iter.                  ...        0 min,  0.098 sec
     gradient                   ...        0 min,  0.034 sec
 * total energy  :  -186.2944097 Eh     change       -0.3705311E-03 Eh
   gradient norm :     0.0124655 Eh/α   predicted    -0.3554459E-03 (  -4.07%)
   displ. norm   :     0.4964046 α      lambda       -0.4769133E-03
   maximum displ.:     0.2020406 α      in ANC's #2, #6, #4, ...

........................................................................
.............................. CYCLE   29 ..............................
........................................................................
   1   -189.1698536 -0.189170E+03  0.836E-02    0.93       0.0  T
   2   -189.1698602 -0.656580E-05  0.475E-02    0.93       1.0  T
   3   -189.1698257  0.345112E-04  0.170E-02    0.93       1.0  T
   4   -189.1698642 -0.385472E-04  0.385E-03    0.93       2.5  T
   5   -189.1698649 -0.691066E-06  0.208E-03    0.93       4.7  T
   6   -189.1698651 -0.207382E-06  0.958E-04    0.93      10.2  T
   7   -189.1698651 -0.410979E-07  0.449E-04    0.93      21.8  T
     SCC iter.                  ...        0 min,  0.094 sec
     gradient                   ...        0 min,  0.034 sec
 * total energy  :  -186.2947159 Eh     change       -0.3061309E-03 Eh
   gradient norm :     0.0092070 Eh/α   predicted    -0.2972173E-03 (  -2.91%)
   displ. norm   :     0.4578580 α      lambda       -0.4469882E-03
   maximum displ.:     0.1970002 α      in ANC's #2, #6, #4, ...

........................................................................
.............................. CYCLE   30 ..............................
........................................................................
   1   -189.1748033 -0.189175E+03  0.647E-02    0.93       0.0  T
   2   -189.1748067 -0.337888E-05  0.369E-02    0.93       1.0  T
   3   -189.1747966  0.100961E-04  0.103E-02    0.93       1.0  T
   4   -189.1748079 -0.113516E-04  0.305E-03    0.93       3.2  T
   5   -189.1748083 -0.414840E-06  0.166E-03    0.93       5.9  T
   6   -189.1748085 -0.182467E-06  0.709E-04    0.93      13.8  T
   7   -189.1748085 -0.290203E-07  0.395E-04    0.93      24.9  T
     SCC iter.                  ...        0 min,  0.095 sec
     gradient                   ...        0 min,  0.034 sec
 * total energy  :  -186.2950572 Eh     change       -0.3413258E-03 Eh
   gradient norm :     0.0079827 Eh/α   predicted    -0.2703490E-03 ( -20.79%)
   displ. norm   :     0.6804199 α      lambda       -0.4799528E-03
   maximum displ.:     0.2971288 α      in ANC's #2, #6, #4, ...

........................................................................
.............................. CYCLE   31 ..............................
........................................................................
   1   -189.1737984 -0.189174E+03  0.103E-01    0.93       0.0  T
   2   -189.1738069 -0.848416E-05  0.584E-02    0.93       1.0  T
   3   -189.1737829  0.239713E-04  0.148E-02    0.93       1.0  T
   4   -189.1738110 -0.280293E-04  0.445E-03    0.93       2.2  T
   5   -189.1738115 -0.576988E-06  0.262E-03    0.93       3.7  T
   6   -189.1738120 -0.466262E-06  0.106E-03    0.93       9.2  T
   7   -189.1738121 -0.729498E-07  0.561E-04    0.93      17.5  T
   8   -189.1738121 -0.415525E-08  0.396E-04    0.93      24.8  T
     SCC iter.                  ...        0 min,  0.107 sec
     gradient                   ...        0 min,  0.034 sec
 * total energy  :  -186.2954701 Eh     change       -0.4129066E-03 Eh
   gradient norm :     0.0056537 Eh/α   predicted    -0.3510830E-03 ( -14.97%)
   displ. norm   :     0.6777945 α      lambda       -0.4929598E-03
   maximum displ.:     0.2955061 α      in ANC's #2, #6, #4, ...

........................................................................
.............................. CYCLE   32 ..............................
........................................................................
   1   -189.1750556 -0.189175E+03  0.111E-01    0.92       0.0  T
   2   -189.1750691 -0.134841E-04  0.628E-02    0.92       1.0  T
   3   -189.1750327  0.364599E-04  0.192E-02    0.92       1.0  T
   4   -189.1750764 -0.437950E-04  0.449E-03    0.92       2.2  T
   5   -189.1750770 -0.555370E-06  0.279E-03    0.92       3.5  T
   6   -189.1750774 -0.428531E-06  0.119E-03    0.92       8.2  T
   7   -189.1750775 -0.888862E-07  0.634E-04    0.92      15.5  T
   8   -189.1750775 -0.633301E-08  0.455E-04    0.92      21.5  T
     SCC iter.                  ...        0 min,  0.108 sec
     gradient                   ...        0 min,  0.034 sec
 * total energy  :  -186.2958733 Eh     change       -0.4031522E-03 Eh
   gradient norm :     0.0090159 Eh/α   predicted    -0.3597159E-03 ( -10.77%)
   displ. norm   :     0.7502980 α      lambda       -0.5566491E-03
   maximum displ.:     0.3222053 α      in ANC's #2, #4, #3, ...

........................................................................
.............................. CYCLE   33 ..............................
........................................................................
   1   -189.1768936 -0.189177E+03  0.108E-01    0.92       0.0  T
   2   -189.1769033 -0.974181E-05  0.617E-02    0.92       1.0  T
   3   -189.1768145  0.888477E-04  0.257E-02    0.91       1.0  T
   4   -189.1769126 -0.981195E-04  0.563E-03    0.92       1.7  T
   5   -189.1769145 -0.188714E-05  0.303E-03    0.92       3.2  T
   6   -189.1769149 -0.464350E-06  0.129E-03    0.92       7.6  T
   7   -189.1769150 -0.945130E-07  0.594E-04    0.92      16.5  T
   8   -189.1769150 -0.674996E-08  0.433E-04    0.92      22.6  T
     SCC iter.                  ...        0 min,  0.109 sec
     gradient                   ...        0 min,  0.033 sec
 * total energy  :  -186.2962754 Eh     change       -0.4021500E-03 Eh
   gradient norm :     0.0124704 Eh/α   predicted    -0.4350083E-03 (   8.17%)
   displ. norm   :     0.7147586 α      lambda       -0.5220452E-03
   maximum displ.:     0.3055226 α      in ANC's #2, #4, #3, ...

........................................................................
.............................. CYCLE   34 ..............................
........................................................................
   1   -189.1708224 -0.189171E+03  0.111E-01    0.91       0.0  T
   2   -189.1708362 -0.138319E-04  0.632E-02    0.92       1.0  T
   3   -189.1707555  0.807484E-04  0.255E-02    0.91       1.0  T
   4   -189.1708468 -0.913276E-04  0.541E-03    0.92       1.8  T
   5   -189.1708484 -0.157625E-05  0.314E-03    0.92       3.1  T
   6   -189.1708489 -0.531566E-06  0.135E-03    0.92       7.3  T
   7   -189.1708490 -0.772876E-07  0.708E-04    0.92      13.8  T
   8   -189.1708490 -0.161647E-07  0.499E-04    0.92      19.6  T
     SCC iter.                  ...        0 min,  0.108 sec
     gradient                   ...        0 min,  0.034 sec
 * total energy  :  -186.2966863 Eh     change       -0.4109347E-03 Eh
   gradient norm :     0.0080776 Eh/α   predicted    -0.3943757E-03 (  -4.03%)
   displ. norm   :     0.5972159 α      lambda       -0.7225912E-03
   maximum displ.:     0.2449231 α      in ANC's #3, #4, #2, ...

........................................................................
.............................. CYCLE   35 ..............................
........................................................................
   1   -189.1818097 -0.189182E+03  0.109E-01    0.93       0.0  T
   2   -189.1818315 -0.218759E-04  0.617E-02    0.93       1.0  T
   3   -189.1817338  0.977334E-04  0.325E-02    0.93       1.0  T
   4   -189.1818497 -0.115893E-03  0.610E-03    0.94       1.6  T
   5   -189.1818524 -0.271190E-05  0.321E-03    0.93       3.1  T
   6   -189.1818530 -0.554074E-06  0.143E-03    0.93       6.9  T
   7   -189.1818531 -0.805663E-07  0.681E-04    0.93      14.4  T
   8   -189.1818531 -0.181864E-07  0.430E-04    0.93      22.8  T
     SCC iter.                  ...        0 min,  0.108 sec
     gradient                   ...        0 min,  0.034 sec
 * total energy  :  -186.2969971 Eh     change       -0.3107626E-03 Eh
   gradient norm :     0.0191954 Eh/α   predicted    -0.4901594E-03 (  57.73%)
   displ. norm   :     0.6394776 α      lambda       -0.5972070E-03
   maximum displ.:     0.2791962 α      in ANC's #2, #4, #3, ...

........................................................................
.............................. CYCLE   36 ..............................
........................................................................
   1   -189.1730328 -0.189173E+03  0.959E-02    0.92       0.0  T
   2   -189.1730399 -0.708712E-05  0.556E-02    0.93       1.0  T
   3   -189.1729232  0.116680E-03  0.285E-02    0.91       1.0  T
   4   -189.1730506 -0.127357E-03  0.526E-03    0.93       1.9  T
   5   -189.1730522 -0.158581E-05  0.251E-03    0.93       3.9  T
   6   -189.1730524 -0.234956E-06  0.121E-03    0.93       8.1  T
   7   -189.1730525 -0.839647E-07  0.529E-04    0.93      18.5  T
   8   -189.1730525 -0.875102E-08  0.359E-04    0.93      27.3  T
     SCC iter.                  ...        0 min,  0.109 sec
     gradient                   ...        0 min,  0.033 sec
 * total energy  :  -186.2974708 Eh     change       -0.4737036E-03 Eh
   gradient norm :     0.0109292 Eh/α   predicted    -0.4207127E-03 ( -11.19%)
   displ. norm   :     0.6256281 α      lambda       -0.5549505E-03
   maximum displ.:     0.2680364 α      in ANC's #3, #2, #4, ...

........................................................................
.............................. CYCLE   37 ..............................
........................................................................
   1   -189.1733901 -0.189173E+03  0.800E-02    0.92       0.0  T
   2   -189.1733964 -0.632464E-05  0.469E-02    0.93       1.0  T
   3   -189.1733050  0.914012E-04  0.257E-02    0.92       1.0  T
   4   -189.1734045 -0.994606E-04  0.600E-03    0.93       1.6  T
   5   -189.1734077 -0.319069E-05  0.220E-03    0.93       4.5  T
   6   -189.1734078 -0.175730E-06  0.111E-03    0.93       8.8  T
   7   -189.1734079 -0.601781E-07  0.485E-04    0.93      20.2  T
   8   -189.1734079 -0.108358E-07  0.297E-04    0.93      33.0  T
     SCC iter.                  ...        0 min,  0.108 sec
     gradient                   ...        0 min,  0.034 sec
 * total energy  :  -186.2978619 Eh     change       -0.3910647E-03 Eh
   gradient norm :     0.0117681 Eh/α   predicted    -0.3860883E-03 (  -1.27%)
   displ. norm   :     0.6855127 α      lambda       -0.5360610E-03
   maximum displ.:     0.2945558 α      in ANC's #3, #2, #4, ...

........................................................................
.............................. CYCLE   38 ..............................
........................................................................
   1   -189.1660828 -0.189166E+03  0.124E-01    0.93       0.0  T
   2   -189.1661009 -0.180800E-04  0.702E-02    0.93       1.0  T
   3   -189.1659749  0.125953E-03  0.311E-02    0.92       1.0  T
   4   -189.1661157 -0.140736E-03  0.659E-03    0.94       1.5  T
   5   -189.1661190 -0.330146E-05  0.323E-03    0.93       3.0  T
   6   -189.1661194 -0.457695E-06  0.144E-03    0.93       6.8  T
   7   -189.1661196 -0.115334E-06  0.587E-04    0.93      16.7  T
   8   -189.1661196 -0.160437E-07  0.355E-04    0.93      27.6  T
     SCC iter.                  ...        0 min,  0.112 sec
     gradient                   ...        0 min,  0.034 sec
 * total energy  :  -186.2982691 Eh     change       -0.4072561E-03 Eh
   gradient norm :     0.0167887 Eh/α   predicted    -0.3939918E-03 (  -3.26%)
   displ. norm   :     0.5913544 α      lambda       -0.6896353E-03
   maximum displ.:     0.2781164 α      in ANC's #3, #4, #2, ...

........................................................................
.............................. CYCLE   39 ..............................
........................................................................
   1   -189.1720404 -0.189172E+03  0.848E-02    0.93       0.0  T
   2   -189.1720508 -0.103972E-04  0.489E-02    0.94       1.0  T
   3   -189.1719643  0.865065E-04  0.287E-02    0.94       1.0  T
   4   -189.1720626 -0.982610E-04  0.636E-03    0.94       1.5  T
   5   -189.1720664 -0.379608E-05  0.249E-03    0.94       3.9  T
   6   -189.1720666 -0.234097E-06  0.129E-03    0.94       7.6  T
   7   -189.1720667 -0.625155E-07  0.639E-04    0.94      15.3  T
   8   -189.1720667 -0.140486E-07  0.432E-04    0.94      22.7  T
     SCC iter.                  ...        0 min,  0.108 sec
     gradient                   ...        0 min,  0.034 sec
 * total energy  :  -186.2987989 Eh     change       -0.5298213E-03 Eh
   gradient norm :     0.0113931 Eh/α   predicted    -0.4654045E-03 ( -12.16%)
   displ. norm   :     0.7145002 α      lambda       -0.6445982E-03
   maximum displ.:     0.3430985 α      in ANC's #3, #4, #2, ...

........................................................................
.............................. CYCLE   40 ..............................
........................................................................
   1   -189.1752894 -0.189175E+03  0.990E-02    0.94       0.0  T
   2   -189.1753077 -0.183465E-04  0.571E-02    0.95       1.0  T
   3   -189.1752409  0.668162E-04  0.278E-02    0.94       1.0  T
   4   -189.1753203 -0.793682E-04  0.543E-03    0.95       1.8  T
   5   -189.1753224 -0.209391E-05  0.282E-03    0.95       3.5  T
   6   -189.1753228 -0.420759E-06  0.136E-03    0.95       7.2  T
   7   -189.1753229 -0.112005E-06  0.602E-04    0.95      16.3  T
   8   -189.1753229 -0.140454E-07  0.390E-04    0.95      25.2  T
     SCC iter.                  ...        0 min,  0.111 sec
     gradient                   ...        0 min,  0.034 sec
 * total energy  :  -186.2993278 Eh     change       -0.5288122E-03 Eh
   gradient norm :     0.0109307 Eh/α   predicted    -0.4868424E-03 (  -7.94%)
   displ. norm   :     0.7564629 α      lambda       -0.6982769E-03
   maximum displ.:     0.3707530 α      in ANC's #3, #4, #2, ...

........................................................................
.............................. CYCLE   41 ..............................
........................................................................
   1   -189.1787069 -0.189179E+03  0.994E-02    0.94       0.0  T
   2   -189.1787155 -0.859381E-05  0.575E-02    0.95       1.0  T
   3   -189.1785619  0.153574E-03  0.365E-02    0.95       1.0  T
   4   -189.1787363 -0.174414E-03  0.628E-03    0.95       1.6  T
   5   -189.1787394 -0.306695E-05  0.279E-03    0.95       3.5  T
   6   -189.1787397 -0.312982E-06  0.134E-03    0.95       7.3  T
   7   -189.1787398 -0.862892E-07  0.595E-04    0.95      16.5  T
   8   -189.1787398 -0.110542E-07  0.392E-04    0.95      25.0  T
     SCC iter.                  ...        0 min,  0.109 sec
     gradient                   ...        0 min,  0.033 sec
 * total energy  :  -186.2999477 Eh     change       -0.6199115E-03 Eh
   gradient norm :     0.0093380 Eh/α   predicted    -0.5489314E-03 ( -11.45%)
   displ. norm   :     0.8224633 α      lambda       -0.7740356E-03
   maximum displ.:     0.4065928 α      in ANC's #3, #4, #2, ...

........................................................................
.............................. CYCLE   42 ..............................
........................................................................
   1   -189.1771080 -0.189177E+03  0.116E-01    0.95       0.0  T
   2   -189.1771228 -0.148415E-04  0.665E-02    0.95       1.0  T
   3   -189.1769587  0.164173E-03  0.363E-02    0.95       1.0  T
   4   -189.1771423 -0.183612E-03  0.657E-03    0.95       1.5  T
   5   -189.1771460 -0.369161E-05  0.311E-03    0.95       3.2  T
   6   -189.1771464 -0.413366E-06  0.157E-03    0.95       6.3  T
   7   -189.1771465 -0.139324E-06  0.620E-04    0.95      15.8  T
   8   -189.1771465 -0.134237E-07  0.398E-04    0.95      24.6  T
     SCC iter.                  ...        0 min,  0.109 sec
     gradient                   ...        0 min,  0.034 sec
 * total energy  :  -186.3006231 Eh     change       -0.6754107E-03 Eh
   gradient norm :     0.0079232 Eh/α   predicted    -0.6488204E-03 (  -3.94%)
   displ. norm   :     0.7576506 α      lambda       -0.7806446E-03
   maximum displ.:     0.3956971 α      in ANC's #3, #4, #2, ...
 * RMSD in coord.:     1.0796731 α      energy gain  -0.8754007E-02 Eh

generating ANC from model Hessian ...
Using Lindh-Hessian (1995)
 Shifting diagonal of input Hessian by   1.004120207321563E-002
 Lowest  eigenvalues of input Hessian
    0.010000    0.010037    0.000000    0.000000    0.000000    0.000000
    0.000000    0.000000    0.010076    0.010098    0.010238    0.010281
    0.010318    0.010415    0.010570    0.010617    0.010809    0.010875
 Highest eigenvalues
    2.280906    2.297574    2.609852    2.613018    2.647507    2.651263
 

........................................................................
.............................. CYCLE   43 ..............................
........................................................................
   1   -189.1839495 -0.189184E+03  0.114E-01    0.96       0.0  T
   2   -189.1839706 -0.211891E-04  0.659E-02    0.95       1.0  T
   3   -189.1837710  0.199676E-03  0.407E-02    0.96       1.0  T
   4   -189.1839968 -0.225809E-03  0.765E-03    0.96       1.3  T
   5   -189.1840028 -0.600924E-05  0.331E-03    0.96       3.0  T
   6   -189.1840033 -0.532541E-06  0.170E-03    0.96       5.8  T
   7   -189.1840035 -0.169873E-06  0.666E-04    0.96      14.7  T
   8   -189.1840035 -0.251638E-07  0.341E-04    0.96      28.7  T
     SCC iter.                  ...        0 min,  0.107 sec
     gradient                   ...        0 min,  0.034 sec
 * total energy  :  -186.3010857 Eh     change       -0.4625901E-03 Eh
   gradient norm :     0.0149837 Eh/α   predicted     0.0000000E+00 (-100.00%)
   displ. norm   :     0.0974365 α      lambda       -0.4062899E-03
   maximum displ.:     0.0395126 α      in ANC's #4, #3, #5, ...

........................................................................
.............................. CYCLE   44 ..............................
........................................................................
   1   -189.1818271 -0.189182E+03  0.425E-02    0.95       0.0  T
   2   -189.1818305 -0.341794E-05  0.238E-02    0.95       1.0  T
   3   -189.1818256  0.488312E-05  0.743E-03    0.95       1.3  T
   4   -189.1818314 -0.581262E-05  0.226E-03    0.95       4.3  T
   5   -189.1818319 -0.429432E-06  0.115E-03    0.95       8.5  T
   6   -189.1818319 -0.647306E-07  0.543E-04    0.95      18.1  T
   7   -189.1818319 -0.148036E-07  0.241E-04    0.95      40.8  T
     SCC iter.                  ...        0 min,  0.098 sec
     gradient                   ...        0 min,  0.034 sec
 * total energy  :  -186.3013024 Eh     change       -0.2167339E-03 Eh
   gradient norm :     0.0055885 Eh/α   predicted    -0.2050788E-03 (  -5.38%)
   displ. norm   :     0.2058566 α      lambda       -0.4570886E-03
   maximum displ.:     0.0854798 α      in ANC's #4, #16, #11, ...

........................................................................
.............................. CYCLE   45 ..............................
........................................................................
   1   -189.1775812 -0.189178E+03  0.111E-01    0.94       0.0  T
   2   -189.1776023 -0.210426E-04  0.616E-02    0.94       1.0  T
   3   -189.1775594  0.428474E-04  0.226E-02    0.94       1.0  T
   4   -189.1776135 -0.540631E-04  0.418E-03    0.94       2.3  T
   5   -189.1776144 -0.945099E-06  0.226E-03    0.94       4.3  T
   6   -189.1776147 -0.274003E-06  0.984E-04    0.94      10.0  T
   7   -189.1776148 -0.430477E-07  0.538E-04    0.94      18.2  T
     SCC iter.                  ...        0 min,  0.097 sec
     gradient                   ...        0 min,  0.034 sec
 * total energy  :  -186.3012252 Eh     change        0.7719562E-04 Eh
   gradient norm :     0.0147583 Eh/α   predicted    -0.2382353E-03 (-408.61%)
   displ. norm   :     0.0832104 α      lambda       -0.5093588E-03
   maximum displ.:     0.0334054 α      in ANC's #28, #19, #16, ...

........................................................................
.............................. CYCLE   46 ..............................
........................................................................
   1   -189.1798975 -0.189180E+03  0.719E-02    0.94       0.0  T
   2   -189.1799051 -0.754372E-05  0.399E-02    0.94       1.0  T
   3   -189.1798877  0.173953E-04  0.134E-02    0.95       1.0  T
   4   -189.1799093 -0.216263E-04  0.200E-03    0.94       4.9  T
   5   -189.1799094 -0.137748E-06  0.122E-03    0.94       8.0  T
   6   -189.1799095 -0.986124E-07  0.425E-04    0.94      23.0  T
   7   -189.1799095 -0.106296E-07  0.194E-04    0.94      50.6  T
     SCC iter.                  ...        0 min,  0.096 sec
     gradient                   ...        0 min,  0.033 sec
 * total energy  :  -186.3015113 Eh     change       -0.2860931E-03 Eh
   gradient norm :     0.0054973 Eh/α   predicted    -0.2564431E-03 ( -10.36%)
   displ. norm   :     0.1415781 α      lambda       -0.2525590E-03
   maximum displ.:     0.0679771 α      in ANC's #4, #15, #8, ...

........................................................................
.............................. CYCLE   47 ..............................
........................................................................
   1   -189.1794188 -0.189179E+03  0.902E-02    0.94       0.0  T
   2   -189.1794293 -0.105591E-04  0.500E-02    0.94       1.0  T
   3   -189.1794031  0.262324E-04  0.147E-02    0.95       1.0  T
   4   -189.1794353 -0.322208E-04  0.235E-03    0.94       4.2  T
   5   -189.1794355 -0.178928E-06  0.144E-03    0.94       6.8  T
   6   -189.1794356 -0.101311E-06  0.616E-04    0.94      15.9  T
   7   -189.1794356 -0.245080E-07  0.245E-04    0.94      40.0  T
     SCC iter.                  ...        0 min,  0.097 sec
     gradient                   ...        0 min,  0.033 sec
 * total energy  :  -186.3014996 Eh     change        0.1169611E-04 Eh
   gradient norm :     0.0072383 Eh/α   predicted    -0.1288131E-03 (*******%)
   displ. norm   :     0.1621153 α      lambda       -0.3654334E-03
   maximum displ.:     0.0739676 α      in ANC's #4, #3, #5, ...

........................................................................
.............................. CYCLE   48 ..............................
........................................................................
   1   -189.1795411 -0.189180E+03  0.682E-02    0.94       0.0  T
   2   -189.1795477 -0.663212E-05  0.378E-02    0.94       1.0  T
   3   -189.1795381  0.964002E-05  0.999E-03    0.94       1.0  T
   4   -189.1795509 -0.127542E-04  0.211E-03    0.94       4.7  T
   5   -189.1795511 -0.287110E-06  0.120E-03    0.94       8.1  T
   6   -189.1795512 -0.890194E-07  0.497E-04    0.94      19.7  T
   7   -189.1795513 -0.182468E-07  0.175E-04    0.94      56.2  T
     SCC iter.                  ...        0 min,  0.099 sec
     gradient                   ...        0 min,  0.033 sec
 * total energy  :  -186.3017067 Eh     change       -0.2070898E-03 Eh
   gradient norm :     0.0058719 Eh/α   predicted    -0.1875183E-03 (  -9.45%)
   displ. norm   :     0.2955059 α      lambda       -0.4057740E-03
   maximum displ.:     0.1524673 α      in ANC's #4, #3, #5, ...

........................................................................
.............................. CYCLE   49 ..............................
........................................................................
   1   -189.1802338 -0.189180E+03  0.806E-02    0.94       0.0  T
   2   -189.1802411 -0.730112E-05  0.452E-02    0.93       1.0  T
   3   -189.1802232  0.178352E-04  0.133E-02    0.94       1.0  T
   4   -189.1802445 -0.212927E-04  0.283E-03    0.93       3.5  T
   5   -189.1802450 -0.496007E-06  0.172E-03    0.93       5.7  T
   6   -189.1802452 -0.186626E-06  0.737E-04    0.93      13.3  T
   7   -189.1802452 -0.331903E-07  0.288E-04    0.93      34.1  T
     SCC iter.                  ...        0 min,  0.097 sec
     gradient                   ...        0 min,  0.034 sec
 * total energy  :  -186.3018275 Eh     change       -0.1208371E-03 Eh
   gradient norm :     0.0076248 Eh/α   predicted    -0.2206049E-03 (  82.56%)
   displ. norm   :     0.2452272 α      lambda       -0.3064409E-03
   maximum displ.:     0.1316070 α      in ANC's #4, #3, #5, ...

........................................................................
.............................. CYCLE   50 ..............................
........................................................................
   1   -189.1801424 -0.189180E+03  0.563E-02    0.93       0.0  T
   2   -189.1801462 -0.381654E-05  0.316E-02    0.93       1.0  T
   3   -189.1801204  0.258211E-04  0.138E-02    0.93       1.0  T
   4   -189.1801496 -0.291941E-04  0.228E-03    0.93       4.3  T
   5   -189.1801500 -0.350975E-06  0.124E-03    0.93       7.9  T
   6   -189.1801500 -0.744046E-07  0.560E-04    0.93      17.5  T
   7   -189.1801501 -0.179590E-07  0.210E-04    0.93      46.6  T
     SCC iter.                  ...        0 min,  0.095 sec
     gradient                   ...        0 min,  0.033 sec
 * total energy  :  -186.3020821 Eh     change       -0.2545642E-03 Eh
   gradient norm :     0.0050258 Eh/α   predicted    -0.1624378E-03 ( -36.19%)
   displ. norm   :     0.5113307 α      lambda       -0.4490805E-03
   maximum displ.:     0.2723350 α      in ANC's #4, #3, #5, ...

........................................................................
.............................. CYCLE   51 ..............................
........................................................................
   1   -189.1785678 -0.189179E+03  0.873E-02    0.93       0.0  T
   2   -189.1785775 -0.969587E-05  0.495E-02    0.92       1.0  T
   3   -189.1784957  0.817876E-04  0.248E-02    0.93       1.0  T
   4   -189.1785876 -0.918687E-04  0.413E-03    0.92       2.4  T
   5   -189.1785887 -0.115688E-05  0.229E-03    0.92       4.3  T
   6   -189.1785890 -0.288339E-06  0.102E-03    0.92       9.6  T
   7   -189.1785891 -0.587754E-07  0.388E-04    0.92      25.3  T
   8   -189.1785891 -0.887093E-08  0.213E-04    0.92      46.0  T
     SCC iter.                  ...        0 min,  0.105 sec
     gradient                   ...        0 min,  0.033 sec
 * total energy  :  -186.3024134 Eh     change       -0.3313289E-03 Eh
   gradient norm :     0.0062580 Eh/α   predicted    -0.2832495E-03 ( -14.51%)
   displ. norm   :     0.6003098 α      lambda       -0.4431088E-03
   maximum displ.:     0.3186356 α      in ANC's #4, #3, #5, ...

........................................................................
.............................. CYCLE   52 ..............................
........................................................................
   1   -189.1773180 -0.189177E+03  0.961E-02    0.93       0.0  T
   2   -189.1773268 -0.873427E-05  0.547E-02    0.92       1.0  T
   3   -189.1772300  0.968112E-04  0.263E-02    0.93       1.0  T
   4   -189.1773376 -0.107613E-03  0.419E-03    0.92       2.3  T
   5   -189.1773385 -0.941479E-06  0.254E-03    0.92       3.9  T
   6   -189.1773389 -0.402292E-06  0.104E-03    0.92       9.4  T
   7   -189.1773390 -0.612382E-07  0.421E-04    0.92      23.3  T
   8   -189.1773390 -0.106741E-07  0.229E-04    0.92      42.9  T
     SCC iter.                  ...        0 min,  0.106 sec
     gradient                   ...        0 min,  0.033 sec
 * total energy  :  -186.3027212 Eh     change       -0.3077676E-03 Eh
   gradient norm :     0.0080023 Eh/α   predicted    -0.3013995E-03 (  -2.07%)
   displ. norm   :     0.5660709 α      lambda       -0.4130142E-03
   maximum displ.:     0.3043039 α      in ANC's #4, #3, #5, ...

........................................................................
.............................. CYCLE   53 ..............................
........................................................................
   1   -189.1787111 -0.189179E+03  0.652E-02    0.92       0.0  T
   2   -189.1787150 -0.384362E-05  0.380E-02    0.92       1.0  T
   3   -189.1786583  0.567208E-04  0.207E-02    0.93       1.0  T
   4   -189.1787208 -0.625728E-04  0.343E-03    0.92       2.9  T
   5   -189.1787216 -0.768357E-06  0.206E-03    0.92       4.8  T
   6   -189.1787219 -0.326995E-06  0.781E-04    0.92      12.6  T
   7   -189.1787220 -0.306590E-07  0.333E-04    0.92      29.4  T
     SCC iter.                  ...        0 min,  0.092 sec
     gradient                   ...        0 min,  0.033 sec
 * total energy  :  -186.3030871 Eh     change       -0.3658881E-03 Eh
   gradient norm :     0.0057636 Eh/α   predicted    -0.2726795E-03 ( -25.47%)
   displ. norm   :     0.6157956 α      lambda       -0.5329244E-03
   maximum displ.:     0.3447772 α      in ANC's #4, #3, #2, ...

........................................................................
.............................. CYCLE   54 ..............................
........................................................................
   1   -189.1834911 -0.189183E+03  0.745E-02    0.92       0.0  T
   2   -189.1834977 -0.656400E-05  0.434E-02    0.92       1.0  T
   3   -189.1834195  0.782018E-04  0.242E-02    0.93       1.0  T
   4   -189.1835062 -0.867732E-04  0.416E-03    0.93       2.4  T
   5   -189.1835076 -0.136709E-05  0.231E-03    0.93       4.2  T
   6   -189.1835080 -0.387778E-06  0.930E-04    0.93      10.5  T
   7   -189.1835080 -0.396606E-07  0.392E-04    0.93      25.0  T
     SCC iter.                  ...        0 min,  0.093 sec
     gradient                   ...        0 min,  0.033 sec
 * total energy  :  -186.3035251 Eh     change       -0.4379799E-03 Eh
   gradient norm :     0.0052709 Eh/α   predicted    -0.3675083E-03 ( -16.09%)
   displ. norm   :     0.7146315 α      lambda       -0.4530630E-03
   maximum displ.:     0.4045132 α      in ANC's #4, #3, #2, ...

........................................................................
.............................. CYCLE   55 ..............................
........................................................................
   1   -189.1809072 -0.189181E+03  0.822E-02    0.92       0.0  T
   2   -189.1809136 -0.638090E-05  0.475E-02    0.93       1.0  T
   3   -189.1808447  0.688980E-04  0.231E-02    0.93       1.0  T
   4   -189.1809210 -0.763704E-04  0.429E-03    0.93       2.3  T
   5   -189.1809222 -0.115486E-05  0.244E-03    0.93       4.0  T
   6   -189.1809225 -0.361322E-06  0.896E-04    0.93      10.9  T
   7   -189.1809226 -0.400187E-07  0.402E-04    0.93      24.4  T
     SCC iter.                  ...        0 min,  0.093 sec
     gradient                   ...        0 min,  0.033 sec
 * total energy  :  -186.3039133 Eh     change       -0.3882711E-03 Eh
   gradient norm :     0.0047115 Eh/α   predicted    -0.3422238E-03 ( -11.86%)
   displ. norm   :     0.6601203 α      lambda       -0.4211400E-03
   maximum displ.:     0.3863946 α      in ANC's #4, #3, #2, ...

........................................................................
.............................. CYCLE   56 ..............................
........................................................................
   1   -189.1837292 -0.189184E+03  0.710E-02    0.93       0.0  T
   2   -189.1837351 -0.585889E-05  0.414E-02    0.94       1.0  T
   3   -189.1836639  0.711866E-04  0.234E-02    0.93       1.0  T
   4   -189.1837428 -0.789193E-04  0.432E-03    0.94       2.3  T
   5   -189.1837443 -0.145417E-05  0.224E-03    0.94       4.4  T
   6   -189.1837446 -0.309521E-06  0.849E-04    0.94      11.5  T
   7   -189.1837446 -0.288024E-07  0.383E-04    0.94      25.6  T
     SCC iter.                  ...        0 min,  0.097 sec
     gradient                   ...        0 min,  0.033 sec
 * total energy  :  -186.3042736 Eh     change       -0.3602283E-03 Eh
   gradient norm :     0.0046437 Eh/α   predicted    -0.3023320E-03 ( -16.07%)
   displ. norm   :     0.6629546 α      lambda       -0.3879279E-03
   maximum displ.:     0.3898540 α      in ANC's #4, #3, #2, ...

........................................................................
.............................. CYCLE   57 ..............................
........................................................................
   1   -189.1816731 -0.189182E+03  0.721E-02    0.93       0.0  T
   2   -189.1816781 -0.494996E-05  0.414E-02    0.94       1.0  T
   3   -189.1816427  0.354184E-04  0.169E-02    0.94       1.0  T
   4   -189.1816822 -0.394903E-04  0.351E-03    0.94       2.8  T
   5   -189.1816828 -0.652355E-06  0.209E-03    0.94       4.7  T
   6   -189.1816831 -0.268323E-06  0.695E-04    0.94      14.1  T
   7   -189.1816831 -0.250890E-07  0.325E-04    0.94      30.2  T
[...]
    68   6 C        2.987    -0.039    28.968     8.829
    69   6 C        4.012    -0.014    20.739     6.469
    70   6 C        3.927    -0.058    21.551     6.598
    71   6 C        4.162    -0.023    20.905     6.494
    72   1 H        0.925     0.089     1.893     2.152
    73   1 H        0.926     0.079     1.986     2.204
    74   1 H        0.924     0.052     2.299     2.371
    75   1 H        0.924     0.055     2.258     2.350
    76   1 H        0.925     0.054     2.265     2.354
    77   1 H        0.925     0.042     2.416     2.431
    78   1 H        0.925     0.042     2.427     2.436
    79   1 H        0.925     0.039     2.463     2.454
    80   1 H        0.925     0.046     2.365     2.405
    81   1 H        0.925     0.045     2.389     2.417
    82   1 H        0.925     0.043     2.408     2.426
    83   1 H        0.925     0.037     2.483     2.464
    84   1 H        0.924     0.061     2.182     2.310
    85   1 H        0.924     0.053     2.280     2.361
    86   1 H        0.925     0.056     2.242     2.341
    87   1 H        0.925     0.061     2.190     2.314
    88   1 H        0.925     0.047     2.357     2.401
    89   1 H        0.925     0.064     2.154     2.295
    90   1 H        0.924     0.073     2.049     2.239
    91   1 H        0.925     0.047     2.353     2.399
    92   1 H        0.925     0.054     2.272     2.357
    93   1 H        0.925     0.049     2.331     2.388
    94   1 H        0.925     0.070     2.081     2.256
    95   1 H        0.926     0.057     2.235     2.338
    96   1 H        0.926     0.056     2.244     2.342
    97   1 H        0.925     0.043     2.404     2.425
    98   1 H        0.925     0.037     2.492     2.469
    99   1 H        0.926     0.033     2.545     2.495
   100   1 H        0.926     0.032     2.563     2.504
   101   1 H        0.925     0.034     2.527     2.486
   102   1 H        0.925     0.038     2.480     2.463
   103   1 H        0.925     0.041     2.439     2.442
   104   1 H        0.925     0.042     2.423     2.434

 Mol. C6AA /au·bohr⁶  :     204211.897420
 Mol. C8AA /au·bohr⁸  :    5903489.241818
 Mol. α(0) /au        :        716.063354


Wiberg/Mayer (AO) data.
largest (>0.10) Wiberg bond orders for each atom

 ---------------------------------------------------------------------------
     #   Z sym  total        # sym  WBO       # sym  WBO       # sym  WBO
 ---------------------------------------------------------------------------
     1   6 C    3.941 --     2 C    1.524    17 C    1.268    72 H    0.942
     2   6 C    3.953 --     1 C    1.524    11 C    1.155     3 C    1.001
     3   6 C    3.926 --     4 O    1.761     5 C    1.055     2 C    1.001
     4   8 O    2.050 --     3 C    1.761
     5   6 C    3.924 --    10 C    1.399     6 S    1.190     3 C    1.055
     6  16 S    2.689 --     5 C    1.190     7 C    1.179
     7   6 C    3.898 --     9 C    1.539     6 S    1.179     8 Br   1.035
     8  35 Br   1.184 --     7 C    1.035
     9   6 C    3.976 --     7 C    1.539    10 C    1.279    73 H    0.955
    10   6 C    3.977 --     5 C    1.399     9 C    1.279    11 C    1.080
    11   6 C    3.972 --    12 C    1.459     2 C    1.155    10 C    1.080
    12   6 C    3.967 --    11 C    1.459    15 C    1.111    13 C    1.096
    13   6 C    3.946 --    14 N    2.769    12 C    1.096
    14   7 N    2.967 --    13 C    2.769
    15   6 C    3.945 --    16 N    2.749    12 C    1.111
    16   7 N    2.969 --    15 C    2.749
    17   6 C    3.926 --    42 C    1.389     1 C    1.268    18 S    1.073
    18  16 S    2.561 --    19 C    1.155    17 C    1.073
    19   6 C    3.933 --    20 C    1.280    41 C    1.277    18 S    1.155
    20   6 C    3.955 --    19 C    1.280    39 C    1.263    21 C    1.171
    21   6 C    3.973 --    25 N    1.428    20 C    1.171    22 C    1.168
    22   6 C    3.973 --    23 N    1.427    26 C    1.171    21 C    1.168
                            24 S    0.103
    23   7 N    3.074 --    22 C    1.427    24 S    1.394    25 N    0.148
    24  16 S    3.107 --    23 N    1.394    25 N    1.390    22 C    0.103
    25   7 N    3.074 --    21 C    1.428    24 S    1.390    23 N    0.148
    26   6 C    3.952 --    27 C    1.273    38 C    1.273    22 C    1.171
    27   6 C    3.917 --    36 C    1.308    26 C    1.273    28 S    1.114
    28  16 S    2.504 --    27 C    1.114    29 C    1.079
    29   6 C    3.928 --    30 C    1.358    35 C    1.294    28 S    1.079
    30   6 C    3.956 --    29 C    1.358    33 C    1.339    31 C    1.018
    31   6 C    3.993 --    30 C    1.018    32 C    0.992    75 H    0.969
                            74 H    0.964
    32   6 C    3.989 --    31 C    0.992    78 H    0.988    77 H    0.987
                            76 H    0.983
    33   6 C    3.930 --    30 C    1.339    49 C    1.310    34 S    1.079
    34  16 S    2.733 --    35 C    1.154    33 C    1.079    52 O    0.141
    35   6 C    3.943 --    29 C    1.294    36 C    1.254    34 S    1.154
    36   6 C    3.936 --    27 C    1.308    35 C    1.254    37 N    1.148
    37   7 N    3.528 --    38 C    1.158    36 C    1.148    47 C    0.975
    38   6 C    3.927 --    26 C    1.273    39 C    1.224    37 N    1.158
    39   6 C    3.927 --    20 C    1.263    38 C    1.224    40 N    1.181
    40   7 N    3.567 --    39 C    1.181    41 C    1.150    45 C    0.987
    41   6 C    3.939 --    42 C    1.285    19 C    1.277    40 N    1.150
    42   6 C    3.958 --    17 C    1.389    41 C    1.285    43 C    1.012
    43   6 C    3.995 --    42 C    1.012    44 C    0.993    79 H    0.969
                            80 H    0.962
    44   6 C    3.993 --    43 C    0.993    82 H    0.988    81 H    0.985
                            83 H    0.984
    45   6 C    3.967 --    46 C    1.004    40 N    0.987    85 H    0.960
                            84 H    0.959
    46   6 C    3.985 --    45 C    1.004    88 H    0.984    86 H    0.979
                            87 H    0.976
    47   6 C    3.960 --    48 C    1.005    37 N    0.975    90 H    0.963
                            89 H    0.955
    48   6 C    3.988 --    47 C    1.005    93 H    0.986    91 H    0.984
                            92 H    0.983
    49   6 C    3.948 --    50 C    1.495    33 C    1.310    94 H    0.932
    50   6 C    3.952 --    49 C    1.495    59 C    1.138    51 C    1.064
    51   6 C    3.918 --    52 O    1.700    50 C    1.064    53 C    1.031
    52   8 O    2.119 --    51 C    1.700    34 S    0.141
    53   6 C    3.971 --    54 C    1.380    58 C    1.309    51 C    1.031
    54   6 C    3.981 --    55 C    1.444    53 C    1.380    95 H    0.964
    55   6 C    3.956 --    54 C    1.444    56 C    1.327    71 C    0.995
    56   6 C    3.966 --    57 C    1.449    55 C    1.327    65 C    0.997
    57   6 C    3.978 --    56 C    1.449    58 C    1.367    96 H    0.958
    58   6 C    3.977 --    57 C    1.367    53 C    1.309    59 C    1.087
    59   6 C    3.972 --    60 C    1.482    50 C    1.138    58 C    1.087
    60   6 C    3.947 --    59 C    1.482    61 C    1.099    63 C    1.096
    61   6 C    3.945 --    62 N    2.748    60 C    1.099
    62   7 N    2.963 --    61 C    2.748
    63   6 C    3.944 --    64 N    2.761    60 C    1.096
    64   7 N    2.967 --    63 C    2.761
    65   6 C    3.985 --    56 C    0.997    71 C    0.978    97 H    0.960
                            66 C    0.947
    66   6 C    3.990 --    67 C    1.010    70 C    0.985    98 H    0.972
                            65 C    0.947
    67   6 C    3.987 --    68 C    1.924    66 C    1.010    99 H    0.971
    68   6 C    3.987 --    67 C    1.924    69 C    1.010   100 H    0.972
    69   6 C    3.989 --    68 C    1.010    70 C    0.985   101 H    0.972
                            71 C    0.947
    70   6 C    3.993 --    69 C    0.985    66 C    0.985   102 H    0.978
                           103 H    0.977
    71   6 C    3.985 --    55 C    0.995    65 C    0.978   104 H    0.960
                            69 C    0.947
    72   1 H    0.989 --     1 C    0.942
    73   1 H    0.993 --     9 C    0.955
    74   1 H    0.996 --    31 C    0.964
    75   1 H    0.996 --    31 C    0.969
    76   1 H    0.995 --    32 C    0.983
    77   1 H    0.998 --    32 C    0.987
    78   1 H    0.998 --    32 C    0.988
    79   1 H    0.998 --    43 C    0.969
    80   1 H    0.997 --    43 C    0.962
    81   1 H    0.996 --    44 C    0.985
    82   1 H    0.998 --    44 C    0.988
    83   1 H    0.998 --    44 C    0.984
    84   1 H    0.995 --    45 C    0.959
    85   1 H    0.996 --    45 C    0.960
    86   1 H    0.997 --    46 C    0.979
    87   1 H    0.996 --    46 C    0.976
    88   1 H    0.997 --    46 C    0.984
    89   1 H    0.995 --    47 C    0.955
    90   1 H    0.994 --    47 C    0.963
    91   1 H    0.998 --    48 C    0.984
    92   1 H    0.996 --    48 C    0.983
    93   1 H    0.998 --    48 C    0.986
    94   1 H    0.994 --    49 C    0.932
    95   1 H    0.996 --    54 C    0.964
    96   1 H    0.996 --    57 C    0.958
    97   1 H    0.997 --    65 C    0.960
    98   1 H    0.998 --    66 C    0.972
    99   1 H    0.999 --    67 C    0.971
   100   1 H    0.999 --    68 C    0.972
   101   1 H    0.999 --    69 C    0.972
   102   1 H    0.998 --    70 C    0.978
   103   1 H    0.996 --    70 C    0.977
   104   1 H    0.996 --    71 C    0.960
 ---------------------------------------------------------------------------

Topologies differ in bond orders
Writing corrected topology to xtbtopo.mol

molecular dipole:
                 x           y           z       tot (Debye)
 q only:       -2.041       1.029       0.199
   full:       -2.548       1.274       0.470       7.340
molecular quadrupole (traceless):
                xx          xy          yy          xz          yz          zz
 q only:       29.765     -27.751      22.773     -45.741     -39.833     -52.538
  q+dip:       44.165     -24.084      11.565     -46.598     -53.553     -55.731
   full:       49.327     -17.275      11.308     -52.774     -57.751     -60.635

           -------------------------------------------------
          |                Geometry Summary                 |
           -------------------------------------------------

      molecular mass/u    :     1078.1324196
   center of mass at/Å    :        1.1188262      -0.3711893       1.7379564
  moments of inertia/u·Å² :        0.1274769E+05   0.6555863E+05   0.7694738E+05
rotational constants/cm⁻¹ :        0.1322406E-02   0.2571382E-03   0.2190800E-03

 * 100 selected distances

     #   Z          #   Z                                           value/Å
     1   6 C        2   6 C                                       1.3681439
     3   6 C        4   8 O                                       1.2093427
     5   6 C        6  16 S                                       1.7096899
     6  16 S        7   6 C                                       1.7393935
     7   6 C        8  35 Br                                      1.8732083 (max)
     7   6 C        9   6 C                                       1.3682624
     5   6 C       10   6 C                                       1.3872480
     9   6 C       10   6 C                                       1.4057463
    11   6 C       12   6 C                                       1.3736100
    13   6 C       14   7 N                                       1.1477197
    15   6 C       16   7 N                                       1.1488349
     1   6 C       17   6 C                                       1.4086345
    18  16 S       19   6 C                                       1.7056198
    19   6 C       20   6 C                                       1.3975493
    20   6 C       21   6 C                                       1.4117200
    21   6 C       22   6 C                                       1.4319133
    22   6 C       23   7 N                                       1.3237370
    23   7 N       24  16 S                                       1.6186375
    21   6 C       25   7 N                                       1.3234719
    24  16 S       25   7 N                                       1.6193026
    22   6 C       26   6 C                                       1.4121943
    26   6 C       27   6 C                                       1.4010858
    27   6 C       28  16 S                                       1.7286152
    28  16 S       29   6 C                                       1.7541364
    29   6 C       30   6 C                                       1.3891883
    30   6 C       31   6 C                                       1.4938730
    31   6 C       32   6 C                                       1.5311528
    30   6 C       33   6 C                                       1.4047746
    29   6 C       35   6 C                                       1.4049239
    34  16 S       35   6 C                                       1.7237934
    27   6 C       36   6 C                                       1.3978734
    35   6 C       36   6 C                                       1.3986083
    36   6 C       37   7 N                                       1.3735698
    26   6 C       38   6 C                                       1.4273594
    37   7 N       38   6 C                                       1.3912637
    20   6 C       39   6 C                                       1.4250833
    38   6 C       39   6 C                                       1.4234361
    39   6 C       40   7 N                                       1.3800476
    19   6 C       41   6 C                                       1.4038679
    40   7 N       41   6 C                                       1.3762352
    17   6 C       42   6 C                                       1.3968726
    41   6 C       42   6 C                                       1.4067029
    43   6 C       44   6 C                                       1.5337015
    40   7 N       45   6 C                                       1.4406202
    45   6 C       46   6 C                                       1.5293471
    37   7 N       47   6 C                                       1.4510036
    47   6 C       48   6 C                                       1.5275545
    33   6 C       49   6 C                                       1.4003059
    49   6 C       50   6 C                                       1.3716653
    51   6 C       52   8 O                                       1.2203361
    53   6 C       54   6 C                                       1.3927323
    54   6 C       55   6 C                                       1.3742407
    55   6 C       56   6 C                                       1.4010942
    56   6 C       57   6 C                                       1.3747997
    53   6 C       58   6 C                                       1.4096768
    57   6 C       58   6 C                                       1.3973773
    59   6 C       60   6 C                                       1.3719245
    61   6 C       62   7 N                                       1.1494207
    63   6 C       64   7 N                                       1.1483201
    56   6 C       65   6 C                                       1.5076372
    65   6 C       66   6 C                                       1.5486240
    67   6 C       68   6 C                                       1.3263077
    66   6 C       70   6 C                                       1.5370461
    69   6 C       70   6 C                                       1.5371075
    55   6 C       71   6 C                                       1.5084598
    65   6 C       71   6 C                                       1.5613488
    69   6 C       71   6 C                                       1.5487936
     1   6 C       72   1 H                                       1.0887271
     9   6 C       73   1 H                                       1.0741624 (min)
    31   6 C       74   1 H                                       1.0909199
    31   6 C       75   1 H                                       1.0919399
    32   6 C       76   1 H                                       1.0860513
    32   6 C       77   1 H                                       1.0872180
    32   6 C       78   1 H                                       1.0874990
    43   6 C       79   1 H                                       1.0875826
    43   6 C       80   1 H                                       1.0901184
    44   6 C       81   1 H                                       1.0873813
    44   6 C       82   1 H                                       1.0875784
    44   6 C       83   1 H                                       1.0878504
    45   6 C       84   1 H                                       1.0919643
    45   6 C       85   1 H                                       1.0909032
    46   6 C       86   1 H                                       1.0856991
    46   6 C       87   1 H                                       1.0876276
    46   6 C       88   1 H                                       1.0870292
    47   6 C       89   1 H                                       1.0837481
    47   6 C       90   1 H                                       1.0929625
    48   6 C       91   1 H                                       1.0885861
    48   6 C       92   1 H                                       1.0863793
    48   6 C       93   1 H                                       1.0874985
    49   6 C       94   1 H                                       1.0814834
    54   6 C       95   1 H                                       1.0788785
    57   6 C       96   1 H                                       1.0769730
    65   6 C       97   1 H                                       1.0881901
    66   6 C       98   1 H                                       1.0865936
    67   6 C       99   1 H                                       1.0742480
    68   6 C      100   1 H                                       1.0743213
    69   6 C      101   1 H                                       1.0869222
    70   6 C      102   1 H                                       1.0891824
    70   6 C      103   1 H                                       1.0888926
    71   6 C      104   1 H                                       1.0884049

 * 7 distinct bonds (by element types)

   Z      Z             #   av. dist./Å        max./Å        min./Å
   1 H    6 C          33     1.0861672     1.0929625     1.0741624
   6 C    6 C          44     1.4324902     1.5613488     1.3263077
   6 C    7 N          12     1.3045204     1.4510036     1.1477197
   6 C    8 O           2     1.2148394     1.2203361     1.2093427
   6 C   16 S           6     1.7268747     1.7541364     1.7056198
   7 N   16 S           2     1.6189700     1.6193026     1.6186375
   6 C   35 Br          1     1.8732083     1.8732083     1.8732083


optimized geometry written to: xtbopt.mol


           -------------------------------------------------
          | TOTAL ENERGY             -186.311890035430 Eh   |
          | GRADIENT NORM               0.000435783415 Eh/α |
          | HOMO-LUMO GAP               0.952702300977 eV   |
           -------------------------------------------------

------------------------------------------------------------------------
 * finished run on 2022/02/11 at 02:56:27.288     
------------------------------------------------------------------------
 total:
 * wall-time:     0 d,  0 h,  0 min, 18.762 sec
 *  cpu-time:     0 d,  0 h,  2 min, 29.974 sec
 * ratio c/w:     7.994 speedup
 SCF:
 * wall-time:     0 d,  0 h,  0 min,  0.282 sec
 *  cpu-time:     0 d,  0 h,  0 min,  2.240 sec
 * ratio c/w:     7.953 speedup
 ANC optimizer:
 * wall-time:     0 d,  0 h,  0 min, 18.420 sec
 *  cpu-time:     0 d,  0 h,  2 min, 27.339 sec
 * ratio c/w:     7.999 speedup

