      -----------------------------------------------------------      
     |                   =====================                   |     
     |                           x T B                           |     
     |                   =====================                   |     
     |                         S. Grimme                         |     
     |          Mulliken Center for Theoretical Chemistry        |     
     |                    University of Bonn                     |     
      -----------------------------------------------------------      

   * xtb version 6.4.1 (unknown) compiled by 'oda6@login1.crc.pitt.edu' on 2021-06-25

   xtb is free software: you can redistribute it and/or modify it under
   the terms of the GNU Lesser General Public License as published by
   the Free Software Foundation, either version 3 of the License, or
   (at your option) any later version.
   
   xtb is distributed in the hope that it will be useful,
   but WITHOUT ANY WARRANTY; without even the implied warranty of
   MERCHANTABILITY or FITNESS FOR A PARTICULAR PURPOSE.  See the
   GNU Lesser General Public License for more details.
   
   Cite this work as:
   * C. Bannwarth, E. Caldeweyher, S. Ehlert, A. Hansen, P. Pracht,
     J. Seibert, S. Spicher, S. Grimme, WIREs Comput. Mol. Sci., 2020, 11,
     e01493. DOI: 10.1002/wcms.1493
   
   for GFN2-xTB:
   * C. Bannwarth, S. Ehlert and S. Grimme., J. Chem. Theory Comput., 2019,
     15, 1652-1671. DOI: 10.1021/acs.jctc.8b01176
   for GFN1-xTB:
   * S. Grimme, C. Bannwarth, P. Shushkov, J. Chem. Theory Comput., 2017,
     13, 1989-2009. DOI: 10.1021/acs.jctc.7b00118
   for GFN0-xTB:
   * P. Pracht, E. Caldeweyher, S. Ehlert, S. Grimme, ChemRxiv, 2019, preprint.
     DOI: 10.26434/chemrxiv.8326202.v1
   for GFN-FF:
   * S. Spicher and S. Grimme, Angew. Chem. Int. Ed., 2020, 59, 15665-15673.
     DOI: 10.1002/anie.202004239
   
   for DFT-D4:
   * E. Caldeweyher, C. Bannwarth and S. Grimme, J. Chem. Phys., 2017,
     147, 034112. DOI: 10.1063/1.4993215
   * E. Caldeweyher, S. Ehlert, A. Hansen, H. Neugebauer, S. Spicher,
     C. Bannwarth and S. Grimme, J. Chem. Phys., 2019, 150, 154122.
     DOI: 10.1063/1.5090222
   * E. Caldeweyher, J.-M. Mewes, S. Ehlert and S. Grimme, Phys. Chem. Chem. Phys.
     2020, 22, 8499-8512. DOI: 10.1039/D0CP00502A
   
   for sTDA-xTB:
   * S. Grimme and C. Bannwarth, J. Chem. Phys., 2016, 145, 054103.
     DOI: 10.1063/1.4959605
   
   in the mass-spec context:
   * V. Asgeirsson, C. Bauer and S. Grimme, Chem. Sci., 2017, 8, 4879.
     DOI: 10.1039/c7sc00601b
   * J. Koopman and S. Grimme, ACS Omega 2019, 4, 12, 15120-15133.
     DOI: 10.1021/acsomega.9b02011
   
   for metadynamics refer to:
   * S. Grimme, J. Chem. Theory Comput., 2019, 155, 2847-2862
     DOI: 10.1021/acs.jctc.9b00143
   
   for SPH calculations refer to:
   * S. Spicher and S. Grimme, J. Chem. Theory Comput., 2021, 17, 1701-1714
     DOI: 10.1021/acs.jctc.0c01306
   
   with help from (in alphabetical order)
   P. Atkinson, C. Bannwarth, F. Bohle, G. Brandenburg, E. Caldeweyher
   M. Checinski, S. Dohm, S. Ehlert, S. Ehrlich, I. Gerasimov, J. Koopman
   C. Lavigne, S. Lehtola, F. März, M. Müller, F. Musil, H. Neugebauer
   J. Pisarek, C. Plett, P. Pracht, J. Seibert, P. Shushkov, S. Spicher
   M. Stahn, M. Steiner, T. Strunk, J. Stückrath, T. Rose, and J. Unsleber
   
 * started run on 2022/02/10 at 19:29:02.886     

           -------------------------------------------------
          |                Calculation Setup                |
           -------------------------------------------------

          program call               : /ihome/ghutchison/oda6/xtb/xtb-641/bin/xtb ../../FF_optimized/27_100_33.mol -opt
          hostname                   : smp-n32
          coordinate file            : ../../FF_optimized/27_100_33.mol
          omp threads                :                     8
          number of atoms            :                   117
          number of electrons        :                   394
          charge                     :                     0
          spin                       :                   0.0
          first test random number   :      0.43509714397753

   ID    Z sym.   atoms
    1    6 C      1-3, 5, 6, 8-14, 16, 18-28, 30-33, 37, 38, 40-50, 52, 53,
                  55, 56, 58, 59, 61-67, 69-71, 73, 75-79, 81
    2    8 O      4, 68
    3    9 F      7
    4    7 N      15, 17, 34, 36, 54, 57, 80, 82
    5   16 S      29, 35, 39, 51, 60
    6   17 Cl     72, 74
    7    1 H      83-117
########################################################################
[WARNING] Please study the warnings concerning your input carefully
-1- prog_main_parseArguments: the use of '-opt' is discouraged, please use '--opt' next time
########################################################################

           -------------------------------------------------
          |                 G F N 2 - x T B                 |
           -------------------------------------------------

        Reference                      10.1021/acs.jctc.8b01176
      * Hamiltonian:
        H0-scaling (s, p, d)           1.850000    2.230000    2.230000
        zeta-weighting                 0.500000
      * Dispersion:
        s8                             2.700000
        a1                             0.520000
        a2                             5.000000
        s9                             5.000000
      * Repulsion:
        kExp                           1.500000    1.000000
        rExp                           1.000000
      * Coulomb:
        alpha                          2.000000
        third order                    shell-resolved
        anisotropic                    true
        a3                             3.000000
        a5                             4.000000
        cn-shift                       1.200000
        cn-exp                         4.000000
        max-rad                        5.000000


          ...................................................
          :                      SETUP                      :
          :.................................................:
          :  # basis functions                 405          :
          :  # atomic orbitals                 398          :
          :  # shells                          206          :
          :  # electrons                       394          :
          :  max. iterations                   250          :
          :  Hamiltonian                  GFN2-xTB          :
          :  restarted?                      false          :
          :  GBSA solvation                  false          :
          :  PC potential                    false          :
          :  electronic temp.          300.0000000     K    :
          :  accuracy                    1.0000000          :
          :  -> integral cutoff          0.2500000E+02      :
          :  -> integral neglect         0.1000000E-07      :
          :  -> SCF convergence          0.1000000E-05 Eh   :
          :  -> wf. convergence          0.1000000E-03 e    :
          :  Broyden damping             0.4000000          :
          ...................................................

 iter      E             dE          RMSdq      gap      omega  full diag
   1   -219.1449947 -0.219145E+03  0.502E+00    1.41       0.0  T
   2   -219.3192911 -0.174296E+00  0.317E+00    0.50       1.0  T
   3   -219.1853742  0.133917E+00  0.214E+00    0.47       1.0  T
   4   -219.4906409 -0.305267E+00  0.803E-01    0.55       1.0  T
   5   -219.5484902 -0.578493E-01  0.231E-01    0.26       1.0  T
   6   -219.5518229 -0.333268E-02  0.120E-01    0.42       1.0  T
   7   -219.5526626 -0.839751E-03  0.544E-02    0.37       1.0  T
   8   -219.5527968 -0.134140E-03  0.337E-02    0.38       1.0  T
   9   -219.5528291 -0.323635E-04  0.237E-02    0.37       1.0  T
  10   -219.5528469 -0.177248E-04  0.174E-02    0.37       1.0  T
  11   -219.5528571 -0.102651E-04  0.113E-02    0.38       1.0  T
  12   -219.5528626 -0.550528E-05  0.635E-03    0.38       1.5  T
  13   -219.5528647 -0.202768E-05  0.311E-03    0.38       3.0  T
  14   -219.5528652 -0.513325E-06  0.148E-03    0.38       6.2  T
  15   -219.5528653 -0.139911E-06  0.708E-04    0.38      13.1  T
  16   -219.5528653 -0.172436E-07  0.440E-04    0.38      21.0  T

   *** convergence criteria satisfied after 16 iterations ***

         #    Occupation            Energy/Eh            Energy/eV
      -------------------------------------------------------------
         1        2.0000           -1.0806351             -29.4056
       ...           ...                  ...                  ...
       191        2.0000           -0.4026660             -10.9571
       192        2.0000           -0.3989333             -10.8555
       193        2.0000           -0.3971334             -10.8066
       194        2.0000           -0.3837979             -10.4437
       195        2.0000           -0.3778621             -10.2822
       196        2.0000           -0.3697407             -10.0612
       197        1.9987           -0.3601413              -9.7999 (HOMO)
       198        0.0013           -0.3461866              -9.4202 (LUMO)
       199        0.0000           -0.3430072              -9.3337
       200        0.0000           -0.3380543              -9.1989
       201                         -0.3314405              -9.0190
       202                         -0.3010315              -8.1915
       ...                                ...                  ...
       398                          1.0576352              28.7797
      -------------------------------------------------------------
                  HL-Gap            0.0139547 Eh            0.3797 eV
             Fermi-level           -0.3531805 Eh           -9.6105 eV

 SCC (total)                   0 d,  0 h,  0 min,  0.351 sec
 SCC setup                      ...        0 min,  0.001 sec (  0.214%)
 Dispersion                     ...        0 min,  0.004 sec (  1.223%)
 classical contributions        ...        0 min,  0.000 sec (  0.039%)
 integral evaluation            ...        0 min,  0.016 sec (  4.564%)
 iterations                     ...        0 min,  0.284 sec ( 81.104%)
 molecular gradient             ...        0 min,  0.044 sec ( 12.442%)
 printout                       ...        0 min,  0.001 sec (  0.388%)

         :::::::::::::::::::::::::::::::::::::::::::::::::::::
         ::                     SUMMARY                     ::
         :::::::::::::::::::::::::::::::::::::::::::::::::::::
         :: total energy            -216.296092509520 Eh    ::
         :: gradient norm              0.276085188955 Eh/a0 ::
         :: HOMO-LUMO gap              0.379727248271 eV    ::
         ::.................................................::
         :: SCC energy              -219.552865320813 Eh    ::
         :: -> isotropic ES            0.129207790437 Eh    ::
         :: -> anisotropic ES          0.011513399303 Eh    ::
         :: -> anisotropic XC          0.140508159464 Eh    ::
         :: -> dispersion             -0.202102681399 Eh    ::
         :: repulsion energy           3.252945050702 Eh    ::
         :: add. restraining           0.000000000000 Eh    ::
         :: total charge               0.000000000008 e     ::
         :::::::::::::::::::::::::::::::::::::::::::::::::::::

      ----------------------------------------------------------- 
     |                   =====================                   |
     |                        A N C O P T                        |
     |                   =====================                   |
     |               Approximate Normal Coordinate               |
     |                Rational Function Optimizer                |
      ----------------------------------------------------------- 

          ...................................................
          :                      SETUP                      :
          :.................................................:
          :   optimization level            normal          :
          :   max. optcycles                   351          :
          :   ANC micro-cycles                  20          :
          :   degrees of freedom               345          :
          :.................................................:
          :   RF solver                   davidson          :
          :   write xtbopt.log                true          :
          :   linear?                        false          :
          :   energy convergence         0.5000000E-05 Eh   :
          :   grad. convergence          0.1000000E-02 Eh/α :
          :   maximium RF displ.         1.0000000          :
          :   Hlow (freq-cutoff)         0.1000000E-01      :
          :   Hmax (freq-cutoff)         5.0000000          :
          :   S6 in model hess.         20.0000000          :
          ...................................................

generating ANC from model Hessian ...
Using Lindh-Hessian (1995)
 Shifting diagonal of input Hessian by   9.993519182963085E-003
 Lowest  eigenvalues of input Hessian
    0.000000    0.000000    0.000000    0.000000    0.000000    0.000000
    0.010000    0.010017    0.010067    0.010079    0.010107    0.010187
    0.010233    0.010246    0.010342    0.010388    0.010423    0.010486
 Highest eigenvalues
    2.308761    2.321084    2.488728    2.496457    2.547264    2.552266
 

........................................................................
.............................. CYCLE    1 ..............................
........................................................................
   1   -219.5528653 -0.219553E+03  0.268E-04    0.38       0.0  T
   2   -219.5528653  0.372950E-09  0.241E-04    0.38      38.3  T
   3   -219.5528653 -0.360504E-08  0.167E-04    0.38      55.5  T
     SCC iter.                  ...        0 min,  0.056 sec
     gradient                   ...        0 min,  0.042 sec
 * total energy  :  -216.2960925 Eh     change       -0.8911485E-08 Eh
   gradient norm :     0.2760867 Eh/α   predicted     0.0000000E+00 (-100.00%)
   displ. norm   :     0.4570911 α      lambda       -0.8855806E-01
   maximum displ.:     0.1235823 α      in ANC's #194, #212, #116, ...

........................................................................
.............................. CYCLE    2 ..............................
........................................................................
   1   -219.7067356 -0.219707E+03  0.315E-01    0.40       0.0  T
   2   -219.7079093 -0.117369E-02  0.185E-01    0.41       1.0  T
   3   -219.7076141  0.295184E-03  0.100E-01    0.40       1.0  T
   4   -219.7081393 -0.525192E-03  0.442E-02    0.39       1.0  T
   5   -219.7082521 -0.112800E-03  0.208E-02    0.41       1.0  T
   6   -219.7082781 -0.260034E-04  0.102E-02    0.40       1.0  T
   7   -219.7082835 -0.542244E-05  0.574E-03    0.40       1.6  T
   8   -219.7082846 -0.109554E-05  0.405E-03    0.40       2.3  T
   9   -219.7082850 -0.387862E-06  0.271E-03    0.40       3.4  T
  10   -219.7082854 -0.380952E-06  0.166E-03    0.40       5.6  T
  11   -219.7082855 -0.964978E-07  0.103E-03    0.40       8.9  T
  12   -219.7082855 -0.421244E-07  0.474E-04    0.40      19.5  T
  13   -219.7082855 -0.185608E-07  0.187E-04    0.40      49.5  T
     SCC iter.                  ...        0 min,  0.229 sec
     gradient                   ...        0 min,  0.042 sec
 * total energy  :  -216.3590421 Eh     change       -0.6294962E-01 Eh
   gradient norm :     0.1222956 Eh/α   predicted    -0.5357806E-01 ( -14.89%)
   displ. norm   :     0.4508231 α      lambda       -0.3282151E-01
   maximum displ.:     0.1186285 α      in ANC's #116, #77, #71, ...

........................................................................
.............................. CYCLE    3 ..............................
........................................................................
   1   -219.7714715 -0.219771E+03  0.260E-01    0.40       0.0  T
   2   -219.7721931 -0.721607E-03  0.148E-01    0.46       1.0  T
   3   -219.7719779  0.215227E-03  0.774E-02    0.42       1.0  T
   4   -219.7723694 -0.391500E-03  0.297E-02    0.44       1.0  T
   5   -219.7724232 -0.538698E-04  0.143E-02    0.44       1.0  T
   6   -219.7724319 -0.868294E-05  0.819E-03    0.44       1.1  T
   7   -219.7724341 -0.216936E-05  0.565E-03    0.44       1.6  T
   8   -219.7724354 -0.129437E-05  0.388E-03    0.44       2.4  T
   9   -219.7724359 -0.462232E-06  0.249E-03    0.44       3.7  T
  10   -219.7724362 -0.326410E-06  0.139E-03    0.44       6.6  T
  11   -219.7724362 -0.678440E-07  0.824E-04    0.44      11.2  T
  12   -219.7724363 -0.300880E-07  0.378E-04    0.44      24.5  T
     SCC iter.                  ...        0 min,  0.217 sec
     gradient                   ...        0 min,  0.043 sec
 * total energy  :  -216.3787285 Eh     change       -0.1968633E-01 Eh
   gradient norm :     0.0387878 Eh/α   predicted    -0.1974611E-01 (   0.30%)
   displ. norm   :     0.4559491 α      lambda       -0.8647920E-02
   maximum displ.:     0.1161481 α      in ANC's #37, #59, #47, ...

........................................................................
.............................. CYCLE    4 ..............................
........................................................................
   1   -219.7787707 -0.219779E+03  0.223E-01    0.46       0.0  T
   2   -219.7789108 -0.140044E-03  0.126E-01    0.51       1.0  T
   3   -219.7786212  0.289598E-03  0.543E-02    0.47       1.0  T
   4   -219.7789825 -0.361351E-03  0.123E-02    0.50       1.0  T
   5   -219.7789930 -0.105059E-04  0.713E-03    0.50       1.3  T
   6   -219.7789950 -0.200232E-05  0.411E-03    0.50       2.2  T
   7   -219.7789957 -0.661506E-06  0.274E-03    0.50       3.4  T
   8   -219.7789959 -0.250907E-06  0.187E-03    0.50       5.0  T
   9   -219.7789960 -0.105110E-06  0.124E-03    0.50       7.4  T
  10   -219.7789961 -0.786069E-07  0.640E-04    0.50      14.4  T
  11   -219.7789961 -0.173594E-07  0.355E-04    0.50      26.1  T
     SCC iter.                  ...        0 min,  0.193 sec
     gradient                   ...        0 min,  0.042 sec
 * total energy  :  -216.3826102 Eh     change       -0.3881702E-02 Eh
   gradient norm :     0.0319990 Eh/α   predicted    -0.5222865E-02 (  34.55%)
   displ. norm   :     0.5454414 α      lambda       -0.8281296E-02
   maximum displ.:     0.1806859 α      in ANC's #60, #37, #17, ...

........................................................................
.............................. CYCLE    5 ..............................
........................................................................
   1   -219.7746267 -0.219775E+03  0.321E-01    0.52       0.0  T
   2   -219.7748799 -0.253213E-03  0.178E-01    0.60       1.0  T
   3   -219.7739066  0.973284E-03  0.832E-02    0.52       1.0  T
   4   -219.7750452 -0.113859E-02  0.175E-02    0.59       1.0  T
   5   -219.7750741 -0.289425E-04  0.935E-03    0.58       1.0  T
   6   -219.7750790 -0.484935E-05  0.412E-03    0.58       2.2  T
   7   -219.7750798 -0.831949E-06  0.225E-03    0.58       4.1  T
   8   -219.7750799 -0.158562E-06  0.157E-03    0.58       5.9  T
   9   -219.7750800 -0.613545E-07  0.115E-03    0.58       8.0  T
  10   -219.7750801 -0.499473E-07  0.714E-04    0.58      13.0  T
  11   -219.7750801 -0.200308E-07  0.420E-04    0.58      22.0  T
     SCC iter.                  ...        0 min,  0.193 sec
     gradient                   ...        0 min,  0.042 sec
 * total energy  :  -216.3862116 Eh     change       -0.3601421E-02 Eh
   gradient norm :     0.0289598 Eh/α   predicted    -0.5372558E-02 (  49.18%)
   displ. norm   :     0.3544124 α      lambda       -0.3509647E-02
   maximum displ.:     0.1361566 α      in ANC's #29, #37, #20, ...

........................................................................
.............................. CYCLE    6 ..............................
........................................................................
   1   -219.7660665 -0.219766E+03  0.168E-01    0.58       0.0  T
   2   -219.7661125 -0.459686E-04  0.966E-02    0.64       1.0  T
   3   -219.7653912  0.721269E-03  0.700E-02    0.57       1.0  T
   4   -219.7662308 -0.839567E-03  0.105E-02    0.62       1.0  T
   5   -219.7662394 -0.865554E-05  0.428E-03    0.62       2.2  T
   6   -219.7662400 -0.562463E-06  0.213E-03    0.62       4.3  T
   7   -219.7662403 -0.303216E-06  0.956E-04    0.62       9.7  T
   8   -219.7662403 -0.284041E-07  0.644E-04    0.62      14.4  T
     SCC iter.                  ...        0 min,  0.129 sec
     gradient                   ...        0 min,  0.040 sec
 * total energy  :  -216.3883864 Eh     change       -0.2174839E-02 Eh
   gradient norm :     0.0288161 Eh/α   predicted    -0.1975280E-02 (  -9.18%)
   displ. norm   :     0.5846469 α      lambda       -0.5368927E-02
   maximum displ.:     0.1784080 α      in ANC's #32, #29, #37, ...

........................................................................
.............................. CYCLE    7 ..............................
........................................................................
   1   -219.7592499 -0.219759E+03  0.247E-01    0.64       0.0  T
   2   -219.7593517 -0.101797E-03  0.146E-01    0.74       1.0  T
   3   -219.7574748  0.187691E-02  0.113E-01    0.62       1.0  T
   4   -219.7597295 -0.225469E-02  0.185E-02    0.70       1.0  T
   5   -219.7597580 -0.284961E-04  0.754E-03    0.70       1.2  T
   6   -219.7597600 -0.205592E-05  0.364E-03    0.70       2.5  T
   7   -219.7597608 -0.792423E-06  0.183E-03    0.70       5.0  T
   8   -219.7597609 -0.778734E-07  0.135E-03    0.70       6.9  T
   9   -219.7597610 -0.640706E-07  0.955E-04    0.70       9.7  T
  10   -219.7597610 -0.335911E-07  0.670E-04    0.70      13.8  T
     SCC iter.                  ...        0 min,  0.175 sec
     gradient                   ...        0 min,  0.041 sec
 * total energy  :  -216.3907488 Eh     change       -0.2362357E-02 Eh
   gradient norm :     0.0284809 Eh/α   predicted    -0.3602054E-02 (  52.48%)
   displ. norm   :     0.4470393 α      lambda       -0.2867499E-02
   maximum displ.:     0.1655573 α      in ANC's #29, #37, #60, ...

........................................................................
.............................. CYCLE    8 ..............................
........................................................................
   1   -219.7574841 -0.219757E+03  0.158E-01    0.71       0.0  T
   2   -219.7575604 -0.762970E-04  0.919E-02    0.79       1.0  T
   3   -219.7570018  0.558613E-03  0.712E-02    0.72       1.0  T
   4   -219.7577424 -0.740655E-03  0.150E-02    0.76       1.0  T
   5   -219.7577628 -0.203146E-04  0.611E-03    0.76       1.5  T
   6   -219.7577654 -0.264060E-05  0.245E-03    0.76       3.8  T
   7   -219.7577658 -0.356739E-06  0.113E-03    0.76       8.2  T
   8   -219.7577658 -0.332245E-07  0.722E-04    0.76      12.8  T
   9   -219.7577658 -0.168421E-07  0.542E-04    0.76      17.1  T
     SCC iter.                  ...        0 min,  0.160 sec
     gradient                   ...        0 min,  0.042 sec
 * total energy  :  -216.3927556 Eh     change       -0.2006762E-02 Eh
   gradient norm :     0.0231354 Eh/α   predicted    -0.1720277E-02 ( -14.28%)
   displ. norm   :     0.5686871 α      lambda       -0.3227855E-02
   maximum displ.:     0.2117198 α      in ANC's #29, #10, #20, ...

........................................................................
.............................. CYCLE    9 ..............................
........................................................................
   1   -219.7538590 -0.219754E+03  0.224E-01    0.76       0.0  T
   2   -219.7539716 -0.112602E-03  0.128E-01    0.84       1.0  T
   3   -219.7526916  0.127994E-02  0.980E-02    0.75       1.0  T
   4   -219.7542478 -0.155611E-02  0.174E-02    0.82       1.0  T
   5   -219.7542756 -0.278218E-04  0.797E-03    0.81       1.2  T
   6   -219.7542800 -0.444601E-05  0.305E-03    0.81       3.0  T
   7   -219.7542805 -0.513815E-06  0.137E-03    0.81       6.8  T
   8   -219.7542806 -0.467180E-07  0.811E-04    0.81      11.4  T
   9   -219.7542806 -0.250760E-07  0.574E-04    0.81      16.1  T
     SCC iter.                  ...        0 min,  0.159 sec
     gradient                   ...        0 min,  0.042 sec
 * total energy  :  -216.3942849 Eh     change       -0.1529326E-02 Eh
   gradient norm :     0.0323485 Eh/α   predicted    -0.2135888E-02 (  39.66%)
   displ. norm   :     0.4723894 α      lambda       -0.2874445E-02
   maximum displ.:     0.1412772 α      in ANC's #17, #9, #20, ...

........................................................................
.............................. CYCLE   10 ..............................
........................................................................
   1   -219.7654974 -0.219765E+03  0.176E-01    0.81       0.0  T
   2   -219.7655514 -0.539733E-04  0.101E-01    0.86       1.0  T
   3   -219.7647271  0.824266E-03  0.744E-02    0.80       1.0  T
   4   -219.7656897 -0.962589E-03  0.114E-02    0.85       1.0  T
   5   -219.7657009 -0.111310E-04  0.530E-03    0.85       1.7  T
   6   -219.7657029 -0.200632E-05  0.186E-03    0.85       5.0  T
   7   -219.7657030 -0.139210E-06  0.904E-04    0.85      10.2  T
   8   -219.7657030 -0.286896E-07  0.454E-04    0.85      20.4  T
     SCC iter.                  ...        0 min,  0.138 sec
     gradient                   ...        0 min,  0.042 sec
 * total energy  :  -216.3954771 Eh     change       -0.1192181E-02 Eh
   gradient norm :     0.0286617 Eh/α   predicted    -0.1757951E-02 (  47.46%)
   displ. norm   :     0.4332568 α      lambda       -0.2466495E-02
   maximum displ.:     0.1298869 α      in ANC's #10, #32, #29, ...

........................................................................
.............................. CYCLE   11 ..............................
........................................................................
   1   -219.7754151 -0.219775E+03  0.149E-01    0.85       0.0  T
   2   -219.7754563 -0.411632E-04  0.865E-02    0.89       1.0  T
   3   -219.7749220  0.534314E-03  0.610E-02    0.84       1.0  T
   4   -219.7755477 -0.625696E-03  0.100E-02    0.88       1.0  T
   5   -219.7755566 -0.896534E-05  0.434E-03    0.88       2.1  T
   6   -219.7755578 -0.122248E-05  0.185E-03    0.88       5.0  T
   7   -219.7755580 -0.161104E-06  0.827E-04    0.88      11.2  T
   8   -219.7755580 -0.235063E-07  0.514E-04    0.88      18.0  T
     SCC iter.                  ...        0 min,  0.134 sec
     gradient                   ...        0 min,  0.042 sec
 * total energy  :  -216.3968161 Eh     change       -0.1339077E-02 Eh
   gradient norm :     0.0202351 Eh/α   predicted    -0.1464747E-02 (   9.38%)
   displ. norm   :     0.4846405 α      lambda       -0.1396483E-02
   maximum displ.:     0.1619347 α      in ANC's #10, #20, #17, ...

........................................................................
.............................. CYCLE   12 ..............................
........................................................................
   1   -219.7646776 -0.219765E+03  0.131E-01    0.87       0.0  T
   2   -219.7646841 -0.643177E-05  0.781E-02    0.92       1.0  T
   3   -219.7641128  0.571310E-03  0.657E-02    0.87       1.0  T
   4   -219.7648249 -0.712184E-03  0.105E-02    0.91       1.0  T
   5   -219.7648343 -0.938082E-05  0.427E-03    0.91       2.2  T
   6   -219.7648355 -0.117999E-05  0.167E-03    0.91       5.5  T
   7   -219.7648356 -0.145455E-06  0.647E-04    0.91      14.3  T
   8   -219.7648357 -0.157019E-07  0.309E-04    0.91      29.9  T
     SCC iter.                  ...        0 min,  0.130 sec
     gradient                   ...        0 min,  0.042 sec
 * total energy  :  -216.3977689 Eh     change       -0.9527280E-03 Eh
   gradient norm :     0.0179239 Eh/α   predicted    -0.8622321E-03 (  -9.50%)
   displ. norm   :     0.5424408 α      lambda       -0.1642286E-02
   maximum displ.:     0.2072458 α      in ANC's #9, #3, #20, ...

........................................................................
.............................. CYCLE   13 ..............................
........................................................................
   1   -219.7678014 -0.219768E+03  0.130E-01    0.90       0.0  T
   2   -219.7678219 -0.204887E-04  0.739E-02    0.92       1.0  T
   3   -219.7675570  0.264889E-03  0.402E-02    0.89       1.0  T
   4   -219.7678510 -0.294083E-03  0.629E-03    0.91       1.5  T
   5   -219.7678529 -0.189711E-05  0.370E-03    0.91       2.5  T
   6   -219.7678536 -0.658997E-06  0.160E-03    0.91       5.8  T
   7   -219.7678537 -0.129300E-06  0.944E-04    0.91       9.8  T
   8   -219.7678538 -0.365927E-07  0.654E-04    0.91      14.1  T
     SCC iter.                  ...        0 min,  0.134 sec
     gradient                   ...        0 min,  0.042 sec
 * total energy  :  -216.3987752 Eh     change       -0.1006292E-02 Eh
   gradient norm :     0.0225859 Eh/α   predicted    -0.1062762E-02 (   5.61%)
   displ. norm   :     0.5683847 α      lambda       -0.1361335E-02
   maximum displ.:     0.2389987 α      in ANC's #9, #3, #20, ...

........................................................................
.............................. CYCLE   14 ..............................
........................................................................
   1   -219.7732101 -0.219773E+03  0.115E-01    0.91       0.0  T
   2   -219.7732210 -0.109006E-04  0.681E-02    0.94       1.0  T
   3   -219.7728663  0.354747E-03  0.529E-02    0.90       1.0  T
   4   -219.7732992 -0.432989E-03  0.963E-03    0.93       1.0  T
   5   -219.7733085 -0.930580E-05  0.367E-03    0.93       2.5  T
   6   -219.7733095 -0.956575E-06  0.151E-03    0.93       6.1  T
   7   -219.7733096 -0.113858E-06  0.766E-04    0.93      12.1  T
   8   -219.7733096 -0.177826E-07  0.508E-04    0.93      18.2  T
     SCC iter.                  ...        0 min,  0.148 sec
     gradient                   ...        0 min,  0.042 sec
 * total energy  :  -216.3996862 Eh     change       -0.9110720E-03 Eh
   gradient norm :     0.0204928 Eh/α   predicted    -0.9005668E-03 (  -1.15%)
   displ. norm   :     0.5859175 α      lambda       -0.1213077E-02
   maximum displ.:     0.2663073 α      in ANC's #9, #3, #17, ...

........................................................................
.............................. CYCLE   15 ..............................
........................................................................
   1   -219.7734846 -0.219773E+03  0.133E-01    0.93       0.0  T
   2   -219.7734984 -0.138342E-04  0.769E-02    0.95       1.0  T
   3   -219.7730584  0.439984E-03  0.522E-02    0.91       1.0  T
   4   -219.7735550 -0.496540E-03  0.785E-03    0.94       1.2  T
   5   -219.7735604 -0.541086E-05  0.353E-03    0.94       2.6  T
   6   -219.7735609 -0.530063E-06  0.146E-03    0.94       6.3  T
   7   -219.7735611 -0.154158E-06  0.576E-04    0.94      16.1  T
   8   -219.7735611 -0.121769E-07  0.375E-04    0.94      24.6  T
     SCC iter.                  ...        0 min,  0.143 sec
     gradient                   ...        0 min,  0.042 sec
 * total energy  :  -216.4006037 Eh     change       -0.9174578E-03 Eh
   gradient norm :     0.0113595 Eh/α   predicted    -0.8147682E-03 ( -11.19%)
   displ. norm   :     0.6105181 α      lambda       -0.1020830E-02
   maximum displ.:     0.3004478 α      in ANC's #9, #3, #10, ...

........................................................................
.............................. CYCLE   16 ..............................
........................................................................
   1   -219.7762786 -0.219776E+03  0.117E-01    0.94       0.0  T
   2   -219.7762924 -0.137200E-04  0.670E-02    0.95       1.0  T
   3   -219.7761364  0.155950E-03  0.307E-02    0.93       1.0  T
   4   -219.7763102 -0.173820E-03  0.561E-03    0.95       1.6  T
   5   -219.7763125 -0.227146E-05  0.319E-03    0.95       2.9  T
   6   -219.7763131 -0.599729E-06  0.116E-03    0.95       8.0  T
   7   -219.7763132 -0.104404E-06  0.491E-04    0.95      18.8  T
   8   -219.7763132 -0.114972E-07  0.316E-04    0.95      29.3  T
     SCC iter.                  ...        0 min,  0.143 sec
     gradient                   ...        0 min,  0.042 sec
 * total energy  :  -216.4014217 Eh     change       -0.8180102E-03 Eh
   gradient norm :     0.0098509 Eh/α   predicted    -0.7006667E-03 ( -14.34%)
   displ. norm   :     0.6686593 α      lambda       -0.1038802E-02
   maximum displ.:     0.3418403 α      in ANC's #9, #3, #10, ...

........................................................................
.............................. CYCLE   17 ..............................
........................................................................
   1   -219.7776440 -0.219778E+03  0.121E-01    0.94       0.0  T
   2   -219.7776604 -0.164651E-04  0.695E-02    0.95       1.0  T
   3   -219.7775277  0.132686E-03  0.305E-02    0.94       1.0  T
   4   -219.7776778 -0.150025E-03  0.531E-03    0.95       1.7  T
   5   -219.7776794 -0.160272E-05  0.344E-03    0.95       2.7  T
   6   -219.7776803 -0.945799E-06  0.131E-03    0.95       7.1  T
   7   -219.7776804 -0.113622E-06  0.594E-04    0.95      15.6  T
   8   -219.7776804 -0.177307E-07  0.391E-04    0.95      23.6  T
     SCC iter.                  ...        0 min,  0.144 sec
     gradient                   ...        0 min,  0.042 sec
 * total energy  :  -216.4020458 Eh     change       -0.6241119E-03 Eh
   gradient norm :     0.0181557 Eh/α   predicted    -0.7516332E-03 (  20.43%)
   displ. norm   :     0.5561861 α      lambda       -0.1047579E-02
   maximum displ.:     0.2966186 α      in ANC's #9, #3, #10, ...

........................................................................
.............................. CYCLE   18 ..............................
........................................................................
   1   -219.7782841 -0.219778E+03  0.968E-02    0.95       0.0  T
   2   -219.7782938 -0.972640E-05  0.556E-02    0.96       1.0  T
   3   -219.7781647  0.129078E-03  0.305E-02    0.95       1.0  T
   4   -219.7783112 -0.146457E-03  0.469E-03    0.96       2.0  T
   5   -219.7783126 -0.140349E-05  0.307E-03    0.95       3.0  T
   6   -219.7783133 -0.732093E-06  0.128E-03    0.96       7.2  T
   7   -219.7783134 -0.853780E-07  0.704E-04    0.96      13.1  T
   8   -219.7783134 -0.148500E-07  0.545E-04    0.96      17.0  T
     SCC iter.                  ...        0 min,  0.145 sec
     gradient                   ...        0 min,  0.042 sec
 * total energy  :  -216.4027329 Eh     change       -0.6871194E-03 Eh
   gradient norm :     0.0125043 Eh/α   predicted    -0.6858244E-03 (  -0.19%)
   displ. norm   :     0.5106279 α      lambda       -0.6613125E-03
   maximum displ.:     0.2832629 α      in ANC's #9, #3, #10, ...

........................................................................
.............................. CYCLE   19 ..............................
........................................................................
   1   -219.7830805 -0.219783E+03  0.831E-02    0.96       0.0  T
   2   -219.7830909 -0.103597E-04  0.474E-02    0.96       1.0  T
   3   -219.7830436  0.472248E-04  0.184E-02    0.96       1.0  T
   4   -219.7830971 -0.534221E-04  0.392E-03    0.96       2.4  T
   5   -219.7830982 -0.109638E-05  0.227E-03    0.96       4.1  T
   6   -219.7830985 -0.328751E-06  0.109E-03    0.96       8.4  T
   7   -219.7830986 -0.783012E-07  0.511E-04    0.96      18.1  T
   8   -219.7830986 -0.150358E-07  0.323E-04    0.96      28.6  T
     SCC iter.                  ...        0 min,  0.144 sec
     gradient                   ...        0 min,  0.042 sec
 * total energy  :  -216.4031964 Eh     change       -0.4635105E-03 Eh
   gradient norm :     0.0121376 Eh/α   predicted    -0.4168744E-03 ( -10.06%)
   displ. norm   :     0.5974188 α      lambda       -0.8504817E-03
   maximum displ.:     0.3158613 α      in ANC's #9, #3, #10, ...

........................................................................
.............................. CYCLE   20 ..............................
........................................................................
   1   -219.7778677 -0.219778E+03  0.911E-02    0.96       0.0  T
   2   -219.7778743 -0.662792E-05  0.529E-02    0.97       1.0  T
   3   -219.7776652  0.209103E-03  0.375E-02    0.95       1.0  T
   4   -219.7779017 -0.236496E-03  0.560E-03    0.97       1.7  T
   5   -219.7779044 -0.266452E-05  0.285E-03    0.97       3.2  T
   6   -219.7779049 -0.500380E-06  0.121E-03    0.97       7.6  T
   7   -219.7779049 -0.639913E-07  0.537E-04    0.97      17.2  T
   8   -219.7779049 -0.147398E-07  0.313E-04    0.97      29.5  T
     SCC iter.                  ...        0 min,  0.141 sec
     gradient                   ...        0 min,  0.042 sec
 * total energy  :  -216.4038058 Eh     change       -0.6093258E-03 Eh
   gradient norm :     0.0111631 Eh/α   predicted    -0.5770191E-03 (  -5.30%)
   displ. norm   :     0.5626557 α      lambda       -0.6898644E-03
   maximum displ.:     0.2966961 α      in ANC's #3, #9, #12, ...
 * RMSD in coord.:     0.7158720 α      energy gain  -0.1077133E+00 Eh

generating ANC from model Hessian ...
Using Lindh-Hessian (1995)
 Shifting diagonal of input Hessian by   1.002987438066061E-002
 Lowest  eigenvalues of input Hessian
    0.010000    0.000000    0.000000    0.000000    0.000000    0.000000
    0.000000    0.010037    0.010042    0.010075    0.010166    0.010213
    0.010280    0.010293    0.010385    0.010493    0.010515    0.010555
 Highest eigenvalues
    2.283283    2.299069    2.610176    2.617458    2.653859    2.656357
 

........................................................................
.............................. CYCLE   21 ..............................
........................................................................
   1   -219.7830103 -0.219783E+03  0.749E-02    0.97       0.0  T
   2   -219.7830207 -0.104077E-04  0.431E-02    0.96       1.0  T
   3   -219.7829848  0.358747E-04  0.171E-02    0.97       1.0  T
   4   -219.7830266 -0.418268E-04  0.343E-03    0.97       2.7  T
   5   -219.7830275 -0.850889E-06  0.180E-03    0.97       5.1  T
   6   -219.7830276 -0.174410E-06  0.789E-04    0.97      11.7  T
   7   -219.7830277 -0.405601E-07  0.383E-04    0.97      24.2  T
     SCC iter.                  ...        0 min,  0.124 sec
     gradient                   ...        0 min,  0.042 sec
 * total energy  :  -216.4043340 Eh     change       -0.5282401E-03 Eh
   gradient norm :     0.0108810 Eh/α   predicted     0.0000000E+00 (-100.00%)
   displ. norm   :     0.1389734 α      lambda       -0.3669907E-03
   maximum displ.:     0.0594727 α      in ANC's #13, #4, #20, ...

........................................................................
.............................. CYCLE   22 ..............................
........................................................................
   1   -219.7792033 -0.219779E+03  0.824E-02    0.97       0.0  T
   2   -219.7792134 -0.100532E-04  0.455E-02    0.97       1.0  T
   3   -219.7792069  0.650941E-05  0.983E-03    0.97       1.0  T
   4   -219.7792176 -0.107759E-04  0.218E-03    0.97       4.2  T
   5   -219.7792177 -0.749910E-07  0.130E-03    0.97       7.1  T
   6   -219.7792179 -0.164684E-06  0.494E-04    0.97      18.7  T
   7   -219.7792179 -0.198057E-07  0.234E-04    0.97      39.6  T
     SCC iter.                  ...        0 min,  0.126 sec
     gradient                   ...        0 min,  0.042 sec
 * total energy  :  -216.4045147 Eh     change       -0.1806976E-03 Eh
   gradient norm :     0.0075817 Eh/α   predicted    -0.1870437E-03 (   3.51%)
   displ. norm   :     0.3119042 α      lambda       -0.6993541E-03
   maximum displ.:     0.1346244 α      in ANC's #4, #13, #5, ...

........................................................................
.............................. CYCLE   23 ..............................
........................................................................
   1   -219.7735918 -0.219774E+03  0.860E-02    0.97       0.0  T
   2   -219.7736033 -0.114948E-04  0.487E-02    0.96       1.0  T
   3   -219.7735572  0.460777E-04  0.196E-02    0.97       1.0  T
   4   -219.7736105 -0.532816E-04  0.371E-03    0.96       2.5  T
   5   -219.7736112 -0.668427E-06  0.223E-03    0.97       4.2  T
   6   -219.7736115 -0.350474E-06  0.103E-03    0.97       9.0  T
   7   -219.7736116 -0.734918E-07  0.559E-04    0.97      16.5  T
   8   -219.7736116 -0.162592E-07  0.366E-04    0.97      25.2  T
     SCC iter.                  ...        0 min,  0.143 sec
     gradient                   ...        0 min,  0.042 sec
 * total energy  :  -216.4046805 Eh     change       -0.1657417E-03 Eh
   gradient norm :     0.0165401 Eh/α   predicted    -0.3836955E-03 ( 131.50%)
   displ. norm   :     0.1775246 α      lambda       -0.5813463E-03
   maximum displ.:     0.0887309 α      in ANC's #13, #4, #5, ...

........................................................................
.............................. CYCLE   24 ..............................
........................................................................
   1   -219.7766756 -0.219777E+03  0.768E-02    0.97       0.0  T
   2   -219.7766849 -0.926559E-05  0.427E-02    0.96       1.0  T
   3   -219.7766671  0.177530E-04  0.122E-02    0.97       1.0  T
   4   -219.7766897 -0.225606E-04  0.203E-03    0.97       4.5  T
   5   -219.7766898 -0.115671E-06  0.137E-03    0.97       6.8  T
   6   -219.7766899 -0.135358E-06  0.468E-04    0.97      19.8  T
   7   -219.7766899 -0.868550E-08  0.250E-04    0.97      37.0  T
     SCC iter.                  ...        0 min,  0.125 sec
     gradient                   ...        0 min,  0.042 sec
 * total energy  :  -216.4049297 Eh     change       -0.2492945E-03 Eh
   gradient norm :     0.0102878 Eh/α   predicted    -0.2998405E-03 (  20.28%)
   displ. norm   :     0.1928538 α      lambda       -0.5467752E-03
   maximum displ.:     0.0904974 α      in ANC's #4, #13, #5, ...

........................................................................
.............................. CYCLE   25 ..............................
........................................................................
   1   -219.7808003 -0.219781E+03  0.663E-02    0.97       0.0  T
   2   -219.7808072 -0.688602E-05  0.372E-02    0.96       1.0  T
   3   -219.7807810  0.261278E-04  0.142E-02    0.97       1.0  T
   4   -219.7808114 -0.303847E-04  0.250E-03    0.97       3.7  T
   5   -219.7808118 -0.390986E-06  0.130E-03    0.97       7.1  T
   6   -219.7808119 -0.704614E-07  0.635E-04    0.97      14.6  T
   7   -219.7808119 -0.223785E-07  0.328E-04    0.97      28.2  T
     SCC iter.                  ...        0 min,  0.125 sec
     gradient                   ...        0 min,  0.042 sec
 * total energy  :  -216.4051956 Eh     change       -0.2658868E-03 Eh
   gradient norm :     0.0083279 Eh/α   predicted    -0.2835558E-03 (   6.65%)
   displ. norm   :     0.3564623 α      lambda       -0.5706215E-03
   maximum displ.:     0.1867502 α      in ANC's #13, #4, #5, ...

........................................................................
.............................. CYCLE   26 ..............................
........................................................................
   1   -219.7807587 -0.219781E+03  0.114E-01    0.97       0.0  T
   2   -219.7807781 -0.193650E-04  0.631E-02    0.96       1.0  T
   3   -219.7807578  0.202728E-04  0.145E-02    0.97       1.0  T
   4   -219.7807872 -0.293318E-04  0.311E-03    0.97       3.0  T
   5   -219.7807875 -0.310141E-06  0.192E-03    0.97       4.8  T
   6   -219.7807877 -0.248694E-06  0.578E-04    0.97      16.0  T
   7   -219.7807877 -0.200196E-07  0.300E-04    0.97      30.8  T
     SCC iter.                  ...        0 min,  0.125 sec
     gradient                   ...        0 min,  0.042 sec
 * total energy  :  -216.4052409 Eh     change       -0.4524656E-04 Eh
   gradient norm :     0.0135298 Eh/α   predicted    -0.3215648E-03 ( 610.69%)
   displ. norm   :     0.3026683 α      lambda       -0.7812586E-03
   maximum displ.:     0.1407623 α      in ANC's #4, #5, #13, ...

........................................................................
.............................. CYCLE   27 ..............................
........................................................................
   1   -219.7785211 -0.219779E+03  0.882E-02    0.97       0.0  T
   2   -219.7785318 -0.107963E-04  0.491E-02    0.97       1.0  T
   3   -219.7785225  0.936209E-05  0.106E-02    0.97       1.0  T
   4   -219.7785367 -0.141990E-04  0.247E-03    0.97       3.7  T
   5   -219.7785368 -0.914036E-07  0.131E-03    0.97       7.0  T
   6   -219.7785369 -0.159229E-06  0.481E-04    0.97      19.2  T
   7   -219.7785370 -0.193580E-07  0.221E-04    0.97      41.9  T
     SCC iter.                  ...        0 min,  0.127 sec
     gradient                   ...        0 min,  0.042 sec
 * total energy  :  -216.4057747 Eh     change       -0.5338559E-03 Eh
   gradient norm :     0.0060981 Eh/α   predicted    -0.4264131E-03 ( -20.13%)
   displ. norm   :     0.5196785 α      lambda       -0.5109830E-03
   maximum displ.:     0.2630962 α      in ANC's #4, #13, #5, ...

........................................................................
.............................. CYCLE   28 ..............................
........................................................................
   1   -219.7768560 -0.219777E+03  0.723E-02    0.97       0.0  T
   2   -219.7768625 -0.656026E-05  0.410E-02    0.97       1.0  T
   3   -219.7768401  0.223854E-04  0.129E-02    0.97       1.0  T
   4   -219.7768665 -0.263769E-04  0.247E-03    0.97       3.7  T
   5   -219.7768667 -0.232586E-06  0.160E-03    0.97       5.8  T
   6   -219.7768669 -0.180350E-06  0.539E-04    0.97      17.1  T
   7   -219.7768669 -0.201831E-07  0.229E-04    0.97      40.3  T
     SCC iter.                  ...        0 min,  0.124 sec
     gradient                   ...        0 min,  0.042 sec
 * total energy  :  -216.4061474 Eh     change       -0.3726718E-03 Eh
   gradient norm :     0.0071900 Eh/α   predicted    -0.3244926E-03 ( -12.93%)
   displ. norm   :     0.6576263 α      lambda       -0.5851570E-03
   maximum displ.:     0.3380373 α      in ANC's #4, #13, #5, ...

........................................................................
.............................. CYCLE   29 ..............................
........................................................................
   1   -219.7750289 -0.219775E+03  0.927E-02    0.97       0.0  T
   2   -219.7750374 -0.854540E-05  0.524E-02    0.97       1.0  T
   3   -219.7749840  0.534488E-04  0.186E-02    0.96       1.0  T
   4   -219.7750447 -0.607045E-04  0.331E-03    0.97       2.8  T
   5   -219.7750453 -0.584106E-06  0.207E-03    0.97       4.5  T
   6   -219.7750455 -0.252140E-06  0.684E-04    0.97      13.5  T
   7   -219.7750456 -0.409040E-07  0.250E-04    0.97      37.1  T
     SCC iter.                  ...        0 min,  0.127 sec
     gradient                   ...        0 min,  0.042 sec
 * total energy  :  -216.4065862 Eh     change       -0.4387868E-03 Eh
   gradient norm :     0.0065373 Eh/α   predicted    -0.4191123E-03 (  -4.48%)
   displ. norm   :     0.6130273 α      lambda       -0.5483064E-03
   maximum displ.:     0.3203157 α      in ANC's #4, #13, #5, ...

........................................................................
.............................. CYCLE   30 ..............................
........................................................................
   1   -219.7763752 -0.219776E+03  0.674E-02    0.97       0.0  T
   2   -219.7763786 -0.340268E-05  0.388E-02    0.97       1.0  T
   3   -219.7763158  0.627241E-04  0.201E-02    0.97       1.0  T
   4   -219.7763853 -0.694924E-04  0.304E-03    0.97       3.0  T
   5   -219.7763860 -0.682696E-06  0.173E-03    0.97       5.3  T
   6   -219.7763862 -0.157991E-06  0.669E-04    0.97      13.8  T
   7   -219.7763862 -0.322664E-07  0.313E-04    0.97      29.5  T
     SCC iter.                  ...        0 min,  0.125 sec
     gradient                   ...        0 min,  0.041 sec
 * total energy  :  -216.4070807 Eh     change       -0.4944932E-03 Eh
   gradient norm :     0.0058024 Eh/α   predicted    -0.3771847E-03 ( -23.72%)
   displ. norm   :     0.6891714 α      lambda       -0.6780573E-03
   maximum displ.:     0.3634327 α      in ANC's #4, #13, #5, ...

........................................................................
.............................. CYCLE   31 ..............................
........................................................................
   1   -219.7790311 -0.219779E+03  0.911E-02    0.98       0.0  T
   2   -219.7790369 -0.575946E-05  0.523E-02    0.98       1.0  T
   3   -219.7788841  0.152797E-03  0.322E-02    0.97       1.0  T
   4   -219.7790548 -0.170691E-03  0.462E-03    0.98       2.0  T
   5   -219.7790564 -0.161680E-05  0.269E-03    0.98       3.4  T
   6   -219.7790568 -0.455517E-06  0.104E-03    0.98       8.9  T
   7   -219.7790569 -0.455812E-07  0.630E-04    0.98      14.7  T
   8   -219.7790569 -0.134616E-07  0.477E-04    0.98      19.4  T
     SCC iter.                  ...        0 min,  0.144 sec
     gradient                   ...        0 min,  0.042 sec
 * total energy  :  -216.4076566 Eh     change       -0.5759027E-03 Eh
   gradient norm :     0.0068158 Eh/α   predicted    -0.5000541E-03 ( -13.17%)
   displ. norm   :     0.7606000 α      lambda       -0.6213225E-03
   maximum displ.:     0.4059348 α      in ANC's #4, #13, #5, ...

........................................................................
.............................. CYCLE   32 ..............................
........................................................................
   1   -219.7748530 -0.219775E+03  0.101E-01    0.98       0.0  T
   2   -219.7748595 -0.650605E-05  0.578E-02    0.99       1.0  T
   3   -219.7746605  0.199025E-03  0.356E-02    0.98       1.0  T
   4   -219.7748817 -0.221177E-03  0.504E-03    0.99       1.8  T
   5   -219.7748837 -0.206194E-05  0.281E-03    0.99       3.3  T
   6   -219.7748842 -0.481215E-06  0.114E-03    0.99       8.1  T
   7   -219.7748843 -0.605043E-07  0.627E-04    0.99      14.7  T
   8   -219.7748843 -0.144305E-07  0.467E-04    0.99      19.8  T
     SCC iter.                  ...        0 min,  0.142 sec
     gradient                   ...        0 min,  0.042 sec
 * total energy  :  -216.4081933 Eh     change       -0.5367438E-03 Eh
   gradient norm :     0.0069863 Eh/α   predicted    -0.4903881E-03 (  -8.64%)
   displ. norm   :     0.7531047 α      lambda       -0.6024934E-03
   maximum displ.:     0.4072116 α      in ANC's #4, #5, #13, ...

........................................................................
.............................. CYCLE   33 ..............................
........................................................................
   1   -219.7755257 -0.219776E+03  0.108E-01    0.99       0.0  T
   2   -219.7755353 -0.961574E-05  0.620E-02    1.00       1.0  T
   3   -219.7753306  0.204673E-03  0.362E-02    0.98       1.0  T
   4   -219.7755587 -0.228137E-03  0.542E-03    1.00       1.7  T
   5   -219.7755613 -0.251832E-05  0.311E-03    1.00       3.0  T
   6   -219.7755619 -0.649013E-06  0.117E-03    1.00       7.9  T
   7   -219.7755620 -0.643072E-07  0.587E-04    1.00      15.8  T
   8   -219.7755620 -0.139507E-07  0.412E-04    1.00      22.4  T
     SCC iter.                  ...        0 min,  0.139 sec
     gradient                   ...        0 min,  0.042 sec
 * total energy  :  -216.4087215 Eh     change       -0.5281563E-03 Eh
   gradient norm :     0.0071135 Eh/α   predicted    -0.4721044E-03 ( -10.61%)
   displ. norm   :     0.7495978 α      lambda       -0.5932406E-03
   maximum displ.:     0.4153716 α      in ANC's #4, #5, #1, ...

........................................................................
.............................. CYCLE   34 ..............................
........................................................................
   1   -219.7747016 -0.219775E+03  0.114E-01    1.00       0.0  T
   2   -219.7747143 -0.127209E-04  0.647E-02    1.01       1.0  T
   3   -219.7745417  0.172562E-03  0.330E-02    0.99       1.0  T
   4   -219.7747339 -0.192141E-03  0.519E-03    1.01       1.8  T
   5   -219.7747360 -0.219227E-05  0.309E-03    1.00       3.0  T
   6   -219.7747367 -0.663379E-06  0.111E-03    1.00       8.3  T
   7   -219.7747368 -0.729366E-07  0.450E-04    1.00      20.5  T
   8   -219.7747368 -0.117671E-07  0.248E-04    1.00      37.2  T
     SCC iter.                  ...        0 min,  0.145 sec
     gradient                   ...        0 min,  0.042 sec
 * total energy  :  -216.4092363 Eh     change       -0.5148361E-03 Eh
   gradient norm :     0.0071909 Eh/α   predicted    -0.4632978E-03 ( -10.01%)
   displ. norm   :     0.7307865 α      lambda       -0.5450043E-03
   maximum displ.:     0.4180827 α      in ANC's #4, #5, #1, ...

........................................................................
.............................. CYCLE   35 ..............................
........................................................................
   1   -219.7785647 -0.219779E+03  0.103E-01    1.01       0.0  T
   2   -219.7785768 -0.121245E-04  0.587E-02    1.01       1.0  T
   3   -219.7784751  0.101739E-03  0.261E-02    1.00       1.0  T
   4   -219.7785895 -0.114475E-03  0.460E-03    1.01       2.0  T
   5   -219.7785912 -0.169354E-05  0.279E-03    1.01       3.3  T
   6   -219.7785918 -0.590162E-06  0.106E-03    1.01       8.7  T
   7   -219.7785919 -0.695494E-07  0.488E-04    1.01      18.9  T
   8   -219.7785919 -0.145745E-07  0.277E-04    1.01      33.4  T
     SCC iter.                  ...        0 min,  0.138 sec
     gradient                   ...        0 min,  0.042 sec
 * total energy  :  -216.4096817 Eh     change       -0.4453355E-03 Eh
   gradient norm :     0.0057988 Eh/α   predicted    -0.4180318E-03 (  -6.13%)
   displ. norm   :     0.7383850 α      lambda       -0.4568150E-03
   maximum displ.:     0.4211392 α      in ANC's #4, #5, #1, ...

........................................................................
.............................. CYCLE   36 ..............................
........................................................................
   1   -219.7735289 -0.219774E+03  0.118E-01    1.01       0.0  T
   2   -219.7735443 -0.154113E-04  0.668E-02    1.02       1.0  T
   3   -219.7734136  0.130738E-03  0.300E-02    1.01       1.0  T
   4   -219.7735598 -0.146233E-03  0.499E-03    1.02       1.9  T
   5   -219.7735616 -0.183720E-05  0.288E-03    1.01       3.2  T
   6   -219.7735622 -0.550283E-06  0.104E-03    1.02       8.9  T
   7   -219.7735623 -0.775311E-07  0.451E-04    1.02      20.5  T
   8   -219.7735623 -0.133769E-07  0.255E-04    1.02      36.3  T
     SCC iter.                  ...        0 min,  0.133 sec
     gradient                   ...        0 min,  0.040 sec
 * total energy  :  -216.4100237 Eh     change       -0.3420571E-03 Eh
   gradient norm :     0.0114326 Eh/α   predicted    -0.3529397E-03 (   3.18%)
   displ. norm   :     0.6063626 α      lambda       -0.3994555E-03
   maximum displ.:     0.3656901 α      in ANC's #4, #5, #10, ...

........................................................................
.............................. CYCLE   37 ..............................
........................................................................
   1   -219.7810617 -0.219781E+03  0.749E-02    1.02       0.0  T
   2   -219.7810697 -0.794545E-05  0.429E-02    1.02       1.0  T
   3   -219.7810381  0.315642E-04  0.162E-02    1.02       1.0  T
   4   -219.7810751 -0.369712E-04  0.290E-03    1.02       3.2  T
   5   -219.7810755 -0.378546E-06  0.166E-03    1.02       5.6  T
   6   -219.7810756 -0.181041E-06  0.746E-04    1.02      12.4  T
   7   -219.7810757 -0.337412E-07  0.430E-04    1.02      21.5  T
     SCC iter.                  ...        0 min,  0.121 sec
     gradient                   ...        0 min,  0.042 sec
 * total energy  :  -216.4103321 Eh     change       -0.3083656E-03 Eh
   gradient norm :     0.0065064 Eh/α   predicted    -0.2731653E-03 ( -11.42%)
   displ. norm   :     0.5669772 α      lambda       -0.3227302E-03
   maximum displ.:     0.3396883 α      in ANC's #4, #5, #10, ...

........................................................................
.............................. CYCLE   38 ..............................
........................................................................
   1   -219.7807265 -0.219781E+03  0.649E-02    1.02       0.0  T
   2   -219.7807319 -0.541869E-05  0.373E-02    1.02       1.0  T
   3   -219.7807072  0.246800E-04  0.145E-02    1.02       1.0  T
   4   -219.7807356 -0.283395E-04  0.259E-03    1.03       3.6  T
   5   -219.7807359 -0.357592E-06  0.163E-03    1.02       5.7  T
   6   -219.7807361 -0.198108E-06  0.715E-04    1.02      12.9  T
   7   -219.7807362 -0.350429E-07  0.330E-04    1.02      28.0  T
     SCC iter.                  ...        0 min,  0.126 sec
     gradient                   ...        0 min,  0.042 sec
 * total energy  :  -216.4105794 Eh     change       -0.2473592E-03 Eh
   gradient norm :     0.0080271 Eh/α   predicted    -0.2132433E-03 ( -13.79%)
   displ. norm   :     0.5551723 α      lambda       -0.3481363E-03
   maximum displ.:     0.3369139 α      in ANC's #4, #5, #10, ...

........................................................................
.............................. CYCLE   39 ..............................
........................................................................
   1   -219.7855638 -0.219786E+03  0.679E-02    1.03       0.0  T
   2   -219.7855693 -0.548786E-05  0.390E-02    1.03       1.0  T
   3   -219.7855489  0.203569E-04  0.132E-02    1.03       1.0  T
   4   -219.7855728 -0.238612E-04  0.247E-03    1.03       3.7  T
   5   -219.7855730 -0.220916E-06  0.144E-03    1.03       6.4  T
   6   -219.7855731 -0.103171E-06  0.694E-04    1.03      13.3  T
   7   -219.7855732 -0.296354E-07  0.420E-04    1.03      22.0  T
     SCC iter.                  ...        0 min,  0.127 sec
     gradient                   ...        0 min,  0.042 sec
 * total energy  :  -216.4108666 Eh     change       -0.2871607E-03 Eh
   gradient norm :     0.0069649 Eh/α   predicted    -0.2277219E-03 ( -20.70%)
   displ. norm   :     0.6689769 α      lambda       -0.3795209E-03
   maximum displ.:     0.4057007 α      in ANC's #4, #10, #5, ...

........................................................................
.............................. CYCLE   40 ..............................
........................................................................
   1   -219.7830326 -0.219783E+03  0.724E-02    1.03       0.0  T
   2   -219.7830380 -0.544709E-05  0.417E-02    1.03       1.0  T
   3   -219.7830110  0.270770E-04  0.145E-02    1.03       1.0  T
   4   -219.7830419 -0.309821E-04  0.265E-03    1.03       3.5  T
   5   -219.7830423 -0.311602E-06  0.174E-03    1.03       5.3  T
   6   -219.7830425 -0.199565E-06  0.874E-04    1.03      10.6  T
   7   -219.7830425 -0.417826E-07  0.567E-04    1.03      16.3  T
     SCC iter.                  ...        0 min,  0.124 sec
     gradient                   ...        0 min,  0.039 sec
 * total energy  :  -216.4111801 Eh     change       -0.3134780E-03 Eh
   gradient norm :     0.0093821 Eh/α   predicted    -0.2746878E-03 ( -12.37%)
   displ. norm   :     0.6714591 α      lambda       -0.4302555E-03
   maximum displ.:     0.3965628 α      in ANC's #4, #10, #2, ...

........................................................................
.............................. CYCLE   41 ..............................
........................................................................
   1   -219.7820089 -0.219782E+03  0.802E-02    1.03       0.0  T
   2   -219.7820167 -0.773709E-05  0.458E-02    1.03       1.0  T
   3   -219.7819874  0.292307E-04  0.152E-02    1.03       1.0  T
   4   -219.7820215 -0.341094E-04  0.289E-03    1.03       3.2  T
   5   -219.7820218 -0.265189E-06  0.191E-03    1.03       4.8  T
   6   -219.7820220 -0.228984E-06  0.102E-03    1.03       9.1  T
   7   -219.7820221 -0.518223E-07  0.680E-04    1.03      13.6  T
   8   -219.7820221 -0.194256E-07  0.527E-04    1.03      17.6  T
     SCC iter.                  ...        0 min,  0.139 sec
     gradient                   ...        0 min,  0.041 sec
 * total energy  :  -216.4115329 Eh     change       -0.3527816E-03 Eh
   gradient norm :     0.0083045 Eh/α   predicted    -0.3121252E-03 ( -11.52%)
   displ. norm   :     0.6955941 α      lambda       -0.4218811E-03
   maximum displ.:     0.4010845 α      in ANC's #4, #10, #2, ...

........................................................................
.............................. CYCLE   42 ..............................
........................................................................
   1   -219.7821001 -0.219782E+03  0.730E-02    1.04       0.0  T
   2   -219.7821062 -0.606234E-05  0.420E-02    1.04       1.0  T
   3   -219.7820826  0.235981E-04  0.138E-02    1.04       1.0  T
   4   -219.7821101 -0.274575E-04  0.266E-03    1.04       3.5  T
   5   -219.7821104 -0.321094E-06  0.157E-03    1.04       5.9  T
   6   -219.7821105 -0.140694E-06  0.835E-04    1.04      11.1  T
   7   -219.7821106 -0.370594E-07  0.516E-04    1.04      17.9  T
     SCC iter.                  ...        0 min,  0.122 sec
     gradient                   ...        0 min,  0.042 sec
 * total energy  :  -216.4118966 Eh     change       -0.3637337E-03 Eh
   gradient norm :     0.0075835 Eh/α   predicted    -0.3130058E-03 ( -13.95%)
   displ. norm   :     0.7120091 α      lambda       -0.4345538E-03
   maximum displ.:     0.4074260 α      in ANC's #4, #10, #2, ...
 * RMSD in coord.:     1.0174787 α      energy gain  -0.8090825E-02 Eh

generating ANC from model Hessian ...
Using Lindh-Hessian (1995)
 Shifting diagonal of input Hessian by   1.021064222658446E-002
 Lowest  eigenvalues of input Hessian
    0.010000    0.010208    0.000000    0.000000    0.000000    0.000000
    0.000000    0.000000    0.010219    0.010289    0.010317    0.010348
    0.010417    0.010480    0.010492    0.010586    0.010660    0.010704
 Highest eigenvalues
    2.281861    2.293227    2.606212    2.609853    2.644450    2.654218
 

........................................................................
.............................. CYCLE   43 ..............................
........................................................................
   1   -219.7767001 -0.219777E+03  0.776E-02    1.04       0.0  T
   2   -219.7767078 -0.769230E-05  0.447E-02    1.04       1.0  T
   3   -219.7766631  0.447622E-04  0.188E-02    1.04       1.0  T
   4   -219.7767130 -0.499429E-04  0.367E-03    1.04       2.5  T
   5   -219.7767142 -0.117001E-05  0.199E-03    1.04       4.6  T
   6   -219.7767145 -0.323724E-06  0.881E-04    1.04      10.5  T
   7   -219.7767145 -0.396059E-07  0.429E-04    1.04      21.6  T
     SCC iter.                  ...        0 min,  0.126 sec
     gradient                   ...        0 min,  0.042 sec
 * total energy  :  -216.4122600 Eh     change       -0.3633896E-03 Eh
   gradient norm :     0.0077113 Eh/α   predicted     0.0000000E+00 (-100.00%)
   displ. norm   :     0.0720639 α      lambda       -0.1257107E-03
   maximum displ.:     0.0223315 α      in ANC's #2, #20, #59, ...

........................................................................
.............................. CYCLE   44 ..............................
........................................................................
   1   -219.7813007 -0.219781E+03  0.234E-02    1.04       0.0  T
   2   -219.7813017 -0.981398E-06  0.133E-02    1.04       1.0  T
   3   -219.7812988  0.283576E-05  0.496E-03    1.04       1.9  T
   4   -219.7813021 -0.325091E-05  0.113E-03    1.04       8.2  T
   5   -219.7813022 -0.110129E-06  0.545E-04    1.04      17.0  T
   6   -219.7813022 -0.165907E-07  0.297E-04    1.04      31.2  T
     SCC iter.                  ...        0 min,  0.110 sec
     gradient                   ...        0 min,  0.041 sec
 * total energy  :  -216.4123459 Eh     change       -0.8591553E-04 Eh
   gradient norm :     0.0036513 Eh/α   predicted    -0.6318182E-04 ( -26.46%)
   displ. norm   :     0.2396068 α      lambda       -0.2827338E-03
   maximum displ.:     0.0821017 α      in ANC's #5, #10, #4, ...

........................................................................
.............................. CYCLE   45 ..............................
........................................................................
   1   -219.7906621 -0.219791E+03  0.872E-02    1.05       0.0  T
   2   -219.7906747 -0.126310E-04  0.484E-02    1.04       1.0  T
   3   -219.7906505  0.242406E-04  0.150E-02    1.04       1.0  T
   4   -219.7906803 -0.298446E-04  0.345E-03    1.04       2.7  T
   5   -219.7906811 -0.797011E-06  0.189E-03    1.04       4.9  T
   6   -219.7906813 -0.221654E-06  0.994E-04    1.04       9.3  T
   7   -219.7906814 -0.495807E-07  0.620E-04    1.04      14.9  T
     SCC iter.                  ...        0 min,  0.128 sec
     gradient                   ...        0 min,  0.042 sec
 * total energy  :  -216.4124227 Eh     change       -0.7681345E-04 Eh
   gradient norm :     0.0105863 Eh/α   predicted    -0.1494949E-03 (  94.62%)
   displ. norm   :     0.1833517 α      lambda       -0.2707357E-03
   maximum displ.:     0.0639825 α      in ANC's #2, #12, #4, ...

........................................................................
.............................. CYCLE   46 ..............................
........................................................................
   1   -219.7899048 -0.219790E+03  0.721E-02    1.04       0.0  T
   2   -219.7899123 -0.758513E-05  0.400E-02    1.04       1.0  T
   3   -219.7899103  0.202173E-05  0.634E-03    1.04       1.5  T
   4   -219.7899154 -0.508688E-05  0.199E-03    1.04       4.6  T
   5   -219.7899155 -0.112343E-06  0.114E-03    1.04       8.1  T
   6   -219.7899156 -0.108455E-06  0.566E-04    1.04      16.3  T
   7   -219.7899156 -0.184273E-07  0.404E-04    1.04      22.9  T
     SCC iter.                  ...        0 min,  0.119 sec
     gradient                   ...        0 min,  0.042 sec
 * total energy  :  -216.4124821 Eh     change       -0.5935131E-04 Eh
   gradient norm :     0.0111998 Eh/α   predicted    -0.1399187E-03 ( 135.75%)
   displ. norm   :     0.0908947 α      lambda       -0.2607307E-03
   maximum displ.:     0.0339098 α      in ANC's #59, #5, #2, ...

........................................................................
.............................. CYCLE   47 ..............................
........................................................................
   1   -219.7831768 -0.219783E+03  0.443E-02    1.04       0.0  T
   2   -219.7831801 -0.332485E-05  0.248E-02    1.04       1.0  T
   3   -219.7831716  0.844165E-05  0.800E-03    1.04       1.2  T
   4   -219.7831815 -0.986388E-05  0.166E-03    1.04       5.6  T
   5   -219.7831818 -0.274300E-06  0.839E-04    1.04      11.0  T
   6   -219.7831818 -0.470969E-07  0.446E-04    1.04      20.7  T
     SCC iter.                  ...        0 min,  0.106 sec
     gradient                   ...        0 min,  0.042 sec
 * total energy  :  -216.4126316 Eh     change       -0.1495356E-03 Eh
   gradient norm :     0.0050371 Eh/α   predicted    -0.1314431E-03 ( -12.10%)
   displ. norm   :     0.1869321 α      lambda       -0.1576953E-03
   maximum displ.:     0.0697161 α      in ANC's #2, #5, #12, ...

........................................................................
.............................. CYCLE   48 ..............................
........................................................................
   1   -219.7807269 -0.219781E+03  0.552E-02    1.04       0.0  T
   2   -219.7807310 -0.407779E-05  0.306E-02    1.04       1.0  T
   3   -219.7807291  0.192531E-05  0.529E-03    1.04       1.7  T
   4   -219.7807327 -0.355366E-05  0.152E-03    1.04       6.1  T
   5   -219.7807327 -0.605658E-07  0.879E-04    1.04      10.5  T
   6   -219.7807328 -0.729285E-07  0.335E-04    1.04      27.6  T
     SCC iter.                  ...        0 min,  0.103 sec
     gradient                   ...        0 min,  0.042 sec
 * total energy  :  -216.4127067 Eh     change       -0.7510669E-04 Eh
   gradient norm :     0.0057796 Eh/α   predicted    -0.8160311E-04 (   8.65%)
   displ. norm   :     0.4031352 α      lambda       -0.3178897E-03
   maximum displ.:     0.1537770 α      in ANC's #5, #2, #4, ...

........................................................................
.............................. CYCLE   49 ..............................
........................................................................
   1   -219.7787640 -0.219779E+03  0.855E-02    1.04       0.0  T
   2   -219.7787745 -0.104431E-04  0.477E-02    1.04       1.0  T
   3   -219.7787727  0.180721E-05  0.721E-03    1.04       1.3  T
   4   -219.7787784 -0.569037E-05  0.259E-03    1.04       3.6  T
   5   -219.7787785 -0.147548E-06  0.146E-03    1.04       6.3  T
   6   -219.7787787 -0.198453E-06  0.487E-04    1.04      19.0  T
   7   -219.7787787 -0.158413E-07  0.259E-04    1.04      35.6  T
     SCC iter.                  ...        0 min,  0.121 sec
     gradient                   ...        0 min,  0.042 sec
 * total energy  :  -216.4128698 Eh     change       -0.1631342E-03 Eh
   gradient norm :     0.0090420 Eh/α   predicted    -0.1847773E-03 (  13.27%)
   displ. norm   :     0.3450241 α      lambda       -0.2202461E-03
   maximum displ.:     0.1376639 α      in ANC's #2, #5, #12, ...

........................................................................
.............................. CYCLE   50 ..............................
........................................................................
   1   -219.7794511 -0.219779E+03  0.541E-02    1.04       0.0  T
   2   -219.7794544 -0.327241E-05  0.306E-02    1.04       1.0  T
   3   -219.7794522  0.212346E-05  0.574E-03    1.04       1.6  T
   4   -219.7794558 -0.355170E-05  0.162E-03    1.04       5.7  T
   5   -219.7794558  0.178542E-08  0.856E-04    1.04      10.8  T
   6   -219.7794559 -0.744486E-07  0.277E-04    1.04      33.3  T
     SCC iter.                  ...        0 min,  0.105 sec
     gradient                   ...        0 min,  0.042 sec
 * total energy  :  -216.4130472 Eh     change       -0.1774056E-03 Eh
   gradient norm :     0.0063542 Eh/α   predicted    -0.1232382E-03 ( -30.53%)
   displ. norm   :     0.5298696 α      lambda       -0.3488841E-03
   maximum displ.:     0.2129002 α      in ANC's #2, #5, #12, ...

........................................................................
.............................. CYCLE   51 ..............................
........................................................................
   1   -219.7823365 -0.219782E+03  0.849E-02    1.05       0.0  T
   2   -219.7823448 -0.832829E-05  0.481E-02    1.04       1.0  T
   3   -219.7823339  0.109675E-04  0.108E-02    1.04       1.0  T
   4   -219.7823486 -0.147463E-04  0.269E-03    1.04       3.4  T
   5   -219.7823487 -0.818341E-07  0.160E-03    1.04       5.8  T
   6   -219.7823489 -0.213937E-06  0.639E-04    1.04      14.5  T
   7   -219.7823489 -0.373366E-07  0.306E-04    1.04      30.2  T
     SCC iter.                  ...        0 min,  0.122 sec
     gradient                   ...        0 min,  0.042 sec
 * total energy  :  -216.4132519 Eh     change       -0.2046027E-03 Eh
   gradient norm :     0.0077103 Eh/α   predicted    -0.2234232E-03 (   9.20%)
   displ. norm   :     0.5188841 α      lambda       -0.2836262E-03
   maximum displ.:     0.2085062 α      in ANC's #2, #5, #4, ...

........................................................................
.............................. CYCLE   52 ..............................
........................................................................
   1   -219.7829753 -0.219783E+03  0.923E-02    1.05       0.0  T
   2   -219.7829855 -0.102365E-04  0.518E-02    1.04       1.0  T
   3   -219.7829745  0.110834E-04  0.121E-02    1.05       1.0  T
   4   -219.7829905 -0.160897E-04  0.264E-03    1.04       3.5  T
   5   -219.7829905  0.408335E-07  0.147E-03    1.04       6.3  T
   6   -219.7829907 -0.181481E-06  0.617E-04    1.04      15.0  T
   7   -219.7829907 -0.362611E-07  0.376E-04    1.04      24.6  T
     SCC iter.                  ...        0 min,  0.124 sec
     gradient                   ...        0 min,  0.042 sec
 * total energy  :  -216.4134468 Eh     change       -0.1949846E-03 Eh
   gradient norm :     0.0063317 Eh/α   predicted    -0.1799989E-03 (  -7.69%)
   displ. norm   :     0.5037688 α      lambda       -0.2492795E-03
   maximum displ.:     0.2153410 α      in ANC's #2, #5, #4, ...

........................................................................
.............................. CYCLE   53 ..............................
........................................................................
   1   -219.7855729 -0.219786E+03  0.571E-02    1.05       0.0  T
   2   -219.7855757 -0.284275E-05  0.327E-02    1.04       1.0  T
   3   -219.7855594  0.163559E-04  0.112E-02    1.05       1.0  T
   4   -219.7855778 -0.184057E-04  0.224E-03    1.04       4.1  T
   5   -219.7855780 -0.233730E-06  0.135E-03    1.05       6.8  T
   6   -219.7855781 -0.115499E-06  0.556E-04    1.04      16.6  T
   7   -219.7855781 -0.130282E-07  0.379E-04    1.04      24.4  T
     SCC iter.                  ...        0 min,  0.123 sec
     gradient                   ...        0 min,  0.039 sec
 * total energy  :  -216.4136383 Eh     change       -0.1914149E-03 Eh
   gradient norm :     0.0056501 Eh/α   predicted    -0.1562720E-03 ( -18.36%)
   displ. norm   :     0.5964677 α      lambda       -0.2620735E-03
   maximum displ.:     0.2555998 α      in ANC's #2, #5, #4, ...

........................................................................
.............................. CYCLE   54 ..............................
........................................................................
   1   -219.7841785 -0.219784E+03  0.728E-02    1.05       0.0  T
   2   -219.7841844 -0.593897E-05  0.413E-02    1.05       1.0  T
   3   -219.7841795  0.495310E-05  0.815E-03    1.05       1.1  T
   4   -219.7841869 -0.749598E-05  0.227E-03    1.05       4.1  T
   5   -219.7841870 -0.414400E-07  0.131E-03    1.05       7.1  T
   6   -219.7841871 -0.112939E-06  0.575E-04    1.05      16.1  T
   7   -219.7841871 -0.285441E-07  0.326E-04    1.05      28.3  T
     SCC iter.                  ...        0 min,  0.124 sec
     gradient                   ...        0 min,  0.041 sec
 * total energy  :  -216.4138485 Eh     change       -0.2102952E-03 Eh
   gradient norm :     0.0043798 Eh/α   predicted    -0.1776598E-03 ( -15.52%)
   displ. norm   :     0.5344955 α      lambda       -0.2743756E-03
   maximum displ.:     0.2399348 α      in ANC's #2, #4, #5, ...

........................................................................
.............................. CYCLE   55 ..............................
........................................................................
   1   -219.7895085 -0.219790E+03  0.569E-02    1.05       0.0  T
   2   -219.7895126 -0.415948E-05  0.325E-02    1.05       1.0  T
   3   -219.7894963  0.163265E-04  0.121E-02    1.05       1.0  T
   4   -219.7895148 -0.184894E-04  0.270E-03    1.05       3.4  T
   5   -219.7895153 -0.485512E-06  0.141E-03    1.05       6.6  T
   6   -219.7895154 -0.128567E-06  0.646E-04    1.05      14.3  T
   7   -219.7895154 -0.279686E-07  0.318E-04    1.05      29.1  T
     SCC iter.                  ...        0 min,  0.125 sec
     gradient                   ...        0 min,  0.041 sec
 * total energy  :  -216.4140291 Eh     change       -0.1805080E-03 Eh
   gradient norm :     0.0070738 Eh/α   predicted    -0.1763854E-03 (  -2.28%)
   displ. norm   :     0.6204383 α      lambda       -0.2120771E-03
   maximum displ.:     0.2724721 α      in ANC's #2, #5, #4, ...

........................................................................
.............................. CYCLE   56 ..............................
........................................................................
   1   -219.7820362 -0.219782E+03  0.687E-02    1.05       0.0  T
   2   -219.7820413 -0.506682E-05  0.394E-02    1.05       1.0  T
   3   -219.7820217  0.195819E-04  0.130E-02    1.05       1.0  T
   4   -219.7820440 -0.222678E-04  0.284E-03    1.05       3.3  T
   5   -219.7820444 -0.440063E-06  0.165E-03    1.05       5.6  T
   6   -219.7820446 -0.202091E-06  0.660E-04    1.05      14.0  T
   7   -219.7820447 -0.261882E-07  0.306E-04    1.05      30.2  T
     SCC iter.                  ...        0 min,  0.125 sec
     gradient                   ...        0 min,  0.041 sec
 * total energy  :  -216.4141672 Eh     change       -0.1381100E-03 Eh
   gradient norm :     0.0047338 Eh/α   predicted    -0.1468594E-03 (   6.34%)
   displ. norm   :     0.3100235 α      lambda       -0.1389866E-03
   maximum displ.:     0.1404126 α      in ANC's #2, #4, #5, ...

........................................................................
.............................. CYCLE   57 ..............................
........................................................................
   1   -219.7837115 -0.219784E+03  0.385E-02    1.05       0.0  T
   2   -219.7837137 -0.224856E-05  0.220E-02    1.05       1.0  T
   3   -219.7837048  0.897842E-05  0.853E-03    1.05       1.1  T
   4   -219.7837152 -0.104031E-04  0.159E-03    1.05       5.8  T
   5   -219.7837153 -0.134739E-06  0.104E-03    1.05       8.9  T
   6   -219.7837154 -0.819248E-07  0.436E-04    1.05      21.2  T
   7   -219.7837154 -0.116771E-07  0.213E-04    1.05      43.4  T
     SCC iter.                  ...        0 min,  0.123 sec
     gradient                   ...        0 min,  0.041 sec
 * total energy  :  -216.4142733 Eh     change       -0.1061278E-03 Eh
   gradient norm :     0.0037678 Eh/α   predicted    -0.7617854E-04 ( -28.22%)
   displ. norm   :     0.3365540 α      lambda       -0.1413226E-03
   maximum displ.:     0.1511877 α      in ANC's #2, #4, #5, ...

........................................................................
.............................. CYCLE   58 ..............................
........................................................................
   1   -219.7856598 -0.219786E+03  0.478E-02    1.05       0.0  T
   2   -219.7856629 -0.312962E-05  0.273E-02    1.06       1.0  T
   3   -219.7856452  0.177086E-04  0.115E-02    1.05       1.0  T
   4   -219.7856654 -0.202517E-04  0.197E-03    1.06       4.7  T
   5   -219.7856657 -0.238184E-06  0.127E-03    1.05       7.3  T
   6   -219.7856658 -0.116574E-06  0.535E-04    1.05      17.3  T
   7   -219.7856658 -0.166910E-07  0.275E-04    1.05      33.6  T
     SCC iter.                  ...        0 min,  0.124 sec
     gradient                   ...        0 min,  0.042 sec
[...]
 Mol. α(0) /au        :        823.042109


Wiberg/Mayer (AO) data.
largest (>0.10) Wiberg bond orders for each atom

 ---------------------------------------------------------------------------
     #   Z sym  total        # sym  WBO       # sym  WBO       # sym  WBO
 ---------------------------------------------------------------------------
     1   6 C    3.949 --     2 C    1.508    18 C    1.276    83 H    0.943
     2   6 C    3.956 --     1 C    1.508    12 C    1.151     3 C    1.034
     3   6 C    3.932 --     4 O    1.763     2 C    1.034     5 C    1.016
     4   8 O    2.068 --     3 C    1.763
     5   6 C    3.976 --     6 C    1.376    11 C    1.295     3 C    1.016
     6   6 C    3.890 --     5 C    1.376     8 C    1.369     7 F    0.986
     7   9 F    1.131 --     6 C    0.986
     8   6 C    3.971 --     9 C    1.448     6 C    1.369    84 H    0.965
     9   6 C    3.980 --     8 C    1.448    10 C    1.419    85 H    0.969
    10   6 C    3.977 --     9 C    1.419    11 C    1.410    86 H    0.960
    11   6 C    3.982 --    10 C    1.410     5 C    1.295    12 C    1.078
    12   6 C    3.973 --    13 C    1.478     2 C    1.151    11 C    1.078
    13   6 C    3.946 --    12 C    1.478    16 C    1.098    14 C    1.098
    14   6 C    3.946 --    15 N    2.757    13 C    1.098
    15   7 N    2.964 --    14 C    2.757
    16   6 C    3.945 --    17 N    2.762    13 C    1.098
    17   7 N    2.966 --    16 C    2.762
    18   6 C    3.923 --    19 C    1.368     1 C    1.276    60 S    1.060
    19   6 C    3.954 --    18 C    1.368    28 C    1.302    20 C    1.040
    20   6 C    3.984 --    25 C    1.367    21 C    1.367    19 C    1.040
                            23 C    0.101
    21   6 C    3.985 --    22 C    1.445    20 C    1.367    87 H    0.967
                            24 C    0.105
    22   6 C    3.988 --    21 C    1.445    23 C    1.431    88 H    0.969
                            25 C    0.105
    23   6 C    3.985 --    24 C    1.442    22 C    1.431    89 H    0.971
                            20 C    0.101
    24   6 C    3.989 --    23 C    1.442    25 C    1.415    90 H    0.966
                            21 C    0.105
    25   6 C    3.985 --    24 C    1.415    20 C    1.367    26 C    1.011
                            22 C    0.105
    26   6 C    3.997 --    25 C    1.011    27 C    1.009    92 H    0.972
                            91 H    0.961
    27   6 C    3.995 --    26 C    1.009    93 H    0.987    94 H    0.986
                            95 H    0.985
    28   6 C    3.928 --    59 C    1.316    19 C    1.302    29 S    1.094
    29  16 S    2.530 --    30 C    1.121    28 C    1.094
    30   6 C    3.919 --    58 C    1.303    31 C    1.269    29 S    1.121
    31   6 C    3.954 --    56 C    1.275    30 C    1.269    32 C    1.171
    32   6 C    3.973 --    36 N    1.427    31 C    1.171    33 C    1.168
                            35 S    0.101
    33   6 C    3.973 --    34 N    1.426    37 C    1.172    32 C    1.168
                            35 S    0.100
    34   7 N    3.074 --    33 C    1.426    35 S    1.394    36 N    0.149
    35  16 S    3.112 --    36 N    1.396    34 N    1.394    32 C    0.101
                            33 C    0.100
    36   7 N    3.075 --    32 C    1.427    35 S    1.396    34 N    0.149
    37   6 C    3.954 --    38 C    1.275    55 C    1.267    33 C    1.172
    38   6 C    3.918 --    53 C    1.297    37 C    1.275    39 S    1.121
    39  16 S    2.530 --    38 C    1.121    40 C    1.094
    40   6 C    3.929 --    52 C    1.311    41 C    1.307    39 S    1.094
    41   6 C    3.954 --    50 C    1.364    40 C    1.307    42 C    1.039
    42   6 C    3.985 --    49 C    1.378    43 C    1.361    41 C    1.039
                            47 C    0.103
    43   6 C    3.985 --    46 C    1.421    42 C    1.361    44 C    1.013
                            48 C    0.105
    44   6 C    3.996 --    43 C    1.013    45 C    1.001    97 H    0.975
                            96 H    0.962
    45   6 C    3.995 --    44 C    1.001   100 H    0.988    98 H    0.987
                            99 H    0.986
    46   6 C    3.988 --    47 C    1.434    43 C    1.421   101 H    0.967
                            49 C    0.103
    47   6 C    3.986 --    48 C    1.437    46 C    1.434   102 H    0.971
                            42 C    0.103
    48   6 C    3.989 --    49 C    1.439    47 C    1.437   103 H    0.969
                            43 C    0.105
    49   6 C    3.985 --    48 C    1.439    42 C    1.378   104 H    0.967
                            46 C    0.103
    50   6 C    3.924 --    41 C    1.364    65 C    1.278    51 S    1.064
    51  16 S    2.540 --    52 C    1.133    50 C    1.064
    52   6 C    3.932 --    40 C    1.311    53 C    1.259    51 S    1.133
    53   6 C    3.936 --    38 C    1.297    52 C    1.259    54 N    1.153
    54   7 N    3.554 --    55 C    1.170    53 C    1.153    63 C    0.981
    55   6 C    3.927 --    37 C    1.267    56 C    1.227    54 N    1.170
    56   6 C    3.927 --    31 C    1.275    55 C    1.227    57 N    1.159
    57   7 N    3.536 --    56 C    1.159    58 C    1.150    61 C    0.978
    58   6 C    3.937 --    30 C    1.303    59 C    1.256    57 N    1.150
    59   6 C    3.930 --    28 C    1.316    58 C    1.256    60 S    1.132
    60  16 S    2.536 --    59 C    1.132    18 C    1.060
    61   6 C    3.962 --    62 C    1.006    57 N    0.978   106 H    0.964
                           105 H    0.956
    62   6 C    3.989 --    61 C    1.006   107 H    0.986   109 H    0.985
                           108 H    0.982
    63   6 C    3.965 --    64 C    1.007    54 N    0.981   111 H    0.965
                           110 H    0.963
    64   6 C    3.986 --    63 C    1.007   112 H    0.983   114 H    0.981
                           113 H    0.979
    65   6 C    3.945 --    66 C    1.495    50 C    1.278   115 H    0.945
    66   6 C    3.954 --    65 C    1.495    77 C    1.153    67 C    1.041
    67   6 C    3.930 --    68 O    1.753    66 C    1.041    69 C    1.013
    68   8 O    2.052 --    67 C    1.753
    69   6 C    3.976 --    70 C    1.423    76 C    1.289    67 C    1.013
    70   6 C    3.978 --    69 C    1.423    71 C    1.385   116 H    0.960
    71   6 C    3.914 --    70 C    1.385    73 C    1.346    72 Cl   1.011
    72  17 Cl   1.160 --    71 C    1.011
    73   6 C    3.921 --    75 C    1.391    71 C    1.346    74 Cl   1.014
    74  17 Cl   1.165 --    73 C    1.014
    75   6 C    3.971 --    76 C    1.403    73 C    1.391   117 H    0.955
    76   6 C    3.982 --    75 C    1.403    69 C    1.289    77 C    1.082
    77   6 C    3.972 --    78 C    1.476    66 C    1.153    76 C    1.082
    78   6 C    3.942 --    77 C    1.476    79 C    1.100    81 C    1.098
    79   6 C    3.946 --    80 N    2.759    78 C    1.100
    80   7 N    2.962 --    79 C    2.759
    81   6 C    3.946 --    82 N    2.766    78 C    1.098
    82   7 N    2.967 --    81 C    2.766
    83   1 H    0.992 --     1 C    0.943
    84   1 H    0.994 --     8 C    0.965
    85   1 H    0.996 --     9 C    0.969
    86   1 H    0.995 --    10 C    0.960
    87   1 H    0.997 --    21 C    0.967
    88   1 H    0.996 --    22 C    0.969
    89   1 H    0.998 --    23 C    0.971
    90   1 H    0.997 --    24 C    0.966
    91   1 H    0.998 --    26 C    0.961
    92   1 H    0.999 --    26 C    0.972
    93   1 H    0.998 --    27 C    0.987
    94   1 H    0.998 --    27 C    0.986
    95   1 H    0.999 --    27 C    0.985
    96   1 H    0.999 --    44 C    0.962
    97   1 H    0.998 --    44 C    0.975
    98   1 H    0.999 --    45 C    0.987
    99   1 H    0.997 --    45 C    0.986
   100   1 H    0.998 --    45 C    0.988
   101   1 H    0.998 --    46 C    0.967
   102   1 H    0.998 --    47 C    0.971
   103   1 H    0.996 --    48 C    0.969
   104   1 H    0.997 --    49 C    0.967
   105   1 H    0.994 --    61 C    0.956
   106   1 H    0.995 --    61 C    0.964
   107   1 H    0.997 --    62 C    0.986
   108   1 H    0.996 --    62 C    0.982
   109   1 H    0.998 --    62 C    0.985
   110   1 H    0.996 --    63 C    0.963
   111   1 H    0.994 --    63 C    0.965
   112   1 H    0.996 --    64 C    0.983
   113   1 H    0.996 --    64 C    0.979
   114   1 H    0.997 --    64 C    0.981
   115   1 H    0.992 --    65 C    0.945
   116   1 H    0.992 --    70 C    0.960
   117   1 H    0.992 --    75 C    0.955
 ---------------------------------------------------------------------------

Topologies differ in bond orders
Writing corrected topology to xtbtopo.mol

molecular dipole:
                 x           y           z       tot (Debye)
 q only:        0.556       0.710       1.759
   full:        0.311       0.912       1.543       4.623
molecular quadrupole (traceless):
                xx          xy          yy          xz          yz          zz
 q only:      -18.451     -15.837      41.220     -59.215      -4.942     -22.769
  q+dip:      -29.421     -26.362      29.058     -27.590     -26.289       0.363
   full:      -30.608     -26.738      33.040     -33.776     -27.165      -2.432

           -------------------------------------------------
          |                Geometry Summary                 |
           -------------------------------------------------

      molecular mass/u    :     1198.2456747
   center of mass at/Å    :       -0.2425703       0.6144251      -0.8853255
  moments of inertia/u·Å² :        0.8570956E+04   0.8852400E+05   0.9176482E+05
rotational constants/cm⁻¹ :        0.1966832E-02   0.1904301E-03   0.1837047E-03

 * 112 selected distances

     #   Z          #   Z                                           value/Å
     1   6 C        2   6 C                                       1.3701865
     3   6 C        4   8 O                                       1.2107470
     5   6 C        6   6 C                                       1.3820327
     6   6 C        7   9 F                                       1.3373917
     6   6 C        8   6 C                                       1.3895692
     8   6 C        9   6 C                                       1.3840370
     9   6 C       10   6 C                                       1.3895095
     5   6 C       11   6 C                                       1.4070271
    10   6 C       11   6 C                                       1.3852193
    12   6 C       13   6 C                                       1.3721973
    14   6 C       15   7 N                                       1.1486602
    16   6 C       17   7 N                                       1.1482600
     1   6 C       18   6 C                                       1.4073032
    18   6 C       19   6 C                                       1.3958413
    20   6 C       21   6 C                                       1.3960825
    21   6 C       22   6 C                                       1.3798396
    22   6 C       23   6 C                                       1.3834904
    23   6 C       24   6 C                                       1.3827845
    20   6 C       25   6 C                                       1.3987983
    24   6 C       25   6 C                                       1.3901578
    26   6 C       27   6 C                                       1.5292040
    19   6 C       28   6 C                                       1.4009873
    28   6 C       29  16 S                                       1.7488423 (max)
    29  16 S       30   6 C                                       1.7294906
    30   6 C       31   6 C                                       1.4028250
    31   6 C       32   6 C                                       1.4126448
    32   6 C       33   6 C                                       1.4337986
    33   6 C       34   7 N                                       1.3238261
    34   7 N       35  16 S                                       1.6182210
    32   6 C       36   7 N                                       1.3237896
    35  16 S       36   7 N                                       1.6177173
    33   6 C       37   6 C                                       1.4124655
    37   6 C       38   6 C                                       1.4017283
    38   6 C       39  16 S                                       1.7291477
    39  16 S       40   6 C                                       1.7485396
    40   6 C       41   6 C                                       1.3994284
    42   6 C       43   6 C                                       1.3993746
    44   6 C       45   6 C                                       1.5301692
    43   6 C       46   6 C                                       1.3885549
    46   6 C       47   6 C                                       1.3839986
    47   6 C       48   6 C                                       1.3829913
    42   6 C       49   6 C                                       1.3937963
    48   6 C       49   6 C                                       1.3813630
    41   6 C       50   6 C                                       1.3958061
    40   6 C       52   6 C                                       1.4042601
    51  16 S       52   6 C                                       1.7228234
    38   6 C       53   6 C                                       1.4011906
    52   6 C       53   6 C                                       1.3968133
    53   6 C       54   7 N                                       1.3697779
    37   6 C       55   6 C                                       1.4257310
    54   7 N       55   6 C                                       1.3817482
    31   6 C       56   6 C                                       1.4246325
    55   6 C       56   6 C                                       1.4187414
    56   6 C       57   7 N                                       1.3872126
    30   6 C       58   6 C                                       1.3997619
    57   7 N       58   6 C                                       1.3714592
    28   6 C       59   6 C                                       1.4026350
    58   6 C       59   6 C                                       1.3969366
    59   6 C       60  16 S                                       1.7217854
    57   7 N       61   6 C                                       1.4482427
    61   6 C       62   6 C                                       1.5271200
    54   7 N       63   6 C                                       1.4459178
    63   6 C       64   6 C                                       1.5277517
    50   6 C       65   6 C                                       1.4064166
    65   6 C       66   6 C                                       1.3732329
    67   6 C       68   8 O                                       1.2125073
    69   6 C       70   6 C                                       1.3787223
    70   6 C       71   6 C                                       1.3896779
    71   6 C       72  17 Cl                                      1.7169715
    71   6 C       73   6 C                                       1.3986792
    73   6 C       74  17 Cl                                      1.7176569
    73   6 C       75   6 C                                       1.3909869
    69   6 C       76   6 C                                       1.4051283
    75   6 C       76   6 C                                       1.3847267
    77   6 C       78   6 C                                       1.3719833
    79   6 C       80   7 N                                       1.1486448
    81   6 C       82   7 N                                       1.1479368
     1   6 C       83   1 H                                       1.0841866
     8   6 C       84   1 H                                       1.0785813
     9   6 C       85   1 H                                       1.0790534
    10   6 C       86   1 H                                       1.0771553 (min)
    21   6 C       87   1 H                                       1.0784606
    22   6 C       88   1 H                                       1.0786957
    23   6 C       89   1 H                                       1.0798817
    24   6 C       90   1 H                                       1.0795839
    26   6 C       91   1 H                                       1.0948518
    26   6 C       92   1 H                                       1.0895376
    27   6 C       93   1 H                                       1.0877076
    27   6 C       94   1 H                                       1.0865983
    27   6 C       95   1 H                                       1.0875959
    44   6 C       96   1 H                                       1.0903755
    44   6 C       97   1 H                                       1.0917259
    45   6 C       98   1 H                                       1.0878873
    45   6 C       99   1 H                                       1.0871694
    45   6 C      100   1 H                                       1.0876429
    46   6 C      101   1 H                                       1.0809062
    47   6 C      102   1 H                                       1.0798427
    48   6 C      103   1 H                                       1.0791659
    49   6 C      104   1 H                                       1.0784569
    61   6 C      105   1 H                                       1.0853498
    61   6 C      106   1 H                                       1.0928015
    62   6 C      107   1 H                                       1.0875325
    62   6 C      108   1 H                                       1.0864728
    62   6 C      109   1 H                                       1.0882653
    63   6 C      110   1 H                                       1.0906337
    63   6 C      111   1 H                                       1.0959759
    64   6 C      112   1 H                                       1.0864487
    64   6 C      113   1 H                                       1.0864511
    64   6 C      114   1 H                                       1.0861669
    65   6 C      115   1 H                                       1.0846239
    70   6 C      116   1 H                                       1.0783744
    75   6 C      117   1 H                                       1.0777779

 * 8 distinct bonds (by element types)

   Z      Z             #   av. dist./Å        max./Å        min./Å
   1 H    6 C          35     1.0849125     1.0959759     1.0771553
   6 C    6 C          52     1.4055450     1.5301692     1.3701865
   6 C    7 N          12     1.3037897     1.4482427     1.1479368
   6 C    8 O           2     1.2116272     1.2125073     1.2107470
   6 C    9 F           1     1.3373917     1.3373917     1.3373917
   6 C   16 S           6     1.7334382     1.7488423     1.7217854
   7 N   16 S           2     1.6179692     1.6182210     1.6177173
   6 C   17 Cl          2     1.7173142     1.7176569     1.7169715


optimized geometry written to: xtbopt.mol


           -------------------------------------------------
          | TOTAL ENERGY             -216.415685753912 Eh   |
          | GRADIENT NORM               0.000573686387 Eh/α |
          | HOMO-LUMO GAP               1.071542016170 eV   |
           -------------------------------------------------

------------------------------------------------------------------------
 * finished run on 2022/02/10 at 19:29:22.635     
------------------------------------------------------------------------
 total:
 * wall-time:     0 d,  0 h,  0 min, 19.750 sec
 *  cpu-time:     0 d,  0 h,  2 min, 37.895 sec
 * ratio c/w:     7.995 speedup
 SCF:
 * wall-time:     0 d,  0 h,  0 min,  0.352 sec
 *  cpu-time:     0 d,  0 h,  0 min,  2.811 sec
 * ratio c/w:     7.978 speedup
 ANC optimizer:
 * wall-time:     0 d,  0 h,  0 min, 19.333 sec
 *  cpu-time:     0 d,  0 h,  2 min, 34.641 sec
 * ratio c/w:     7.999 speedup

