      -----------------------------------------------------------      
     |                   =====================                   |     
     |                           x T B                           |     
     |                   =====================                   |     
     |                         S. Grimme                         |     
     |          Mulliken Center for Theoretical Chemistry        |     
     |                    University of Bonn                     |     
      -----------------------------------------------------------      

   * xtb version 6.4.1 (unknown) compiled by 'oda6@login1.crc.pitt.edu' on 2021-06-25

   xtb is free software: you can redistribute it and/or modify it under
   the terms of the GNU Lesser General Public License as published by
   the Free Software Foundation, either version 3 of the License, or
   (at your option) any later version.
   
   xtb is distributed in the hope that it will be useful,
   but WITHOUT ANY WARRANTY; without even the implied warranty of
   MERCHANTABILITY or FITNESS FOR A PARTICULAR PURPOSE.  See the
   GNU Lesser General Public License for more details.
   
   Cite this work as:
   * C. Bannwarth, E. Caldeweyher, S. Ehlert, A. Hansen, P. Pracht,
     J. Seibert, S. Spicher, S. Grimme, WIREs Comput. Mol. Sci., 2020, 11,
     e01493. DOI: 10.1002/wcms.1493
   
   for GFN2-xTB:
   * C. Bannwarth, S. Ehlert and S. Grimme., J. Chem. Theory Comput., 2019,
     15, 1652-1671. DOI: 10.1021/acs.jctc.8b01176
   for GFN1-xTB:
   * S. Grimme, C. Bannwarth, P. Shushkov, J. Chem. Theory Comput., 2017,
     13, 1989-2009. DOI: 10.1021/acs.jctc.7b00118
   for GFN0-xTB:
   * P. Pracht, E. Caldeweyher, S. Ehlert, S. Grimme, ChemRxiv, 2019, preprint.
     DOI: 10.26434/chemrxiv.8326202.v1
   for GFN-FF:
   * S. Spicher and S. Grimme, Angew. Chem. Int. Ed., 2020, 59, 15665-15673.
     DOI: 10.1002/anie.202004239
   
   for DFT-D4:
   * E. Caldeweyher, C. Bannwarth and S. Grimme, J. Chem. Phys., 2017,
     147, 034112. DOI: 10.1063/1.4993215
   * E. Caldeweyher, S. Ehlert, A. Hansen, H. Neugebauer, S. Spicher,
     C. Bannwarth and S. Grimme, J. Chem. Phys., 2019, 150, 154122.
     DOI: 10.1063/1.5090222
   * E. Caldeweyher, J.-M. Mewes, S. Ehlert and S. Grimme, Phys. Chem. Chem. Phys.
     2020, 22, 8499-8512. DOI: 10.1039/D0CP00502A
   
   for sTDA-xTB:
   * S. Grimme and C. Bannwarth, J. Chem. Phys., 2016, 145, 054103.
     DOI: 10.1063/1.4959605
   
   in the mass-spec context:
   * V. Asgeirsson, C. Bauer and S. Grimme, Chem. Sci., 2017, 8, 4879.
     DOI: 10.1039/c7sc00601b
   * J. Koopman and S. Grimme, ACS Omega 2019, 4, 12, 15120-15133.
     DOI: 10.1021/acsomega.9b02011
   
   for metadynamics refer to:
   * S. Grimme, J. Chem. Theory Comput., 2019, 155, 2847-2862
     DOI: 10.1021/acs.jctc.9b00143
   
   for SPH calculations refer to:
   * S. Spicher and S. Grimme, J. Chem. Theory Comput., 2021, 17, 1701-1714
     DOI: 10.1021/acs.jctc.0c01306
   
   with help from (in alphabetical order)
   P. Atkinson, C. Bannwarth, F. Bohle, G. Brandenburg, E. Caldeweyher
   M. Checinski, S. Dohm, S. Ehlert, S. Ehrlich, I. Gerasimov, J. Koopman
   C. Lavigne, S. Lehtola, F. März, M. Müller, F. Musil, H. Neugebauer
   J. Pisarek, C. Plett, P. Pracht, J. Seibert, P. Shushkov, S. Spicher
   M. Stahn, M. Steiner, T. Strunk, J. Stückrath, T. Rose, and J. Unsleber
   
 * started run on 2022/02/01 at 18:21:44.624     

           -------------------------------------------------
          |                Calculation Setup                |
           -------------------------------------------------

          program call               : /ihome/ghutchison/oda6/xtb/xtb-641/bin/xtb ../../FF_optimized/28_133_0.mol -opt
          hostname                   : smp-n66
          coordinate file            : ../../FF_optimized/28_133_0.mol
          omp threads                :                     8
          number of atoms            :                    97
          number of electrons        :                   338
          charge                     :                     0
          spin                       :                   0.0
          first test random number   :      0.53406638670510

   ID    Z sym.   atoms
    1    6 C      1-3, 5-7, 9-14, 16, 18-22, 24-27, 31, 32, 34-38, 40, 41,
                  43, 44, 46, 47, 49-55, 57-59, 61, 63-67, 69
    2    8 O      4, 56
    3    9 F      8, 60, 62
    4    7 N      15, 17, 28, 30, 42, 45, 68, 70
    5   16 S      23, 33, 39, 48
    6   34 Se     29
    7    1 H      71-97
########################################################################
[WARNING] Please study the warnings concerning your input carefully
-1- prog_main_parseArguments: the use of '-opt' is discouraged, please use '--opt' next time
########################################################################

           -------------------------------------------------
          |                 G F N 2 - x T B                 |
           -------------------------------------------------

        Reference                      10.1021/acs.jctc.8b01176
      * Hamiltonian:
        H0-scaling (s, p, d)           1.850000    2.230000    2.230000
        zeta-weighting                 0.500000
      * Dispersion:
        s8                             2.700000
        a1                             0.520000
        a2                             5.000000
        s9                             5.000000
      * Repulsion:
        kExp                           1.500000    1.000000
        rExp                           1.000000
      * Coulomb:
        alpha                          2.000000
        third order                    shell-resolved
        anisotropic                    true
        a3                             3.000000
        a5                             4.000000
        cn-shift                       1.200000
        cn-exp                         4.000000
        max-rad                        5.000000


          ...................................................
          :                      SETUP                      :
          :.................................................:
          :  # basis functions                 337          :
          :  # atomic orbitals                 332          :
          :  # shells                          172          :
          :  # electrons                       338          :
          :  max. iterations                   250          :
          :  Hamiltonian                  GFN2-xTB          :
          :  restarted?                      false          :
          :  GBSA solvation                  false          :
          :  PC potential                    false          :
          :  electronic temp.          300.0000000     K    :
          :  accuracy                    1.0000000          :
          :  -> integral cutoff          0.2500000E+02      :
          :  -> integral neglect         0.1000000E-07      :
          :  -> SCF convergence          0.1000000E-05 Eh   :
          :  -> wf. convergence          0.1000000E-03 e    :
          :  Broyden damping             0.4000000          :
          ...................................................

 iter      E             dE          RMSdq      gap      omega  full diag
   1   -188.7874747 -0.188787E+03  0.542E+00    0.53       0.0  T
   2   -188.6677413  0.119733E+00  0.360E+00    0.59       1.0  T
   3   -185.3968438  0.327090E+01  0.439E+00    0.31       1.0  T
   4   -185.9219804 -0.525137E+00  0.358E+00    0.20       1.0  T
   5   -188.2301143 -0.230813E+01  0.240E+00    0.05       1.0  T
   6   -188.7786719 -0.548558E+00  0.147E+00    0.12       1.0  T
   7   -189.0414098 -0.262738E+00  0.986E-01    0.75       1.0  T
   8   -189.1750957 -0.133686E+00  0.588E-01    0.46       1.0  T
   9   -189.1770766 -0.198083E-02  0.528E-01    0.52       1.0  T
  10   -189.1905813 -0.135047E-01  0.455E-01    0.49       1.0  T
  11   -189.1858060  0.477525E-02  0.341E-01    0.40       1.0  T
  12   -189.1813901  0.441599E-02  0.368E-01    0.11       1.0  T
  13   -189.2031165 -0.217264E-01  0.154E-01    0.26       1.0  T
  14   -189.1987084  0.440810E-02  0.143E-01    0.15       1.0  T
  15   -189.2043033 -0.559492E-02  0.596E-02    0.22       1.0  T
  16   -189.2049123 -0.609016E-03  0.359E-02    0.28       1.0  T
  17   -189.2050788 -0.166422E-03  0.303E-02    0.32       1.0  T
  18   -189.2051192 -0.404319E-04  0.187E-02    0.34       1.0  T
  19   -189.2051348 -0.155711E-04  0.969E-03    0.37       1.0  T
  20   -189.2051376 -0.281988E-05  0.364E-03    0.38       2.8  T
  21   -189.2051379 -0.348532E-06  0.253E-03    0.38       4.0  T
  22   -189.2051381 -0.164819E-06  0.198E-03    0.38       5.1  T
  23   -189.2051384 -0.266742E-06  0.156E-03    0.38       6.5  T
  24   -189.2051385 -0.162532E-06  0.129E-03    0.38       7.9  T
  25   -189.2051387 -0.124183E-06  0.100E-03    0.38      10.2  T
  26   -189.2051387 -0.762587E-07  0.798E-04    0.38      12.7  T

   *** convergence criteria satisfied after 26 iterations ***

         #    Occupation            Energy/Eh            Energy/eV
      -------------------------------------------------------------
         1        2.0000           -0.8566529             -23.3107
       ...           ...                  ...                  ...
       163        2.0000           -0.4197127             -11.4210
       164        2.0000           -0.4174027             -11.3581
       165        2.0000           -0.4103600             -11.1665
       166        2.0000           -0.3981453             -10.8341
       167        2.0000           -0.3949726             -10.7478
       168        2.0000           -0.3878661             -10.5544
       169        1.9986           -0.3814376             -10.3794 (HOMO)
       170        0.0014           -0.3676322             -10.0038 (LUMO)
       171        0.0000           -0.3642478              -9.9117
       172                         -0.3506264              -9.5410
       173                         -0.3379211              -9.1953
       174                         -0.3238009              -8.8111
       ...                                ...                  ...
       332                          1.8755550              51.0364
      -------------------------------------------------------------
                  HL-Gap            0.0138054 Eh            0.3757 eV
             Fermi-level           -0.3745476 Eh          -10.1920 eV

 SCC (total)                   0 d,  0 h,  0 min,  0.366 sec
 SCC setup                      ...        0 min,  0.001 sec (  0.151%)
 Dispersion                     ...        0 min,  0.003 sec (  0.897%)
 classical contributions        ...        0 min,  0.000 sec (  0.029%)
 integral evaluation            ...        0 min,  0.017 sec (  4.587%)
 iterations                     ...        0 min,  0.313 sec ( 85.631%)
 molecular gradient             ...        0 min,  0.031 sec (  8.465%)
 printout                       ...        0 min,  0.001 sec (  0.219%)

         :::::::::::::::::::::::::::::::::::::::::::::::::::::
         ::                     SUMMARY                     ::
         :::::::::::::::::::::::::::::::::::::::::::::::::::::
         :: total energy            -186.321022510287 Eh    ::
         :: gradient norm              1.025987138434 Eh/a0 ::
         :: HOMO-LUMO gap              0.375663648118 eV    ::
         ::.................................................::
         :: SCC energy              -189.205138730150 Eh    ::
         :: -> isotropic ES            0.149526335676 Eh    ::
         :: -> anisotropic ES          0.011775965703 Eh    ::
         :: -> anisotropic XC          0.109924151836 Eh    ::
         :: -> dispersion             -0.163011033944 Eh    ::
         :: repulsion energy           2.883406419321 Eh    ::
         :: add. restraining           0.000000000000 Eh    ::
         :: total charge               0.000000000018 e     ::
         :::::::::::::::::::::::::::::::::::::::::::::::::::::

      ----------------------------------------------------------- 
     |                   =====================                   |
     |                        A N C O P T                        |
     |                   =====================                   |
     |               Approximate Normal Coordinate               |
     |                Rational Function Optimizer                |
      ----------------------------------------------------------- 

          ...................................................
          :                      SETUP                      :
          :.................................................:
          :   optimization level            normal          :
          :   max. optcycles                   291          :
          :   ANC micro-cycles                  20          :
          :   degrees of freedom               285          :
          :.................................................:
          :   RF solver                   davidson          :
          :   write xtbopt.log                true          :
          :   linear?                        false          :
          :   energy convergence         0.5000000E-05 Eh   :
          :   grad. convergence          0.1000000E-02 Eh/α :
          :   maximium RF displ.         1.0000000          :
          :   Hlow (freq-cutoff)         0.1000000E-01      :
          :   Hmax (freq-cutoff)         5.0000000          :
          :   S6 in model hess.         20.0000000          :
          ...................................................

generating ANC from model Hessian ...
Using Lindh-Hessian (1995)
 Shifting diagonal of input Hessian by   9.992065131312096E-003
 Lowest  eigenvalues of input Hessian
    0.000000    0.000000    0.000000    0.000000    0.000000    0.000000
    0.010000    0.010009    0.010082    0.010110    0.010195    0.010260
    0.010272    0.010500    0.010632    0.010875    0.010949    0.011240
 Highest eigenvalues
    2.303456    2.339621    2.419640    2.437810    2.494433    3.036580
 

........................................................................
.............................. CYCLE    1 ..............................
........................................................................
   1   -189.2051388 -0.189205E+03  0.529E-04    0.37       0.0  T
   2   -189.2051385  0.298870E-06  0.169E-03    0.37       6.0  T
   3   -189.2051388 -0.305652E-06  0.599E-04    0.37      16.9  T
   4   -189.2051388 -0.305171E-07  0.425E-04    0.37      23.9  T
     SCC iter.                  ...        0 min,  0.050 sec
     gradient                   ...        0 min,  0.030 sec
 * total energy  :  -186.3210226 Eh     change       -0.9911653E-07 Eh
   gradient norm :     1.0260066 Eh/α   predicted     0.0000000E+00 (-100.00%)
   displ. norm   :     0.5202464 α      lambda       -0.4518097E+00
   maximum displ.:     0.2228189 α      in ANC's #285, #170, #159, ...

........................................................................
.............................. CYCLE    2 ..............................
........................................................................
   1   -189.4344736 -0.189434E+03  0.563E-01    0.56       0.0  T
   2   -189.4334030  0.107061E-02  0.422E-01    0.59       1.0  T
   3   -189.4234032  0.999983E-02  0.424E-01    0.57       1.0  T
   4   -189.4384978 -0.150946E-01  0.189E-01    0.59       1.0  T
   5   -189.4413475 -0.284972E-02  0.540E-02    0.57       1.0  T
   6   -189.4415245 -0.177023E-03  0.277E-02    0.58       1.0  T
   7   -189.4415698 -0.452271E-04  0.137E-02    0.58       1.0  T
   8   -189.4415865 -0.166813E-04  0.506E-03    0.58       2.0  T
   9   -189.4415886 -0.212872E-05  0.249E-03    0.58       4.1  T
  10   -189.4415889 -0.326086E-06  0.142E-03    0.58       7.2  T
  11   -189.4415890 -0.808267E-07  0.738E-04    0.58      13.8  T
  12   -189.4415890 -0.399973E-07  0.280E-04    0.58      36.3  T
     SCC iter.                  ...        0 min,  0.140 sec
     gradient                   ...        0 min,  0.030 sec
 * total energy  :  -186.6521673 Eh     change       -0.3311447E+00 Eh
   gradient norm :     0.4661455 Eh/α   predicted    -0.2870949E+00 ( -13.30%)
   displ. norm   :     0.5999685 α      lambda       -0.2341355E+00
   maximum displ.:     0.1479424 α      in ANC's #285, #159, #170, ...

........................................................................
.............................. CYCLE    3 ..............................
........................................................................
   1   -189.6504046 -0.189650E+03  0.566E-01    0.69       0.0  T
   2   -189.6545450 -0.414034E-02  0.367E-01    0.65       1.0  T
   3   -189.6515285  0.301644E-02  0.235E-01    0.68       1.0  T
   4   -189.6540632 -0.253470E-02  0.156E-01    0.68       1.0  T
   5   -189.6564136 -0.235038E-02  0.394E-02    0.67       1.0  T
   6   -189.6564752 -0.615786E-04  0.201E-02    0.67       1.0  T
   7   -189.6565046 -0.293966E-04  0.780E-03    0.67       1.3  T
   8   -189.6565081 -0.345817E-05  0.373E-03    0.67       2.7  T
   9   -189.6565086 -0.586039E-06  0.182E-03    0.67       5.6  T
  10   -189.6565087 -0.925204E-07  0.112E-03    0.67       9.1  T
  11   -189.6565088 -0.625918E-07  0.414E-04    0.67      24.5  T
  12   -189.6565088 -0.694556E-08  0.216E-04    0.67      47.0  T
     SCC iter.                  ...        0 min,  0.141 sec
     gradient                   ...        0 min,  0.030 sec
 * total energy  :  -186.7757548 Eh     change       -0.1235875E+00 Eh
   gradient norm :     0.4284726 Eh/α   predicted    -0.1592078E+00 (  28.82%)
   displ. norm   :     0.5155822 α      lambda       -0.1372858E+00
   maximum displ.:     0.1347170 α      in ANC's #207, #170, #209, ...

........................................................................
.............................. CYCLE    4 ..............................
........................................................................
   1   -189.5929777 -0.189593E+03  0.432E-01    0.74       0.0  T
   2   -189.5939884 -0.101068E-02  0.294E-01    0.71       1.0  T
   3   -189.5938001  0.188246E-03  0.186E-01    0.75       1.0  T
   4   -189.5951884 -0.138828E-02  0.790E-02    0.72       1.0  T
   5   -189.5957854 -0.597026E-03  0.293E-02    0.73       1.0  T
   6   -189.5958470 -0.615362E-04  0.111E-02    0.73       1.0  T
   7   -189.5958518 -0.481178E-05  0.533E-03    0.73       1.9  T
   8   -189.5958533 -0.151606E-05  0.247E-03    0.73       4.1  T
   9   -189.5958535 -0.218566E-06  0.149E-03    0.73       6.8  T
  10   -189.5958537 -0.167255E-06  0.648E-04    0.73      15.7  T
  11   -189.5958537 -0.117626E-07  0.335E-04    0.73      30.3  T
     SCC iter.                  ...        0 min,  0.135 sec
     gradient                   ...        0 min,  0.030 sec
 * total energy  :  -186.8390479 Eh     change       -0.6329307E-01 Eh
   gradient norm :     0.1486192 Eh/α   predicted    -0.8688990E-01 (  37.28%)
   displ. norm   :     0.5310403 α      lambda       -0.3191082E-01
   maximum displ.:     0.1592917 α      in ANC's #65, #31, #23, ...

........................................................................
.............................. CYCLE    5 ..............................
........................................................................
   1   -189.5981360 -0.189598E+03  0.282E-01    0.75       0.0  T
   2   -189.5985499 -0.413860E-03  0.170E-01    0.75       1.0  T
   3   -189.5981326  0.417215E-03  0.961E-02    0.76       1.0  T
   4   -189.5986728 -0.540185E-03  0.376E-02    0.76       1.0  T
   5   -189.5988141 -0.141282E-03  0.138E-02    0.76       1.0  T
   6   -189.5988257 -0.116185E-04  0.566E-03    0.76       1.8  T
   7   -189.5988275 -0.173047E-05  0.281E-03    0.76       3.6  T
   8   -189.5988279 -0.470277E-06  0.130E-03    0.76       7.8  T
   9   -189.5988280 -0.180454E-07  0.771E-04    0.76      13.2  T
  10   -189.5988280 -0.246225E-07  0.332E-04    0.76      30.6  T
     SCC iter.                  ...        0 min,  0.117 sec
     gradient                   ...        0 min,  0.029 sec
 * total energy  :  -186.8620193 Eh     change       -0.2297138E-01 Eh
   gradient norm :     0.0646182 Eh/α   predicted    -0.2045493E-01 ( -10.95%)
   displ. norm   :     0.6512927 α      lambda       -0.1933830E-01
   maximum displ.:     0.1847005 α      in ANC's #31, #36, #47, ...

........................................................................
.............................. CYCLE    6 ..............................
........................................................................
   1   -189.6281950 -0.189628E+03  0.403E-01    0.74       0.0  T
   2   -189.6284286 -0.233596E-03  0.233E-01    0.77       1.0  T
   3   -189.6262278  0.220080E-02  0.143E-01    0.75       1.0  T
   4   -189.6287238 -0.249604E-02  0.271E-02    0.77       1.0  T
   5   -189.6287899 -0.660991E-04  0.118E-02    0.77       1.0  T
   6   -189.6287970 -0.704681E-05  0.519E-03    0.77       2.0  T
   7   -189.6287984 -0.140147E-05  0.238E-03    0.77       4.3  T
   8   -189.6287987 -0.340316E-06  0.109E-03    0.77       9.3  T
   9   -189.6287988 -0.533639E-07  0.584E-04    0.77      17.4  T
  10   -189.6287988 -0.143458E-07  0.226E-04    0.77      44.9  T
     SCC iter.                  ...        0 min,  0.110 sec
     gradient                   ...        0 min,  0.028 sec
 * total energy  :  -186.8724627 Eh     change       -0.1044344E-01 Eh
   gradient norm :     0.0558629 Eh/α   predicted    -0.1377065E-01 (  31.86%)
   displ. norm   :     0.6494018 α      lambda       -0.1329280E-01
   maximum displ.:     0.2180625 α      in ANC's #31, #36, #47, ...

........................................................................
.............................. CYCLE    7 ..............................
........................................................................
   1   -189.6271951 -0.189627E+03  0.393E-01    0.82       0.0  T
   2   -189.6273213 -0.126251E-03  0.224E-01    0.84       1.0  T
   3   -189.6250293  0.229208E-02  0.150E-01    0.78       1.0  T
   4   -189.6276261 -0.259682E-02  0.220E-02    0.84       1.0  T
   5   -189.6276646 -0.385398E-04  0.104E-02    0.83       1.0  T
   6   -189.6276692 -0.457625E-05  0.439E-03    0.83       2.3  T
   7   -189.6276702 -0.996638E-06  0.181E-03    0.83       5.6  T
   8   -189.6276704 -0.182607E-06  0.917E-04    0.83      11.1  T
   9   -189.6276704 -0.432731E-07  0.444E-04    0.83      22.9  T
     SCC iter.                  ...        0 min,  0.100 sec
     gradient                   ...        0 min,  0.028 sec
 * total energy  :  -186.8786229 Eh     change       -0.6160168E-02 Eh
   gradient norm :     0.0487918 Eh/α   predicted    -0.9449331E-02 (  53.39%)
   displ. norm   :     0.4330934 α      lambda       -0.6759155E-02
   maximum displ.:     0.1372916 α      in ANC's #31, #16, #35, ...

........................................................................
.............................. CYCLE    8 ..............................
........................................................................
   1   -189.6395948 -0.189640E+03  0.240E-01    0.82       0.0  T
   2   -189.6396865 -0.916683E-04  0.134E-01    0.85       1.0  T
   3   -189.6393863  0.300186E-03  0.602E-02    0.82       1.0  T
   4   -189.6397432 -0.356895E-03  0.109E-02    0.84       1.0  T
   5   -189.6397495 -0.625172E-05  0.566E-03    0.84       1.8  T
   6   -189.6397508 -0.133516E-05  0.251E-03    0.84       4.0  T
   7   -189.6397512 -0.361658E-06  0.952E-04    0.84      10.7  T
   8   -189.6397512 -0.449424E-07  0.442E-04    0.84      23.0  T
     SCC iter.                  ...        0 min,  0.091 sec
     gradient                   ...        0 min,  0.028 sec
 * total energy  :  -186.8829043 Eh     change       -0.4281389E-02 Eh
   gradient norm :     0.0232193 Eh/α   predicted    -0.4013481E-02 (  -6.26%)
   displ. norm   :     0.6052902 α      lambda       -0.5285280E-02
   maximum displ.:     0.2621005 α      in ANC's #10, #24, #4, ...

........................................................................
.............................. CYCLE    9 ..............................
........................................................................
   1   -189.6517004 -0.189652E+03  0.352E-01    0.80       0.0  T
   2   -189.6518434 -0.143008E-03  0.196E-01    0.84       1.0  T
   3   -189.6514479  0.395495E-03  0.658E-02    0.80       1.0  T
   4   -189.6519242 -0.476344E-03  0.124E-02    0.84       1.0  T
   5   -189.6519296 -0.539601E-05  0.797E-03    0.83       1.3  T
   6   -189.6519330 -0.333519E-05  0.268E-03    0.83       3.8  T
   7   -189.6519334 -0.448744E-06  0.105E-03    0.83       9.6  T
   8   -189.6519335 -0.473703E-07  0.497E-04    0.83      20.4  T
   9   -189.6519335 -0.105102E-07  0.266E-04    0.83      38.2  T
     SCC iter.                  ...        0 min,  0.100 sec
     gradient                   ...        0 min,  0.028 sec
 * total energy  :  -186.8853859 Eh     change       -0.2481638E-02 Eh
   gradient norm :     0.0401001 Eh/α   predicted    -0.3610834E-02 (  45.50%)
   displ. norm   :     0.5694913 α      lambda       -0.5540328E-02
   maximum displ.:     0.2399513 α      in ANC's #11, #4, #35, ...

........................................................................
.............................. CYCLE   10 ..............................
........................................................................
   1   -189.6634219 -0.189663E+03  0.258E-01    0.85       0.0  T
   2   -189.6634858 -0.639035E-04  0.147E-01    0.89       1.0  T
   3   -189.6624221  0.106370E-02  0.955E-02    0.83       1.0  T
   4   -189.6636192 -0.119707E-02  0.121E-02    0.88       1.0  T
   5   -189.6636274 -0.817768E-05  0.682E-03    0.87       1.5  T
   6   -189.6636297 -0.229842E-05  0.293E-03    0.87       3.5  T
   7   -189.6636300 -0.384133E-06  0.124E-03    0.87       8.2  T
   8   -189.6636302 -0.126387E-06  0.522E-04    0.87      19.5  T
   9   -189.6636302 -0.140662E-07  0.274E-04    0.87      37.1  T
     SCC iter.                  ...        0 min,  0.102 sec
     gradient                   ...        0 min,  0.028 sec
 * total energy  :  -186.8881552 Eh     change       -0.2769331E-02 Eh
   gradient norm :     0.0430701 Eh/α   predicted    -0.3668582E-02 (  32.47%)
   displ. norm   :     0.4360177 α      lambda       -0.3165813E-02
   maximum displ.:     0.1435635 α      in ANC's #4, #10, #6, ...

........................................................................
.............................. CYCLE   11 ..............................
........................................................................
   1   -189.6569860 -0.189657E+03  0.158E-01    0.88       0.0  T
   2   -189.6570091 -0.231548E-04  0.909E-02    0.91       1.0  T
   3   -189.6564904  0.518760E-03  0.644E-02    0.87       1.0  T
   4   -189.6570715 -0.581158E-03  0.828E-03    0.90       1.2  T
   5   -189.6570750 -0.348756E-05  0.447E-03    0.90       2.3  T
   6   -189.6570760 -0.982930E-06  0.228E-03    0.90       4.5  T
   7   -189.6570763 -0.294577E-06  0.928E-04    0.90      10.9  T
   8   -189.6570763 -0.551965E-07  0.413E-04    0.90      24.6  T
     SCC iter.                  ...        0 min,  0.091 sec
     gradient                   ...        0 min,  0.029 sec
 * total energy  :  -186.8900678 Eh     change       -0.1912525E-02 Eh
   gradient norm :     0.0325334 Eh/α   predicted    -0.1883837E-02 (  -1.50%)
   displ. norm   :     0.5717016 α      lambda       -0.3211619E-02
   maximum displ.:     0.2109779 α      in ANC's #4, #11, #24, ...

........................................................................
.............................. CYCLE   12 ..............................
........................................................................
   1   -189.6690285 -0.189669E+03  0.213E-01    0.90       0.0  T
   2   -189.6691014 -0.728549E-04  0.120E-01    0.93       1.0  T
   3   -189.6687016  0.399784E-03  0.601E-02    0.90       1.0  T
   4   -189.6691569 -0.455329E-03  0.106E-02    0.93       1.0  T
   5   -189.6691638 -0.684791E-05  0.602E-03    0.92       1.7  T
   6   -189.6691655 -0.176551E-05  0.239E-03    0.92       4.2  T
   7   -189.6691658 -0.248559E-06  0.110E-03    0.92       9.2  T
   8   -189.6691659 -0.851810E-07  0.510E-04    0.92      19.9  T
   9   -189.6691659 -0.127062E-07  0.276E-04    0.92      36.8  T
     SCC iter.                  ...        0 min,  0.101 sec
     gradient                   ...        0 min,  0.028 sec
 * total energy  :  -186.8917250 Eh     change       -0.1657282E-02 Eh
   gradient norm :     0.0320576 Eh/α   predicted    -0.2130658E-02 (  28.56%)
   displ. norm   :     0.5901688 α      lambda       -0.2966632E-02
   maximum displ.:     0.2398541 α      in ANC's #11, #10, #4, ...

........................................................................
.............................. CYCLE   13 ..............................
........................................................................
   1   -189.6565854 -0.189657E+03  0.232E-01    0.90       0.0  T
   2   -189.6566332 -0.478042E-04  0.132E-01    0.92       1.0  T
   3   -189.6560446  0.588578E-03  0.757E-02    0.91       1.0  T
   4   -189.6567012 -0.656627E-03  0.112E-02    0.92       1.0  T
   5   -189.6567090 -0.781671E-05  0.620E-03    0.92       1.6  T
   6   -189.6567109 -0.183854E-05  0.218E-03    0.92       4.6  T
   7   -189.6567112 -0.302432E-06  0.930E-04    0.92      10.9  T
   8   -189.6567112 -0.421932E-07  0.429E-04    0.92      23.6  T
     SCC iter.                  ...        0 min,  0.089 sec
     gradient                   ...        0 min,  0.028 sec
 * total energy  :  -186.8934676 Eh     change       -0.1742536E-02 Eh
   gradient norm :     0.0444416 Eh/α   predicted    -0.1999955E-02 (  14.77%)
   displ. norm   :     0.5010261 α      lambda       -0.2880282E-02
   maximum displ.:     0.1912517 α      in ANC's #4, #11, #6, ...

........................................................................
.............................. CYCLE   14 ..............................
........................................................................
   1   -189.6724235 -0.189672E+03  0.189E-01    0.91       0.0  T
   2   -189.6724777 -0.542198E-04  0.107E-01    0.91       1.0  T
   3   -189.6723590  0.118749E-03  0.407E-02    0.92       1.0  T
   4   -189.6725030 -0.143972E-03  0.637E-03    0.91       1.6  T
   5   -189.6725036 -0.618413E-06  0.425E-03    0.91       2.4  T
   6   -189.6725048 -0.122966E-05  0.183E-03    0.91       5.6  T
   7   -189.6725049 -0.131769E-06  0.814E-04    0.91      12.5  T
   8   -189.6725050 -0.472670E-07  0.288E-04    0.91      35.3  T
     SCC iter.                  ...        0 min,  0.090 sec
     gradient                   ...        0 min,  0.028 sec
 * total energy  :  -186.8947875 Eh     change       -0.1319914E-02 Eh
   gradient norm :     0.0318912 Eh/α   predicted    -0.1801656E-02 (  36.50%)
   displ. norm   :     0.5116648 α      lambda       -0.2405754E-02
   maximum displ.:     0.2344289 α      in ANC's #4, #11, #6, ...

........................................................................
.............................. CYCLE   15 ..............................
........................................................................
   1   -189.6721831 -0.189672E+03  0.153E-01    0.93       0.0  T
   2   -189.6722170 -0.339099E-04  0.875E-02    0.93       1.0  T
   3   -189.6720142  0.202840E-03  0.440E-02    0.92       1.0  T
   4   -189.6722423 -0.228112E-03  0.778E-03    0.93       1.3  T
   5   -189.6722458 -0.346405E-05  0.420E-03    0.93       2.4  T
   6   -189.6722467 -0.887162E-06  0.173E-03    0.93       5.9  T
   7   -189.6722468 -0.144952E-06  0.712E-04    0.93      14.3  T
   8   -189.6722469 -0.451003E-07  0.317E-04    0.93      32.1  T
     SCC iter.                  ...        0 min,  0.089 sec
     gradient                   ...        0 min,  0.028 sec
 * total energy  :  -186.8963984 Eh     change       -0.1610865E-02 Eh
   gradient norm :     0.0256988 Eh/α   predicted    -0.1517797E-02 (  -5.78%)
   displ. norm   :     0.5860411 α      lambda       -0.2003659E-02
   maximum displ.:     0.2643112 α      in ANC's #4, #10, #6, ...

........................................................................
.............................. CYCLE   16 ..............................
........................................................................
   1   -189.6640404 -0.189664E+03  0.181E-01    0.93       0.0  T
   2   -189.6640693 -0.289178E-04  0.103E-01    0.94       1.0  T
   3   -189.6637457  0.323651E-03  0.538E-02    0.92       1.0  T
   4   -189.6641053 -0.359668E-03  0.846E-03    0.94       1.2  T
   5   -189.6641099 -0.453306E-05  0.427E-03    0.93       2.4  T
   6   -189.6641105 -0.648725E-06  0.151E-03    0.93       6.7  T
   7   -189.6641107 -0.140143E-06  0.560E-04    0.93      18.1  T
   8   -189.6641107 -0.123341E-07  0.314E-04    0.93      32.4  T
     SCC iter.                  ...        0 min,  0.089 sec
     gradient                   ...        0 min,  0.028 sec
 * total energy  :  -186.8977049 Eh     change       -0.1306501E-02 Eh
   gradient norm :     0.0219690 Eh/α   predicted    -0.1345906E-02 (   3.02%)
   displ. norm   :     0.5491337 α      lambda       -0.1581753E-02
   maximum displ.:     0.2714598 α      in ANC's #4, #11, #6, ...

........................................................................
.............................. CYCLE   17 ..............................
........................................................................
   1   -189.6674456 -0.189667E+03  0.145E-01    0.95       0.0  T
   2   -189.6674677 -0.220856E-04  0.826E-02    0.94       1.0  T
   3   -189.6672945  0.173228E-03  0.421E-02    0.95       1.0  T
   4   -189.6674903 -0.195757E-03  0.614E-03    0.94       1.7  T
   5   -189.6674916 -0.137613E-05  0.359E-03    0.94       2.8  T
   6   -189.6674923 -0.636517E-06  0.124E-03    0.94       8.2  T
   7   -189.6674924 -0.113295E-06  0.534E-04    0.94      19.0  T
   8   -189.6674924 -0.230957E-07  0.236E-04    0.94      43.0  T
     SCC iter.                  ...        0 min,  0.088 sec
     gradient                   ...        0 min,  0.028 sec
 * total energy  :  -186.8989308 Eh     change       -0.1225902E-02 Eh
   gradient norm :     0.0226655 Eh/α   predicted    -0.1029366E-02 ( -16.03%)
   displ. norm   :     0.5603083 α      lambda       -0.1761917E-02
   maximum displ.:     0.2838384 α      in ANC's #4, #6, #5, ...

........................................................................
.............................. CYCLE   18 ..............................
........................................................................
   1   -189.6815149 -0.189682E+03  0.150E-01    0.95       0.0  T
   2   -189.6815359 -0.209491E-04  0.864E-02    0.93       1.0  T
   3   -189.6812295  0.306411E-03  0.519E-02    0.95       1.0  T
   4   -189.6815708 -0.341369E-03  0.715E-03    0.94       1.4  T
   5   -189.6815738 -0.300013E-05  0.387E-03    0.94       2.6  T
   6   -189.6815745 -0.633579E-06  0.153E-03    0.94       6.7  T
   7   -189.6815746 -0.118338E-06  0.594E-04    0.94      17.1  T
   8   -189.6815746 -0.199892E-07  0.292E-04    0.94      34.8  T
     SCC iter.                  ...        0 min,  0.088 sec
     gradient                   ...        0 min,  0.028 sec
 * total energy  :  -186.9001821 Eh     change       -0.1251294E-02 Eh
   gradient norm :     0.0192085 Eh/α   predicted    -0.1157538E-02 (  -7.49%)
   displ. norm   :     0.6913475 α      lambda       -0.1499167E-02
   maximum displ.:     0.3448319 α      in ANC's #4, #5, #6, ...

........................................................................
.............................. CYCLE   19 ..............................
........................................................................
   1   -189.6716178 -0.189672E+03  0.169E-01    0.93       0.0  T
   2   -189.6716518 -0.339972E-04  0.960E-02    0.93       1.0  T
   3   -189.6715278  0.123973E-03  0.384E-02    0.94       1.0  T
   4   -189.6716736 -0.145767E-03  0.735E-03    0.93       1.4  T
   5   -189.6716760 -0.239939E-05  0.418E-03    0.93       2.4  T
   6   -189.6716769 -0.885959E-06  0.145E-03    0.93       7.0  T
   7   -189.6716770 -0.119423E-06  0.621E-04    0.93      16.4  T
   8   -189.6716770 -0.192292E-07  0.296E-04    0.93      34.3  T
     SCC iter.                  ...        0 min,  0.092 sec
     gradient                   ...        0 min,  0.028 sec
 * total energy  :  -186.9012313 Eh     change       -0.1049274E-02 Eh
   gradient norm :     0.0193223 Eh/α   predicted    -0.1107861E-02 (   5.58%)
   displ. norm   :     0.5729135 α      lambda       -0.1320270E-02
   maximum displ.:     0.3041353 α      in ANC's #4, #5, #6, ...

........................................................................
.............................. CYCLE   20 ..............................
........................................................................
   1   -189.6821939 -0.189682E+03  0.139E-01    0.94       0.0  T
   2   -189.6822214 -0.275630E-04  0.796E-02    0.92       1.0  T
   3   -189.6820759  0.145509E-03  0.396E-02    0.94       1.0  T
   4   -189.6822428 -0.166812E-03  0.713E-03    0.92       1.4  T
   5   -189.6822463 -0.352054E-05  0.389E-03    0.92       2.6  T
   6   -189.6822471 -0.781789E-06  0.154E-03    0.92       6.6  T
   7   -189.6822472 -0.119370E-06  0.557E-04    0.92      18.2  T
   8   -189.6822472 -0.107178E-07  0.294E-04    0.92      34.6  T
     SCC iter.                  ...        0 min,  0.088 sec
     gradient                   ...        0 min,  0.027 sec
 * total energy  :  -186.9020742 Eh     change       -0.8428678E-03 Eh
   gradient norm :     0.0256699 Eh/α   predicted    -0.8768134E-03 (   4.03%)
   displ. norm   :     0.5633495 α      lambda       -0.1407095E-02
   maximum displ.:     0.3026388 α      in ANC's #4, #5, #6, ...
 * RMSD in coord.:     0.7984600 α      energy gain  -0.5810517E+00 Eh

generating ANC from model Hessian ...
Using Lindh-Hessian (1995)
 Shifting diagonal of input Hessian by   1.079813382202013E-002
 Lowest  eigenvalues of input Hessian
    0.010000    0.000000    0.000000    0.000000    0.000000    0.000000
    0.000000    0.010812    0.010822    0.010925    0.010969    0.011063
    0.011103    0.011120    0.011405    0.011745    0.011781    0.011994
 Highest eigenvalues
    2.281833    2.294011    2.590816    2.609456    2.643056    2.644470
 

........................................................................
.............................. CYCLE   21 ..............................
........................................................................
   1   -189.6772070 -0.189677E+03  0.142E-01    0.92       0.0  T
   2   -189.6772314 -0.244152E-04  0.816E-02    0.92       1.0  T
   3   -189.6771170  0.114432E-03  0.353E-02    0.92       1.0  T
   4   -189.6772469 -0.129918E-03  0.664E-03    0.92       1.5  T
   5   -189.6772492 -0.224786E-05  0.342E-03    0.92       3.0  T
   6   -189.6772498 -0.633675E-06  0.140E-03    0.92       7.3  T
   7   -189.6772499 -0.133796E-06  0.586E-04    0.92      17.3  T
   8   -189.6772500 -0.221737E-07  0.250E-04    0.92      40.6  T
     SCC iter.                  ...        0 min,  0.089 sec
     gradient                   ...        0 min,  0.028 sec
 * total energy  :  -186.9028971 Eh     change       -0.8229277E-03 Eh
   gradient norm :     0.0242645 Eh/α   predicted     0.0000000E+00 (-100.00%)
   displ. norm   :     0.1599623 α      lambda       -0.7656798E-03
   maximum displ.:     0.0645460 α      in ANC's #8, #33, #20, ...

........................................................................
.............................. CYCLE   22 ..............................
........................................................................
   1   -189.6822229 -0.189682E+03  0.902E-02    0.92       0.0  T
   2   -189.6822361 -0.131971E-04  0.503E-02    0.92       1.0  T
   3   -189.6822236  0.124737E-04  0.131E-02    0.92       1.0  T
   4   -189.6822404 -0.167410E-04  0.357E-03    0.92       2.8  T
   5   -189.6822409 -0.535487E-06  0.210E-03    0.92       4.8  T
   6   -189.6822412 -0.252810E-06  0.776E-04    0.92      13.1  T
   7   -189.6822412 -0.265476E-07  0.380E-04    0.92      26.7  T
     SCC iter.                  ...        0 min,  0.078 sec
     gradient                   ...        0 min,  0.028 sec
 * total energy  :  -186.9034131 Eh     change       -0.5159573E-03 Eh
   gradient norm :     0.0071192 Eh/α   predicted    -0.3927311E-03 ( -23.88%)
   displ. norm   :     0.2925977 α      lambda       -0.7110466E-03
   maximum displ.:     0.1417859 α      in ANC's #8, #5, #20, ...

........................................................................
.............................. CYCLE   23 ..............................
........................................................................
   1   -189.6873364 -0.189687E+03  0.997E-02    0.92       0.0  T
   2   -189.6873489 -0.125232E-04  0.565E-02    0.93       1.0  T
   3   -189.6872841  0.648105E-04  0.250E-02    0.92       1.0  T
   4   -189.6873574 -0.732655E-04  0.470E-03    0.93       2.2  T
   5   -189.6873585 -0.114813E-05  0.280E-03    0.93       3.6  T
   6   -189.6873589 -0.401959E-06  0.990E-04    0.93      10.3  T
   7   -189.6873590 -0.601325E-07  0.440E-04    0.93      23.1  T
     SCC iter.                  ...        0 min,  0.078 sec
     gradient                   ...        0 min,  0.028 sec
 * total energy  :  -186.9038164 Eh     change       -0.4032872E-03 Eh
   gradient norm :     0.0178956 Eh/α   predicted    -0.3859621E-03 (  -4.30%)
   displ. norm   :     0.3996600 α      lambda       -0.7746747E-03
   maximum displ.:     0.1978040 α      in ANC's #8, #5, #4, ...

........................................................................
.............................. CYCLE   24 ..............................
........................................................................
   1   -189.6859883 -0.189686E+03  0.156E-01    0.93       0.0  T
   2   -189.6860142 -0.259168E-04  0.871E-02    0.93       1.0  T
   3   -189.6859129  0.101243E-03  0.321E-02    0.92       1.0  T
   4   -189.6860314 -0.118457E-03  0.546E-03    0.93       1.9  T
   5   -189.6860325 -0.108422E-05  0.356E-03    0.93       2.9  T
   6   -189.6860332 -0.689430E-06  0.116E-03    0.93       8.8  T
   7   -189.6860333 -0.105192E-06  0.415E-04    0.93      24.5  T
   8   -189.6860333 -0.827052E-08  0.217E-04    0.93      46.9  T
     SCC iter.                  ...        0 min,  0.089 sec
     gradient                   ...        0 min,  0.029 sec
 * total energy  :  -186.9042841 Eh     change       -0.4677572E-03 Eh
   gradient norm :     0.0220035 Eh/α   predicted    -0.4492139E-03 (  -3.96%)
   displ. norm   :     0.4485308 α      lambda       -0.9329385E-03
   maximum displ.:     0.2216999 α      in ANC's #8, #5, #4, ...

........................................................................
.............................. CYCLE   25 ..............................
........................................................................
   1   -189.6836936 -0.189684E+03  0.154E-01    0.93       0.0  T
   2   -189.6837186 -0.250830E-04  0.863E-02    0.94       1.0  T
   3   -189.6836641  0.544989E-04  0.247E-02    0.93       1.0  T
   4   -189.6837308 -0.666566E-04  0.532E-03    0.94       1.9  T
   5   -189.6837317 -0.887927E-06  0.353E-03    0.94       2.9  T
   6   -189.6837325 -0.857232E-06  0.101E-03    0.94      10.1  T
   7   -189.6837326 -0.473652E-07  0.416E-04    0.94      24.4  T
   8   -189.6837326 -0.129109E-07  0.186E-04    0.94      54.5  T
     SCC iter.                  ...        0 min,  0.090 sec
     gradient                   ...        0 min,  0.028 sec
 * total energy  :  -186.9048675 Eh     change       -0.5833714E-03 Eh
   gradient norm :     0.0170416 Eh/α   predicted    -0.5603175E-03 (  -3.95%)
   displ. norm   :     0.4450512 α      lambda       -0.9979422E-03
   maximum displ.:     0.2276639 α      in ANC's #8, #5, #4, ...

........................................................................
.............................. CYCLE   26 ..............................
........................................................................
   1   -189.6848198 -0.189685E+03  0.109E-01    0.94       0.0  T
   2   -189.6848342 -0.143719E-04  0.618E-02    0.94       1.0  T
   3   -189.6847878  0.464508E-04  0.208E-02    0.93       1.0  T
   4   -189.6848409 -0.531582E-04  0.490E-03    0.94       2.1  T
   5   -189.6848422 -0.132026E-05  0.269E-03    0.94       3.8  T
   6   -189.6848426 -0.370941E-06  0.104E-03    0.94       9.8  T
   7   -189.6848427 -0.616809E-07  0.428E-04    0.94      23.7  T
   8   -189.6848427 -0.125648E-07  0.157E-04    0.94      64.6  T
     SCC iter.                  ...        0 min,  0.091 sec
     gradient                   ...        0 min,  0.028 sec
 * total energy  :  -186.9055894 Eh     change       -0.7219042E-03 Eh
   gradient norm :     0.0171644 Eh/α   predicted    -0.5978025E-03 ( -17.19%)
   displ. norm   :     0.5313683 α      lambda       -0.9934522E-03
   maximum displ.:     0.2760527 α      in ANC's #8, #5, #4, ...

........................................................................
.............................. CYCLE   27 ..............................
........................................................................
   1   -189.6797368 -0.189680E+03  0.150E-01    0.94       0.0  T
   2   -189.6797601 -0.232706E-04  0.845E-02    0.94       1.0  T
   3   -189.6796713  0.888107E-04  0.342E-02    0.94       1.0  T
   4   -189.6797776 -0.106286E-03  0.488E-03    0.94       2.1  T
   5   -189.6797776 -0.204489E-07  0.363E-03    0.94       2.8  T
   6   -189.6797785 -0.926721E-06  0.113E-03    0.94       9.0  T
   7   -189.6797786 -0.943552E-07  0.436E-04    0.94      23.3  T
   8   -189.6797786 -0.133300E-07  0.194E-04    0.94      52.4  T
     SCC iter.                  ...        0 min,  0.089 sec
     gradient                   ...        0 min,  0.029 sec
 * total energy  :  -186.9063273 Eh     change       -0.7378511E-03 Eh
   gradient norm :     0.0172557 Eh/α   predicted    -0.6369789E-03 ( -13.67%)
   displ. norm   :     0.5492546 α      lambda       -0.1086770E-02
   maximum displ.:     0.2749212 α      in ANC's #8, #5, #4, ...

........................................................................
.............................. CYCLE   28 ..............................
........................................................................
   1   -189.6876167 -0.189688E+03  0.108E-01    0.94       0.0  T
   2   -189.6876299 -0.132032E-04  0.628E-02    0.93       1.0  T
   3   -189.6875065  0.123385E-03  0.344E-02    0.94       1.0  T
   4   -189.6876411 -0.134534E-03  0.607E-03    0.93       1.7  T
   5   -189.6876445 -0.339991E-05  0.295E-03    0.93       3.4  T
   6   -189.6876450 -0.544287E-06  0.117E-03    0.93       8.7  T
   7   -189.6876451 -0.439616E-07  0.553E-04    0.93      18.4  T
   8   -189.6876451 -0.198333E-07  0.238E-04    0.93      42.6  T
     SCC iter.                  ...        0 min,  0.090 sec
     gradient                   ...        0 min,  0.027 sec
 * total energy  :  -186.9069235 Eh     change       -0.5962227E-03 Eh
   gradient norm :     0.0219019 Eh/α   predicted    -0.7073135E-03 (  18.63%)
   displ. norm   :     0.6646832 α      lambda       -0.1169671E-02
   maximum displ.:     0.3248624 α      in ANC's #8, #4, #5, ...

........................................................................
.............................. CYCLE   29 ..............................
........................................................................
   1   -189.6777218 -0.189678E+03  0.185E-01    0.94       0.0  T
   2   -189.6777561 -0.342948E-04  0.104E-01    0.93       1.0  T
   3   -189.6775349  0.221232E-03  0.481E-02    0.94       1.0  T
   4   -189.6777875 -0.252658E-03  0.611E-03    0.93       1.7  T
   5   -189.6777876 -0.103180E-06  0.408E-03    0.93       2.5  T
   6   -189.6777885 -0.909769E-06  0.181E-03    0.93       5.6  T
   7   -189.6777887 -0.191359E-06  0.685E-04    0.93      14.8  T
   8   -189.6777888 -0.427645E-07  0.272E-04    0.93      37.3  T
     SCC iter.                  ...        0 min,  0.091 sec
     gradient                   ...        0 min,  0.028 sec
 * total energy  :  -186.9076112 Eh     change       -0.6876944E-03 Eh
   gradient norm :     0.0210266 Eh/α   predicted    -0.8432200E-03 (  22.62%)
   displ. norm   :     0.2945080 α      lambda       -0.9557973E-03
   maximum displ.:     0.1179087 α      in ANC's #2, #8, #4, ...

........................................................................
.............................. CYCLE   30 ..............................
........................................................................
   1   -189.6890860 -0.189689E+03  0.117E-01    0.94       0.0  T
   2   -189.6891154 -0.293939E-04  0.658E-02    0.93       1.0  T
   3   -189.6890275  0.878653E-04  0.288E-02    0.94       1.0  T
   4   -189.6891261 -0.985801E-04  0.622E-03    0.93       1.6  T
   5   -189.6891290 -0.291844E-05  0.279E-03    0.93       3.6  T
   6   -189.6891295 -0.471514E-06  0.126E-03    0.93       8.1  T
   7   -189.6891295 -0.510081E-07  0.566E-04    0.93      17.9  T
   8   -189.6891295 -0.246632E-07  0.225E-04    0.93      45.1  T
     SCC iter.                  ...        0 min,  0.090 sec
     gradient                   ...        0 min,  0.028 sec
 * total energy  :  -186.9078654 Eh     change       -0.2541842E-03 Eh
   gradient norm :     0.0359290 Eh/α   predicted    -0.5193504E-03 ( 104.32%)
   displ. norm   :     0.3779801 α      lambda       -0.1227171E-02
   maximum displ.:     0.1547758 α      in ANC's #8, #2, #5, ...

........................................................................
.............................. CYCLE   31 ..............................
........................................................................
   1   -189.6942970 -0.189694E+03  0.909E-02    0.93       0.0  T
   2   -189.6943161 -0.190945E-04  0.516E-02    0.93       1.0  T
   3   -189.6942832  0.328454E-04  0.199E-02    0.93       1.0  T
   4   -189.6943229 -0.396853E-04  0.355E-03    0.93       2.9  T
   5   -189.6943233 -0.406417E-06  0.209E-03    0.93       4.9  T
   6   -189.6943236 -0.233136E-06  0.101E-03    0.93      10.0  T
   7   -189.6943236 -0.445600E-07  0.465E-04    0.93      21.8  T
   8   -189.6943236 -0.137171E-07  0.177E-04    0.93      57.3  T
     SCC iter.                  ...        0 min,  0.089 sec
     gradient                   ...        0 min,  0.027 sec
 * total energy  :  -186.9084717 Eh     change       -0.6063321E-03 Eh
   gradient norm :     0.0139690 Eh/α   predicted    -0.7012487E-03 (  15.65%)
   displ. norm   :     0.5715794 α      lambda       -0.7039045E-03
   maximum displ.:     0.2703122 α      in ANC's #8, #2, #5, ...

........................................................................
.............................. CYCLE   32 ..............................
........................................................................
   1   -189.6820668 -0.189682E+03  0.147E-01    0.93       0.0  T
   2   -189.6820834 -0.166290E-04  0.833E-02    0.93       1.0  T
   3   -189.6819967  0.866458E-04  0.310E-02    0.93       1.0  T
   4   -189.6820968 -0.100029E-03  0.463E-03    0.93       2.2  T
   5   -189.6820968 -0.355220E-07  0.330E-03    0.92       3.1  T
   6   -189.6820976 -0.784802E-06  0.104E-03    0.93       9.8  T
   7   -189.6820977 -0.762309E-07  0.430E-04    0.93      23.6  T
   8   -189.6820977 -0.149666E-07  0.196E-04    0.93      51.9  T
     SCC iter.                  ...        0 min,  0.090 sec
     gradient                   ...        0 min,  0.028 sec
 * total energy  :  -186.9089216 Eh     change       -0.4499045E-03 Eh
   gradient norm :     0.0130450 Eh/α   predicted    -0.4669382E-03 (   3.79%)
   displ. norm   :     0.3970678 α      lambda       -0.5235296E-03
   maximum displ.:     0.1847900 α      in ANC's #2, #8, #4, ...

........................................................................
.............................. CYCLE   33 ..............................
........................................................................
   1   -189.6845178 -0.189685E+03  0.927E-02    0.92       0.0  T
   2   -189.6845255 -0.773613E-05  0.525E-02    0.92       1.0  T
   3   -189.6845108  0.147586E-04  0.140E-02    0.92       1.0  T
   4   -189.6845294 -0.185941E-04  0.296E-03    0.92       3.4  T
   5   -189.6845295 -0.721072E-07  0.178E-03    0.92       5.7  T
   6   -189.6845296 -0.188177E-06  0.811E-04    0.92      12.5  T
   7   -189.6845297 -0.477270E-07  0.296E-04    0.92      34.3  T
     SCC iter.                  ...        0 min,  0.079 sec
     gradient                   ...        0 min,  0.028 sec
 * total energy  :  -186.9093273 Eh     change       -0.4057071E-03 Eh
   gradient norm :     0.0096846 Eh/α   predicted    -0.3030385E-03 ( -25.31%)
   displ. norm   :     0.6253159 α      lambda       -0.6248663E-03
   maximum displ.:     0.2958821 α      in ANC's #2, #4, #8, ...

........................................................................
.............................. CYCLE   34 ..............................
........................................................................
   1   -189.6878769 -0.189688E+03  0.121E-01    0.92       0.0  T
   2   -189.6878880 -0.110921E-04  0.688E-02    0.92       1.0  T
   3   -189.6878613  0.266686E-04  0.161E-02    0.92       1.0  T
   4   -189.6878935 -0.321880E-04  0.404E-03    0.92       2.5  T
   5   -189.6878938 -0.262425E-06  0.278E-03    0.92       3.6  T
   6   -189.6878943 -0.537975E-06  0.801E-04    0.92      12.7  T
   7   -189.6878943 -0.376749E-07  0.354E-04    0.92      28.6  T
     SCC iter.                  ...        0 min,  0.078 sec
     gradient                   ...        0 min,  0.028 sec
 * total energy  :  -186.9098191 Eh     change       -0.4917997E-03 Eh
   gradient norm :     0.0095720 Eh/α   predicted    -0.4346015E-03 ( -11.63%)
   displ. norm   :     0.5916497 α      lambda       -0.6501290E-03
   maximum displ.:     0.3049326 α      in ANC's #2, #4, #5, ...

........................................................................
.............................. CYCLE   35 ..............................
........................................................................
   1   -189.6973965 -0.189697E+03  0.116E-01    0.92       0.0  T
   2   -189.6974096 -0.131225E-04  0.666E-02    0.92       1.0  T
   3   -189.6973543  0.553679E-04  0.226E-02    0.91       1.0  T
   4   -189.6974152 -0.609427E-04  0.528E-03    0.92       1.9  T
   5   -189.6974172 -0.195952E-05  0.294E-03    0.92       3.5  T
   6   -189.6974176 -0.438317E-06  0.121E-03    0.92       8.4  T
   7   -189.6974177 -0.577604E-07  0.366E-04    0.92      27.8  T
   8   -189.6974177 -0.661652E-08  0.180E-04    0.92      56.5  T
     SCC iter.                  ...        0 min,  0.089 sec
     gradient                   ...        0 min,  0.027 sec
 * total energy  :  -186.9100893 Eh     change       -0.2701668E-03 Eh
   gradient norm :     0.0182667 Eh/α   predicted    -0.4388545E-03 (  62.44%)
   displ. norm   :     0.6125810 α      lambda       -0.7261622E-03
   maximum displ.:     0.2913602 α      in ANC's #2, #4, #8, ...

........................................................................
.............................. CYCLE   36 ..............................
........................................................................
   1   -189.6911711 -0.189691E+03  0.123E-01    0.92       0.0  T
   2   -189.6911826 -0.115832E-04  0.706E-02    0.92       1.0  T
   3   -189.6910819  0.100780E-03  0.331E-02    0.92       1.0  T
   4   -189.6911943 -0.112461E-03  0.519E-03    0.92       2.0  T
   5   -189.6911954 -0.105180E-05  0.330E-03    0.92       3.1  T
   6   -189.6911960 -0.631460E-06  0.119E-03    0.92       8.5  T
   7   -189.6911961 -0.514100E-07  0.443E-04    0.92      22.9  T
   8   -189.6911961 -0.159921E-07  0.210E-04    0.92      48.5  T
     SCC iter.                  ...        0 min,  0.088 sec
     gradient                   ...        0 min,  0.028 sec
 * total energy  :  -186.9105267 Eh     change       -0.4374711E-03 Eh
   gradient norm :     0.0085592 Eh/α   predicted    -0.4993336E-03 (  14.14%)
   displ. norm   :     0.4663539 α      lambda       -0.4036003E-03
   maximum displ.:     0.2503072 α      in ANC's #2, #4, #5, ...

........................................................................
.............................. CYCLE   37 ..............................
........................................................................
   1   -189.6903867 -0.189690E+03  0.986E-02    0.92       0.0  T
   2   -189.6903960 -0.934451E-05  0.564E-02    0.92       1.0  T
   3   -189.6903497  0.463236E-04  0.227E-02    0.91       1.0  T
   4   -189.6904023 -0.525969E-04  0.392E-03    0.92       2.6  T
   5   -189.6904029 -0.578035E-06  0.215E-03    0.92       4.7  T
   6   -189.6904032 -0.312706E-06  0.899E-04    0.92      11.3  T
   7   -189.6904032 -0.443328E-07  0.404E-04    0.92      25.1  T
     SCC iter.                  ...        0 min,  0.079 sec
     gradient                   ...        0 min,  0.028 sec
 * total energy  :  -186.9107428 Eh     change       -0.2160857E-03 Eh
   gradient norm :     0.0107855 Eh/α   predicted    -0.2456935E-03 (  13.70%)
   displ. norm   :     0.4330382 α      lambda       -0.4313973E-03
   maximum displ.:     0.2403098 α      in ANC's #2, #4, #5, ...

........................................................................
.............................. CYCLE   38 ..............................
........................................................................
   1   -189.6919071 -0.189692E+03  0.835E-02    0.91       0.0  T
   2   -189.6919125 -0.540752E-05  0.478E-02    0.92       1.0  T
   3   -189.6918699  0.425540E-04  0.201E-02    0.91       1.0  T
   4   -189.6919170 -0.470456E-04  0.348E-03    0.92       2.9  T
   5   -189.6919175 -0.520765E-06  0.208E-03    0.92       4.9  T
   6   -189.6919177 -0.222540E-06  0.807E-04    0.92      12.6  T
   7   -189.6919177 -0.310745E-07  0.296E-04    0.92      34.3  T
     SCC iter.                  ...        0 min,  0.079 sec
     gradient                   ...        0 min,  0.027 sec
 * total energy  :  -186.9110648 Eh     change       -0.3219388E-03 Eh
   gradient norm :     0.0107835 Eh/α   predicted    -0.2561507E-03 ( -20.43%)
   displ. norm   :     0.5763086 α      lambda       -0.5036795E-03
   maximum displ.:     0.3334852 α      in ANC's #2, #4, #6, ...

........................................................................
.............................. CYCLE   39 ..............................
........................................................................
   1   -189.6977552 -0.189698E+03  0.107E-01    0.92       0.0  T
   2   -189.6977634 -0.822484E-05  0.613E-02    0.92       1.0  T
   3   -189.6977378  0.255301E-04  0.156E-02    0.92       1.0  T
   4   -189.6977672 -0.294039E-04  0.391E-03    0.92       2.6  T
   5   -189.6977678 -0.588531E-06  0.220E-03    0.92       4.6  T
   6   -189.6977681 -0.217013E-06  0.845E-04    0.92      12.0  T
   7   -189.6977681 -0.505827E-07  0.386E-04    0.92      26.3  T
     SCC iter.                  ...        0 min,  0.079 sec
     gradient                   ...        0 min,  0.028 sec
 * total energy  :  -186.9113950 Eh     change       -0.3302138E-03 Eh
   gradient norm :     0.0118499 Eh/α   predicted    -0.3354858E-03 (   1.60%)
   displ. norm   :     0.6592786 α      lambda       -0.3937516E-03
   maximum displ.:     0.3754845 α      in ANC's #2, #4, #5, ...

........................................................................
.............................. CYCLE   40 ..............................
........................................................................
   1   -189.6914306 -0.189691E+03  0.122E-01    0.92       0.0  T
   2   -189.6914405 -0.991844E-05  0.698E-02    0.92       1.0  T
   3   -189.6913908  0.497230E-04  0.220E-02    0.92       1.0  T
   4   -189.6914470 -0.561915E-04  0.417E-03    0.92       2.4  T
   5   -189.6914473 -0.313884E-06  0.278E-03    0.92       3.6  T
   6   -189.6914478 -0.540443E-06  0.897E-04    0.92      11.3  T
   7   -189.6914479 -0.460461E-07  0.338E-04    0.92      30.0  T
     SCC iter.                  ...        0 min,  0.080 sec
     gradient                   ...        0 min,  0.027 sec
 * total energy  :  -186.9117121 Eh     change       -0.3171073E-03 Eh
   gradient norm :     0.0080382 Eh/α   predicted    -0.2824509E-03 ( -10.93%)
   displ. norm   :     0.6189190 α      lambda       -0.5789336E-03
   maximum displ.:     0.3513436 α      in ANC's #2, #11, #4, ...

........................................................................
.............................. CYCLE   41 ..............................
........................................................................
   1   -189.7037072 -0.189704E+03  0.105E-01    0.92       0.0  T
   2   -189.7037167 -0.948179E-05  0.610E-02    0.92       1.0  T
   3   -189.7036051  0.111614E-03  0.346E-02    0.92       1.0  T
   4   -189.7037290 -0.123865E-03  0.525E-03    0.92       1.9  T
   5   -189.7037302 -0.128567E-05  0.286E-03    0.92       3.6  T
   6   -189.7037309 -0.620992E-06  0.116E-03    0.92       8.8  T
   7   -189.7037310 -0.894336E-07  0.523E-04    0.92      19.4  T
   8   -189.7037310 -0.194584E-07  0.221E-04    0.92      45.9  T
     SCC iter.                  ...        0 min,  0.090 sec
     gradient                   ...        0 min,  0.027 sec
 * total energy  :  -186.9118643 Eh     change       -0.1522609E-03 Eh
   gradient norm :     0.0223915 Eh/α   predicted    -0.4003498E-03 ( 162.94%)
   displ. norm   :     0.4471585 α      lambda       -0.5876745E-03
   maximum displ.:     0.2482895 α      in ANC's #2, #4, #5, ...

........................................................................
.............................. CYCLE   42 ..............................
........................................................................
   1   -189.6924344 -0.189692E+03  0.842E-02    0.92       0.0  T
   2   -189.6924385 -0.411153E-05  0.487E-02    0.92       1.0  T
   3   -189.6923714  0.671863E-04  0.248E-02    0.92       1.0  T
   4   -189.6924449 -0.735200E-04  0.351E-03    0.92       2.9  T
   5   -189.6924454 -0.549389E-06  0.184E-03    0.92       5.5  T
   6   -189.6924455 -0.118276E-06  0.822E-04    0.92      12.4  T
   7   -189.6924456 -0.665869E-07  0.306E-04    0.92      33.2  T
     SCC iter.                  ...        0 min,  0.079 sec
     gradient                   ...        0 min,  0.028 sec
 * total energy  :  -186.9122410 Eh     change       -0.3766543E-03 Eh
   gradient norm :     0.0099147 Eh/α   predicted    -0.3525947E-03 (  -6.39%)
   displ. norm   :     0.4769231 α      lambda       -0.3072589E-03
   maximum displ.:     0.2911286 α      in ANC's #2, #4, #6, ...
 * RMSD in coord.:     0.9685842 α      energy gain  -0.1016680E-01 Eh

generating ANC from model Hessian ...
Using Lindh-Hessian (1995)
 Shifting diagonal of input Hessian by   1.030950945816068E-002
 Lowest  eigenvalues of input Hessian
    0.010000    0.000000    0.000000    0.000000    0.000000    0.000000
    0.000000    0.010323    0.010331    0.010371    0.010473    0.010524
    0.010571    0.010612    0.010929    0.011200    0.011212    0.011432
 Highest eigenvalues
    2.283270    2.296093    2.585235    2.609912    2.646184    2.648029
 

........................................................................
.............................. CYCLE   43 ..............................
........................................................................
   1   -189.6893060 -0.189689E+03  0.769E-02    0.92       0.0  T
   2   -189.6893103 -0.432918E-05  0.444E-02    0.92       1.0  T
   3   -189.6892646  0.457138E-04  0.206E-02    0.92       1.0  T
   4   -189.6893143 -0.496482E-04  0.339E-03    0.92       3.0  T
   5   -189.6893150 -0.726710E-06  0.179E-03    0.92       5.7  T
   6   -189.6893151 -0.164111E-06  0.775E-04    0.92      13.1  T
   7   -189.6893152 -0.361103E-07  0.277E-04    0.92      36.7  T
     SCC iter.                  ...        0 min,  0.081 sec
     gradient                   ...        0 min,  0.028 sec
 * total energy  :  -186.9124601 Eh     change       -0.2191191E-03 Eh
   gradient norm :     0.0090086 Eh/α   predicted     0.0000000E+00 (-100.00%)
   displ. norm   :     0.0683636 α      lambda       -0.1525145E-03
   maximum displ.:     0.0339964 α      in ANC's #2, #7, #14, ...

........................................................................
.............................. CYCLE   44 ..............................
........................................................................
   1   -189.6956694 -0.189696E+03  0.311E-02    0.92       0.0  T
   2   -189.6956710 -0.160782E-05  0.175E-02    0.92       1.0  T
   3   -189.6956663  0.469852E-05  0.692E-03    0.92       1.5  T
   4   -189.6956717 -0.541272E-05  0.146E-03    0.92       6.9  T
   5   -189.6956719 -0.171806E-06  0.676E-04    0.92      15.0  T
   6   -189.6956719 -0.245539E-07  0.366E-04    0.92      27.7  T
     SCC iter.                  ...        0 min,  0.070 sec
     gradient                   ...        0 min,  0.029 sec
 * total energy  :  -186.9125555 Eh     change       -0.9536472E-04 Eh
   gradient norm :     0.0029684 Eh/α   predicted    -0.7661401E-04 ( -19.66%)
   displ. norm   :     0.1201498 α      lambda       -0.1169939E-03
   maximum displ.:     0.0648283 α      in ANC's #2, #7, #30, ...

........................................................................
.............................. CYCLE   45 ..............................
........................................................................
   1   -189.7005888 -0.189701E+03  0.357E-02    0.92       0.0  T
   2   -189.7005902 -0.136955E-05  0.203E-02    0.92       1.0  T
   3   -189.7005787  0.114809E-04  0.107E-02    0.92       1.0  T
   4   -189.7005916 -0.128447E-04  0.172E-03    0.92       5.9  T
   5   -189.7005918 -0.223647E-06  0.849E-04    0.92      12.0  T
   6   -189.7005918 -0.383301E-07  0.389E-04    0.92      26.1  T
     SCC iter.                  ...        0 min,  0.067 sec
     gradient                   ...        0 min,  0.028 sec
 * total energy  :  -186.9126218 Eh     change       -0.6632950E-04 Eh
   gradient norm :     0.0061179 Eh/α   predicted    -0.5934166E-04 ( -10.54%)
   displ. norm   :     0.1538102 α      lambda       -0.1051841E-03
   maximum displ.:     0.0848863 α      in ANC's #2, #7, #9, ...

........................................................................
.............................. CYCLE   46 ..............................
........................................................................
   1   -189.7009011 -0.189701E+03  0.363E-02    0.92       0.0  T
   2   -189.7009023 -0.112624E-05  0.205E-02    0.91       1.0  T
   3   -189.7008955  0.678470E-05  0.778E-03    0.92       1.3  T
   4   -189.7009032 -0.774119E-05  0.140E-03    0.91       7.2  T
   5   -189.7009033 -0.566375E-07  0.874E-04    0.91      11.6  T
   6   -189.7009033 -0.361503E-07  0.322E-04    0.91      31.5  T
     SCC iter.                  ...        0 min,  0.068 sec
     gradient                   ...        0 min,  0.028 sec
 * total energy  :  -186.9127000 Eh     change       -0.7821145E-04 Eh
   gradient norm :     0.0047609 Eh/α   predicted    -0.5384046E-04 ( -31.16%)
   displ. norm   :     0.3129394 α      lambda       -0.1908331E-03
   maximum displ.:     0.1693909 α      in ANC's #2, #7, #9, ...

........................................................................
.............................. CYCLE   47 ..............................
........................................................................
   1   -189.6972003 -0.189697E+03  0.899E-02    0.92       0.0  T
   2   -189.6972075 -0.724564E-05  0.501E-02    0.91       1.0  T
   3   -189.6971843  0.232138E-04  0.145E-02    0.92       1.0  T
   4   -189.6972119 -0.276087E-04  0.287E-03    0.91       3.5  T
   5   -189.6972121 -0.177496E-06  0.167E-03    0.91       6.1  T
   6   -189.6972122 -0.139474E-06  0.562E-04    0.91      18.1  T
   7   -189.6972123 -0.236389E-07  0.223E-04    0.91      45.5  T
     SCC iter.                  ...        0 min,  0.079 sec
     gradient                   ...        0 min,  0.028 sec
 * total energy  :  -186.9127830 Eh     change       -0.8293861E-04 Eh
   gradient norm :     0.0077059 Eh/α   predicted    -0.1047609E-03 (  26.31%)
   displ. norm   :     0.2569112 α      lambda       -0.2040279E-03
   maximum displ.:     0.1431762 α      in ANC's #2, #7, #9, ...

........................................................................
.............................. CYCLE   48 ..............................
........................................................................
   1   -189.6945487 -0.189695E+03  0.524E-02    0.91       0.0  T
   2   -189.6945509 -0.220668E-05  0.296E-02    0.91       1.0  T
   3   -189.6945432  0.768822E-05  0.849E-03    0.91       1.2  T
   4   -189.6945522 -0.898906E-05  0.187E-03    0.91       5.4  T
   5   -189.6945523 -0.713824E-07  0.115E-03    0.91       8.8  T
   6   -189.6945524 -0.766137E-07  0.463E-04    0.91      21.9  T
   7   -189.6945524 -0.174198E-07  0.181E-04    0.91      56.2  T
     SCC iter.                  ...        0 min,  0.079 sec
     gradient                   ...        0 min,  0.028 sec
 * total energy  :  -186.9129144 Eh     change       -0.1314842E-03 Eh
   gradient norm :     0.0058715 Eh/α   predicted    -0.1087520E-03 ( -17.29%)
   displ. norm   :     0.2334025 α      lambda       -0.1263937E-03
   maximum displ.:     0.1360906 α      in ANC's #2, #7, #6, ...

........................................................................
.............................. CYCLE   49 ..............................
........................................................................
   1   -189.6938320 -0.189694E+03  0.493E-02    0.91       0.0  T
   2   -189.6938340 -0.198816E-05  0.276E-02    0.91       1.0  T
   3   -189.6938313  0.270372E-05  0.562E-03    0.92       1.8  T
   4   -189.6938349 -0.361016E-05  0.163E-03    0.91       6.2  T
   5   -189.6938350 -0.379529E-07  0.935E-04    0.91      10.9  T
   6   -189.6938350 -0.651282E-07  0.277E-04    0.91      36.6  T
     SCC iter.                  ...        0 min,  0.069 sec
     gradient                   ...        0 min,  0.027 sec
 * total energy  :  -186.9130167 Eh     change       -0.1022388E-03 Eh
   gradient norm :     0.0042051 Eh/α   predicted    -0.6664121E-04 ( -34.82%)
   displ. norm   :     0.3692968 α      lambda       -0.2187338E-03
   maximum displ.:     0.2161821 α      in ANC's #2, #7, #6, ...

........................................................................
.............................. CYCLE   50 ..............................
........................................................................
   1   -189.6961463 -0.189696E+03  0.556E-02    0.91       0.0  T
   2   -189.6961485 -0.214626E-05  0.319E-02    0.92       1.0  T
   3   -189.6961397  0.883729E-05  0.969E-03    0.92       1.0  T
   4   -189.6961499 -0.102568E-04  0.212E-03    0.92       4.8  T
   5   -189.6961500 -0.410433E-07  0.140E-03    0.92       7.3  T
   6   -189.6961501 -0.126106E-06  0.474E-04    0.92      21.4  T
   7   -189.6961501 -0.198771E-07  0.221E-04    0.92      46.0  T
     SCC iter.                  ...        0 min,  0.079 sec
     gradient                   ...        0 min,  0.027 sec
 * total energy  :  -186.9131645 Eh     change       -0.1478051E-03 Eh
   gradient norm :     0.0065236 Eh/α   predicted    -0.1242871E-03 ( -15.91%)
   displ. norm   :     0.3892379 α      lambda       -0.1849823E-03
   maximum displ.:     0.2293947 α      in ANC's #2, #7, #6, ...

........................................................................
.............................. CYCLE   51 ..............................
........................................................................
   1   -189.6950719 -0.189695E+03  0.766E-02    0.92       0.0  T
   2   -189.6950771 -0.519810E-05  0.429E-02    0.92       1.0  T
   3   -189.6950739  0.324407E-05  0.826E-03    0.92       1.2  T
   4   -189.6950794 -0.547383E-05  0.227E-03    0.92       4.5  T
   5   -189.6950794 -0.570833E-08  0.118E-03    0.92       8.6  T
   6   -189.6950795 -0.859180E-07  0.434E-04    0.92      23.4  T
   7   -189.6950795 -0.125892E-07  0.213E-04    0.92      47.6  T
     SCC iter.                  ...        0 min,  0.078 sec
     gradient                   ...        0 min,  0.028 sec
 * total energy  :  -186.9133044 Eh     change       -0.1398688E-03 Eh
   gradient norm :     0.0052972 Eh/α   predicted    -0.1065066E-03 ( -23.85%)
   displ. norm   :     0.3975035 α      lambda       -0.1615287E-03
   maximum displ.:     0.2375485 α      in ANC's #2, #7, #6, ...

........................................................................
.............................. CYCLE   52 ..............................
........................................................................
   1   -189.6948757 -0.189695E+03  0.677E-02    0.92       0.0  T
   2   -189.6948796 -0.390379E-05  0.382E-02    0.92       1.0  T
   3   -189.6948756  0.401901E-05  0.800E-03    0.92       1.3  T
   4   -189.6948812 -0.564533E-05  0.227E-03    0.92       4.5  T
   5   -189.6948812 -0.684997E-08  0.155E-03    0.92       6.6  T
   6   -189.6948814 -0.174904E-06  0.481E-04    0.92      21.1  T
   7   -189.6948814 -0.157358E-07  0.182E-04    0.92      55.8  T
     SCC iter.                  ...        0 min,  0.085 sec
     gradient                   ...        0 min,  0.029 sec
 * total energy  :  -186.9134456 Eh     change       -0.1412019E-03 Eh
   gradient norm :     0.0044548 Eh/α   predicted    -0.9352713E-04 ( -33.76%)
   displ. norm   :     0.4672938 α      lambda       -0.2163621E-03
   maximum displ.:     0.2832759 α      in ANC's #2, #7, #6, ...

........................................................................
.............................. CYCLE   53 ..............................
........................................................................
   1   -189.6968615 -0.189697E+03  0.643E-02    0.93       0.0  T
   2   -189.6968647 -0.322726E-05  0.366E-02    0.93       1.0  T
   3   -189.6968553  0.941865E-05  0.103E-02    0.92       1.0  T
   4   -189.6968662 -0.108782E-04  0.270E-03    0.93       3.8  T
   5   -189.6968664 -0.220933E-06  0.174E-03    0.93       5.8  T
   6   -189.6968666 -0.212373E-06  0.557E-04    0.93      18.2  T
   7   -189.6968666 -0.195888E-07  0.217E-04    0.93      46.8  T
     SCC iter.                  ...        0 min,  0.080 sec
     gradient                   ...        0 min,  0.027 sec
 * total energy  :  -186.9136332 Eh     change       -0.1875994E-03 Eh
   gradient norm :     0.0034533 Eh/α   predicted    -0.1318057E-03 ( -29.74%)
   displ. norm   :     0.5597314 α      lambda       -0.2464291E-03
   maximum displ.:     0.3427963 α      in ANC's #2, #7, #6, ...

........................................................................
.............................. CYCLE   54 ..............................
........................................................................
   1   -189.6977812 -0.189698E+03  0.764E-02    0.93       0.0  T
   2   -189.6977855 -0.430255E-05  0.435E-02    0.93       1.0  T
   3   -189.6977752  0.103235E-04  0.110E-02    0.93       1.0  T
   4   -189.6977872 -0.120224E-04  0.322E-03    0.93       3.1  T
   5   -189.6977875 -0.368392E-06  0.197E-03    0.93       5.2  T
   6   -189.6977878 -0.278312E-06  0.623E-04    0.93      16.3  T
   7   -189.6977879 -0.236959E-07  0.238E-04    0.93      42.7  T
     SCC iter.                  ...        0 min,  0.079 sec
     gradient                   ...        0 min,  0.028 sec
 * total energy  :  -186.9138486 Eh     change       -0.2153914E-03 Eh
   gradient norm :     0.0052401 Eh/α   predicted    -0.1618201E-03 ( -24.87%)
   displ. norm   :     0.6017062 α      lambda       -0.2544434E-03
   maximum displ.:     0.3722905 α      in ANC's #2, #7, #6, ...

........................................................................
.............................. CYCLE   55 ..............................
........................................................................
   1   -189.6976250 -0.189698E+03  0.749E-02    0.93       0.0  T
   2   -189.6976286 -0.356085E-05  0.428E-02    0.93       1.0  T
   3   -189.6976143  0.142174E-04  0.118E-02    0.93       1.0  T
   4   -189.6976302 -0.158860E-04  0.335E-03    0.93       3.0  T
   5   -189.6976307 -0.439743E-06  0.197E-03    0.93       5.2  T
   6   -189.6976309 -0.279645E-06  0.584E-04    0.93      17.4  T
   7   -189.6976310 -0.198845E-07  0.251E-04    0.93      40.4  T
     SCC iter.                  ...        0 min,  0.079 sec
     gradient                   ...        0 min,  0.027 sec
 * total energy  :  -186.9140747 Eh     change       -0.2261725E-03 Eh
   gradient norm :     0.0052950 Eh/α   predicted    -0.1732855E-03 ( -23.38%)
   displ. norm   :     0.6080401 α      lambda       -0.2562879E-03
   maximum displ.:     0.3823768 α      in ANC's #2, #7, #6, ...

........................................................................
.............................. CYCLE   56 ..............................
........................................................................
   1   -189.6978324 -0.189698E+03  0.787E-02    0.93       0.0  T
   2   -189.6978367 -0.427578E-05  0.449E-02    0.93       1.0  T
   3   -189.6978318  0.485369E-05  0.826E-03    0.93       1.2  T
   4   -189.6978381 -0.620572E-05  0.326E-03    0.93       3.1  T
   5   -189.6978384 -0.313142E-06  0.192E-03    0.93       5.3  T
   6   -189.6978387 -0.334781E-06  0.562E-04    0.93      18.1  T
   7   -189.6978387 -0.186747E-07  0.253E-04    0.93      40.1  T
     SCC iter.                  ...        0 min,  0.080 sec
     gradient                   ...        0 min,  0.028 sec
 * total energy  :  -186.9143000 Eh     change       -0.2252680E-03 Eh
   gradient norm :     0.0045300 Eh/α   predicted    -0.1755264E-03 ( -22.08%)
   displ. norm   :     0.5976623 α      lambda       -0.2337396E-03
   maximum displ.:     0.3834642 α      in ANC's #2, #7, #6, ...

........................................................................
.............................. CYCLE   57 ..............................
........................................................................
   1   -189.6970542 -0.189697E+03  0.747E-02    0.93       0.0  T
   2   -189.6970580 -0.377140E-05  0.426E-02    0.93       1.0  T
   3   -189.6970530  0.497306E-05  0.823E-03    0.93       1.2  T
   4   -189.6970595 -0.646679E-05  0.287E-03    0.93       3.5  T
   5   -189.6970596 -0.882034E-07  0.177E-03    0.93       5.7  T
   6   -189.6970599 -0.280969E-06  0.499E-04    0.93      20.3  T
   7   -189.6970599 -0.133725E-07  0.260E-04    0.93      39.1  T
     SCC iter.                  ...        0 min,  0.078 sec
     gradient                   ...        0 min,  0.028 sec
 * total energy  :  -186.9145021 Eh     change       -0.2021399E-03 Eh
[...]
    40   6 C        3.119     0.010    27.623     8.608
    41   6 C        3.259     0.027    26.272     8.284
    42   7 N        2.804    -0.025    21.734     6.924
    43   6 C        3.063     0.028    27.309     8.569
    44   6 C        3.062     0.029    27.290     8.566
    45   7 N        2.803    -0.027    21.766     6.929
    46   6 C        3.258     0.027    26.292     8.288
    47   6 C        3.118     0.011    27.600     8.605
    48  16 S        2.254    -0.057   143.439    20.157
    49   6 C        3.747    -0.007    20.763     6.500
    50   6 C        3.752    -0.112    22.711     6.796
    51   6 C        3.747    -0.008    20.783     6.503
    52   6 C        3.752    -0.116    22.773     6.805
    53   6 C        2.956    -0.008    28.229     8.715
    54   6 C        3.008    -0.038    28.915     8.821
    55   6 C        2.871     0.228    23.232     7.901
    56   8 O        0.856    -0.351    20.723     6.103
    57   6 C        3.045    -0.021    28.478     8.752
    58   6 C        2.912    -0.036    28.905     8.816
    59   6 C        2.782     0.162    24.494     8.106
    60   9 F        0.787    -0.184    11.074     3.931
    61   6 C        2.782     0.164    24.448     8.099
    62   9 F        0.787    -0.183    11.057     3.928
    63   6 C        2.913    -0.049    29.217     8.863
    64   6 C        3.038     0.005    27.872     8.659
    65   6 C        3.019     0.035    27.198     8.555
    66   6 C        2.948     0.010    27.790     8.646
    67   6 C        1.933     0.126    27.995     8.545
    68   7 N        0.911    -0.238    26.227     7.407
    69   6 C        1.933     0.120    28.135     8.566
    70   7 N        0.911    -0.225    25.917     7.363
    71   1 H        0.925     0.081     1.972     2.196
    72   1 H        0.926     0.084     1.942     2.179
    73   1 H        0.926     0.074     2.047     2.237
    74   1 H        0.926     0.066     2.132     2.283
    75   1 H        0.924     0.056     2.243     2.342
    76   1 H        0.924     0.051     2.302     2.373
    77   1 H        0.925     0.049     2.333     2.388
    78   1 H        0.925     0.051     2.311     2.377
    79   1 H        0.925     0.045     2.380     2.413
    80   1 H        0.924     0.036     2.509     2.477
    81   1 H        0.924     0.056     2.244     2.343
    82   1 H        0.925     0.046     2.370     2.407
    83   1 H        0.925     0.037     2.491     2.468
    84   1 H        0.925     0.057     2.229     2.335
    85   1 H        0.924     0.063     2.163     2.300
    86   1 H        0.925     0.067     2.116     2.275
    87   1 H        0.925     0.057     2.239     2.340
    88   1 H        0.925     0.047     2.358     2.401
    89   1 H        0.925     0.057     2.239     2.340
    90   1 H        0.924     0.065     2.141     2.288
    91   1 H        0.925     0.066     2.127     2.280
    92   1 H        0.925     0.046     2.368     2.406
    93   1 H        0.925     0.064     2.148     2.292
    94   1 H        0.925     0.055     2.255     2.348
    95   1 H        0.925     0.083     1.950     2.184
    96   1 H        0.926     0.096     1.826     2.113
    97   1 H        0.926     0.090     1.881     2.145

 Mol. C6AA /au·bohr⁶  :     183569.149486
 Mol. C8AA /au·bohr⁸  :    5308191.512600
 Mol. α(0) /au        :        681.125946


Wiberg/Mayer (AO) data.
largest (>0.10) Wiberg bond orders for each atom

 ---------------------------------------------------------------------------
     #   Z sym  total        # sym  WBO       # sym  WBO       # sym  WBO
 ---------------------------------------------------------------------------
     1   6 C    3.948 --     2 C    1.534    18 C    1.263    71 H    0.940
     2   6 C    3.953 --     1 C    1.534    12 C    1.138     3 C    1.020
     3   6 C    3.926 --     4 O    1.780     2 C    1.020     5 C    1.009
     4   8 O    2.058 --     3 C    1.780
     5   6 C    3.974 --     6 C    1.427    11 C    1.295     3 C    1.009
     6   6 C    3.981 --     5 C    1.427     7 C    1.377    72 H    0.961
     7   6 C    3.876 --     9 C    1.389     6 C    1.377     8 F    0.974
     8   9 F    1.106 --     7 C    0.974
     9   6 C    3.978 --    10 C    1.435     7 C    1.389    73 H    0.965
    10   6 C    3.976 --     9 C    1.435    11 C    1.401    74 H    0.962
    11   6 C    3.981 --    10 C    1.401     5 C    1.295    12 C    1.079
    12   6 C    3.973 --    13 C    1.479     2 C    1.138    11 C    1.079
    13   6 C    3.968 --    12 C    1.479    14 C    1.103    16 C    1.096
    14   6 C    3.946 --    15 N    2.763    13 C    1.103
    15   7 N    2.968 --    14 C    2.763
    16   6 C    3.947 --    17 N    2.765    13 C    1.096
    17   7 N    2.978 --    16 C    2.765
    18   6 C    3.923 --    19 C    1.386     1 C    1.263    48 S    1.067
    19   6 C    3.966 --    18 C    1.386    22 C    1.319    20 C    1.019
    20   6 C    3.992 --    19 C    1.019    21 C    0.991    75 H    0.970
                            76 H    0.962
    21   6 C    3.988 --    20 C    0.991    78 H    0.987    79 H    0.987
                            77 H    0.984
    22   6 C    3.929 --    19 C    1.319    47 C    1.314    23 S    1.090
    23  16 S    2.524 --    24 C    1.121    22 C    1.090
    24   6 C    3.921 --    46 C    1.293    25 C    1.282    23 S    1.121
    25   6 C    3.953 --    24 C    1.282    44 C    1.266    26 C    1.164
    26   6 C    3.975 --    30 N    1.461    25 C    1.164    27 C    1.140
                            29 Se   0.115
    27   6 C    3.975 --    28 N    1.461    31 C    1.164    26 C    1.140
                            29 Se   0.115
    28   7 N    3.141 --    27 C    1.461    29 Se   1.444    30 N    0.129
    29  34 Se   3.254 --    28 N    1.444    30 N    1.444    27 C    0.115
                            26 C    0.115
    30   7 N    3.142 --    26 C    1.461    29 Se   1.444    28 N    0.129
    31   6 C    3.951 --    32 C    1.282    43 C    1.265    27 C    1.164
    32   6 C    3.924 --    41 C    1.298    31 C    1.282    33 S    1.114
    33  16 S    2.526 --    32 C    1.114    34 C    1.093
    34   6 C    3.931 --    40 C    1.317    35 C    1.312    33 S    1.093
    35   6 C    3.972 --    38 C    1.406    34 C    1.312    36 C    1.013
    36   6 C    3.995 --    35 C    1.013    37 C    1.002    80 H    0.971
                            81 H    0.956
    37   6 C    3.991 --    36 C    1.002    82 H    0.985    83 H    0.982
                            84 H    0.979
    38   6 C    3.924 --    35 C    1.406    53 C    1.239    39 S    1.069
    39  16 S    2.555 --    40 C    1.137    38 C    1.069
    40   6 C    3.935 --    34 C    1.317    41 C    1.252    39 S    1.137
    41   6 C    3.936 --    32 C    1.298    40 C    1.252    42 N    1.160
    42   7 N    3.568 --    43 C    1.178    41 C    1.160    51 C    0.982
    43   6 C    3.926 --    31 C    1.265    44 C    1.215    42 N    1.178
    44   6 C    3.924 --    25 C    1.266    43 C    1.215    45 N    1.177
    45   7 N    3.567 --    44 C    1.177    46 C    1.159    49 C    0.983
    46   6 C    3.936 --    24 C    1.293    47 C    1.259    45 N    1.159
    47   6 C    3.935 --    22 C    1.314    46 C    1.259    48 S    1.126
    48  16 S    2.552 --    47 C    1.126    18 C    1.067
    49   6 C    3.962 --    50 C    1.005    45 N    0.983    85 H    0.964
                            86 H    0.958
    50   6 C    3.986 --    49 C    1.005    89 H    0.983    87 H    0.983
                            88 H    0.981
    51   6 C    3.962 --    52 C    1.005    42 N    0.982    90 H    0.963
                            91 H    0.958
    52   6 C    3.986 --    51 C    1.005    94 H    0.983    93 H    0.982
                            92 H    0.981
    53   6 C    3.943 --    54 C    1.544    38 C    1.239    95 H    0.945
    54   6 C    3.959 --    53 C    1.544    65 C    1.137    55 C    1.019
    55   6 C    3.927 --    56 O    1.783    54 C    1.019    57 C    1.010
    56   8 O    2.058 --    55 C    1.783
    57   6 C    3.974 --    58 C    1.418    64 C    1.299    55 C    1.010
    58   6 C    3.978 --    57 C    1.418    59 C    1.385    96 H    0.959
    59   6 C    3.883 --    58 C    1.385    61 C    1.331    60 F    0.990
    60   9 F    1.129 --    59 C    0.990
    61   6 C    3.890 --    63 C    1.389    59 C    1.331    62 F    0.992
    62   9 F    1.134 --    61 C    0.992
    63   6 C    3.973 --    64 C    1.403    61 C    1.389    97 H    0.956
    64   6 C    3.985 --    63 C    1.403    57 C    1.299    65 C    1.077
    65   6 C    3.976 --    66 C    1.484    54 C    1.137    64 C    1.077
    66   6 C    3.970 --    65 C    1.484    67 C    1.098    69 C    1.095
    67   6 C    3.946 --    68 N    2.766    66 C    1.098
    68   7 N    2.981 --    67 C    2.766
    69   6 C    3.947 --    70 N    2.771    66 C    1.095
    70   7 N    2.973 --    69 C    2.771
    71   1 H    0.991 --     1 C    0.940
    72   1 H    0.992 --     6 C    0.961
    73   1 H    0.994 --     9 C    0.965
    74   1 H    0.995 --    10 C    0.962
    75   1 H    0.996 --    20 C    0.970
    76   1 H    0.996 --    20 C    0.962
    77   1 H    0.996 --    21 C    0.984
    78   1 H    0.997 --    21 C    0.987
    79   1 H    0.998 --    21 C    0.987
    80   1 H    0.998 --    36 C    0.971
    81   1 H    0.996 --    36 C    0.956
    82   1 H    0.997 --    37 C    0.985
    83   1 H    0.999 --    37 C    0.982
    84   1 H    0.997 --    37 C    0.979
    85   1 H    0.994 --    49 C    0.964
    86   1 H    0.994 --    49 C    0.958
    87   1 H    0.996 --    50 C    0.983
    88   1 H    0.998 --    50 C    0.981
    89   1 H    0.997 --    50 C    0.983
    90   1 H    0.994 --    51 C    0.963
    91   1 H    0.994 --    51 C    0.958
    92   1 H    0.998 --    52 C    0.981
    93   1 H    0.996 --    52 C    0.982
    94   1 H    0.996 --    52 C    0.983
    95   1 H    0.989 --    53 C    0.945
    96   1 H    0.990 --    58 C    0.959
    97   1 H    0.991 --    63 C    0.956
 ---------------------------------------------------------------------------

Topologies differ in bond orders
Writing corrected topology to xtbtopo.mol

molecular dipole:
                 x           y           z       tot (Debye)
 q only:        0.909       0.252      -0.339
   full:        0.598       0.495      -0.215       2.046
molecular quadrupole (traceless):
                xx          xy          yy          xz          yz          zz
 q only:      -48.883     -69.631       5.926     -18.670       2.491      42.958
  q+dip:      -38.207     -60.265      -5.277      -1.384      11.583      43.485
   full:      -41.472     -58.821      -7.480      -7.971      10.510      48.952

           -------------------------------------------------
          |                Geometry Summary                 |
           -------------------------------------------------

      molecular mass/u    :     1060.0388502
   center of mass at/Å    :        0.7407839      -0.9292672      -0.2283690
  moments of inertia/u·Å² :        0.1068898E+05   0.5657842E+05   0.6455862E+05
rotational constants/cm⁻¹ :        0.1577105E-02   0.2979517E-03   0.2611213E-03

 * 92 selected distances

     #   Z          #   Z                                           value/Å
     1   6 C        2   6 C                                       1.3649888
     3   6 C        4   8 O                                       1.2093162
     5   6 C        6   6 C                                       1.3798735
     6   6 C        7   6 C                                       1.3873800
     7   6 C        9   6 C                                       1.3870547
     9   6 C       10   6 C                                       1.3867276
     5   6 C       11   6 C                                       1.4074347
    10   6 C       11   6 C                                       1.3861492
    12   6 C       13   6 C                                       1.3713400
    14   6 C       15   7 N                                       1.1483156
    16   6 C       17   7 N                                       1.1480839
     1   6 C       18   6 C                                       1.4076199
    18   6 C       19   6 C                                       1.3929597
    19   6 C       20   6 C                                       1.4906702
    20   6 C       21   6 C                                       1.5311017
    19   6 C       22   6 C                                       1.3964958
    22   6 C       23  16 S                                       1.7508564
    23  16 S       24   6 C                                       1.7272941
    24   6 C       25   6 C                                       1.4005646
    25   6 C       26   6 C                                       1.4148962
    26   6 C       27   6 C                                       1.4350944
    27   6 C       28   7 N                                       1.3189301
    28   7 N       29  34 Se                                      1.7629918 (max)
    26   6 C       30   7 N                                       1.3188748
    29  34 Se      30   7 N                                       1.7629537
    27   6 C       31   6 C                                       1.4147832
    31   6 C       32   6 C                                       1.4001262
    32   6 C       33  16 S                                       1.7269903
    33  16 S       34   6 C                                       1.7510885
    34   6 C       35   6 C                                       1.4008337
    36   6 C       37   6 C                                       1.5289995
    35   6 C       38   6 C                                       1.3913726
    34   6 C       40   6 C                                       1.4027955
    39  16 S       40   6 C                                       1.7187791
    32   6 C       41   6 C                                       1.3976708
    40   6 C       41   6 C                                       1.3971366
    41   6 C       42   7 N                                       1.3665546
    31   6 C       43   6 C                                       1.4287010
    42   7 N       43   6 C                                       1.3820309
    25   6 C       44   6 C                                       1.4286413
    43   6 C       44   6 C                                       1.4249951
    44   6 C       45   7 N                                       1.3822513
    24   6 C       46   6 C                                       1.3991625
    45   7 N       46   6 C                                       1.3664810
    22   6 C       47   6 C                                       1.4023677
    46   6 C       47   6 C                                       1.3953669
    47   6 C       48  16 S                                       1.7219870
    45   7 N       49   6 C                                       1.4443004
    49   6 C       50   6 C                                       1.5289684
    42   7 N       51   6 C                                       1.4442881
    51   6 C       52   6 C                                       1.5287650
    38   6 C       53   6 C                                       1.4139973
    53   6 C       54   6 C                                       1.3640118
    55   6 C       56   8 O                                       1.2086096
    57   6 C       58   6 C                                       1.3808106
    58   6 C       59   6 C                                       1.3860509
    59   6 C       60   9 F                                       1.3379474
    59   6 C       61   6 C                                       1.3955036
    61   6 C       62   9 F                                       1.3371106
    61   6 C       63   6 C                                       1.3870953
    57   6 C       64   6 C                                       1.4062022
    63   6 C       64   6 C                                       1.3850949
    65   6 C       66   6 C                                       1.3700915
    67   6 C       68   7 N                                       1.1479569
    69   6 C       70   7 N                                       1.1474753
     1   6 C       71   1 H                                       1.0860449
     6   6 C       72   1 H                                       1.0781507
     9   6 C       73   1 H                                       1.0785741
    10   6 C       74   1 H                                       1.0779966
    20   6 C       75   1 H                                       1.0915431
    20   6 C       76   1 H                                       1.0920013
    21   6 C       77   1 H                                       1.0866257
    21   6 C       78   1 H                                       1.0869118
    21   6 C       79   1 H                                       1.0873291
    36   6 C       80   1 H                                       1.0905496
    36   6 C       81   1 H                                       1.0947301
    37   6 C       82   1 H                                       1.0870652
    37   6 C       83   1 H                                       1.0868706
    37   6 C       84   1 H                                       1.0863313
    49   6 C       85   1 H                                       1.0951697
    49   6 C       86   1 H                                       1.0857476
    50   6 C       87   1 H                                       1.0862831
    50   6 C       88   1 H                                       1.0881778
    50   6 C       89   1 H                                       1.0872928
    51   6 C       90   1 H                                       1.0952306
    51   6 C       91   1 H                                       1.0860992
    52   6 C       92   1 H                                       1.0882769
    52   6 C       93   1 H                                       1.0868433
    52   6 C       94   1 H                                       1.0863278
    53   6 C       95   1 H                                       1.0868930
    58   6 C       96   1 H                                       1.0782606
    63   6 C       97   1 H                                       1.0778657 (min)

 * 7 distinct bonds (by element types)

   Z      Z             #   av. dist./Å        max./Å        min./Å
   1 H    6 C          27     1.0866367     1.0952306     1.0778657
   6 C    6 C          41     1.4121926     1.5311017     1.3640118
   6 C    7 N          12     1.3012953     1.4443004     1.1474753
   6 C    8 O           2     1.2089629     1.2093162     1.2086096
   6 C    9 F           2     1.3375290     1.3379474     1.3371106
   6 C   16 S           6     1.7328326     1.7510885     1.7187791
   7 N   34 Se          2     1.7629728     1.7629918     1.7629537


optimized geometry written to: xtbopt.mol


           -------------------------------------------------
          | TOTAL ENERGY             -186.919103203932 Eh   |
          | GRADIENT NORM               0.000573830306 Eh/α |
          | HOMO-LUMO GAP               1.001962984245 eV   |
           -------------------------------------------------

------------------------------------------------------------------------
 * finished run on 2022/02/01 at 18:22:03.507     
------------------------------------------------------------------------
 total:
 * wall-time:     0 d,  0 h,  0 min, 18.883 sec
 *  cpu-time:     0 d,  0 h,  2 min, 30.947 sec
 * ratio c/w:     7.994 speedup
 SCF:
 * wall-time:     0 d,  0 h,  0 min,  0.367 sec
 *  cpu-time:     0 d,  0 h,  0 min,  2.912 sec
 * ratio c/w:     7.925 speedup
 ANC optimizer:
 * wall-time:     0 d,  0 h,  0 min, 18.460 sec
 *  cpu-time:     0 d,  0 h,  2 min, 27.662 sec
 * ratio c/w:     7.999 speedup

