      -----------------------------------------------------------      
     |                   =====================                   |     
     |                           x T B                           |     
     |                   =====================                   |     
     |                         S. Grimme                         |     
     |          Mulliken Center for Theoretical Chemistry        |     
     |                    University of Bonn                     |     
      -----------------------------------------------------------      

   * xtb version 6.4.1 (unknown) compiled by 'oda6@login1.crc.pitt.edu' on 2021-06-25

   xtb is free software: you can redistribute it and/or modify it under
   the terms of the GNU Lesser General Public License as published by
   the Free Software Foundation, either version 3 of the License, or
   (at your option) any later version.
   
   xtb is distributed in the hope that it will be useful,
   but WITHOUT ANY WARRANTY; without even the implied warranty of
   MERCHANTABILITY or FITNESS FOR A PARTICULAR PURPOSE.  See the
   GNU Lesser General Public License for more details.
   
   Cite this work as:
   * C. Bannwarth, E. Caldeweyher, S. Ehlert, A. Hansen, P. Pracht,
     J. Seibert, S. Spicher, S. Grimme, WIREs Comput. Mol. Sci., 2020, 11,
     e01493. DOI: 10.1002/wcms.1493
   
   for GFN2-xTB:
   * C. Bannwarth, S. Ehlert and S. Grimme., J. Chem. Theory Comput., 2019,
     15, 1652-1671. DOI: 10.1021/acs.jctc.8b01176
   for GFN1-xTB:
   * S. Grimme, C. Bannwarth, P. Shushkov, J. Chem. Theory Comput., 2017,
     13, 1989-2009. DOI: 10.1021/acs.jctc.7b00118
   for GFN0-xTB:
   * P. Pracht, E. Caldeweyher, S. Ehlert, S. Grimme, ChemRxiv, 2019, preprint.
     DOI: 10.26434/chemrxiv.8326202.v1
   for GFN-FF:
   * S. Spicher and S. Grimme, Angew. Chem. Int. Ed., 2020, 59, 15665-15673.
     DOI: 10.1002/anie.202004239
   
   for DFT-D4:
   * E. Caldeweyher, C. Bannwarth and S. Grimme, J. Chem. Phys., 2017,
     147, 034112. DOI: 10.1063/1.4993215
   * E. Caldeweyher, S. Ehlert, A. Hansen, H. Neugebauer, S. Spicher,
     C. Bannwarth and S. Grimme, J. Chem. Phys., 2019, 150, 154122.
     DOI: 10.1063/1.5090222
   * E. Caldeweyher, J.-M. Mewes, S. Ehlert and S. Grimme, Phys. Chem. Chem. Phys.
     2020, 22, 8499-8512. DOI: 10.1039/D0CP00502A
   
   for sTDA-xTB:
   * S. Grimme and C. Bannwarth, J. Chem. Phys., 2016, 145, 054103.
     DOI: 10.1063/1.4959605
   
   in the mass-spec context:
   * V. Asgeirsson, C. Bauer and S. Grimme, Chem. Sci., 2017, 8, 4879.
     DOI: 10.1039/c7sc00601b
   * J. Koopman and S. Grimme, ACS Omega 2019, 4, 12, 15120-15133.
     DOI: 10.1021/acsomega.9b02011
   
   for metadynamics refer to:
   * S. Grimme, J. Chem. Theory Comput., 2019, 155, 2847-2862
     DOI: 10.1021/acs.jctc.9b00143
   
   for SPH calculations refer to:
   * S. Spicher and S. Grimme, J. Chem. Theory Comput., 2021, 17, 1701-1714
     DOI: 10.1021/acs.jctc.0c01306
   
   with help from (in alphabetical order)
   P. Atkinson, C. Bannwarth, F. Bohle, G. Brandenburg, E. Caldeweyher
   M. Checinski, S. Dohm, S. Ehlert, S. Ehrlich, I. Gerasimov, J. Koopman
   C. Lavigne, S. Lehtola, F. März, M. Müller, F. Musil, H. Neugebauer
   J. Pisarek, C. Plett, P. Pracht, J. Seibert, P. Shushkov, S. Spicher
   M. Stahn, M. Steiner, T. Strunk, J. Stückrath, T. Rose, and J. Unsleber
   
 * started run on 2022/02/02 at 05:30:29.317     

           -------------------------------------------------
          |                Calculation Setup                |
           -------------------------------------------------

          program call               : /ihome/ghutchison/oda6/xtb/xtb-641/bin/xtb ../../FF_optimized/39_123_0.mol -opt
          hostname                   : smp-n98
          coordinate file            : ../../FF_optimized/39_123_0.mol
          omp threads                :                     8
          number of atoms            :                   151
          number of electrons        :                   464
          charge                     :                     0
          spin                       :                   0.0
          first test random number   :      0.69326701617227

   ID    Z sym.   atoms
    1    6 C      1-3, 5-13, 15, 17-24, 26-50, 52-75, 77, 78, 80-82, 84-86,
                  88, 90-94, 96
    2    8 O      4, 83
    3    7 N      14, 16, 95, 97
    4   16 S      25, 79
    5   34 Se     51, 76
    6    9 F      87, 89
    7    1 H      98-151
########################################################################
[WARNING] Please study the warnings concerning your input carefully
-1- prog_main_parseArguments: the use of '-opt' is discouraged, please use '--opt' next time
########################################################################

           -------------------------------------------------
          |                 G F N 2 - x T B                 |
           -------------------------------------------------

        Reference                      10.1021/acs.jctc.8b01176
      * Hamiltonian:
        H0-scaling (s, p, d)           1.850000    2.230000    2.230000
        zeta-weighting                 0.500000
      * Dispersion:
        s8                             2.700000
        a1                             0.520000
        a2                             5.000000
        s9                             5.000000
      * Repulsion:
        kExp                           1.500000    1.000000
        rExp                           1.000000
      * Coulomb:
        alpha                          2.000000
        third order                    shell-resolved
        anisotropic                    true
        a3                             3.000000
        a5                             4.000000
        cn-shift                       1.200000
        cn-exp                         4.000000
        max-rad                        5.000000


          ...................................................
          :                      SETUP                      :
          :.................................................:
          :  # basis functions                 466          :
          :  # atomic orbitals                 462          :
          :  # shells                          252          :
          :  # electrons                       464          :
          :  max. iterations                   250          :
          :  Hamiltonian                  GFN2-xTB          :
          :  restarted?                      false          :
          :  GBSA solvation                  false          :
          :  PC potential                    false          :
          :  electronic temp.          300.0000000     K    :
          :  accuracy                    1.0000000          :
          :  -> integral cutoff          0.2500000E+02      :
          :  -> integral neglect         0.1000000E-07      :
          :  -> SCF convergence          0.1000000E-05 Eh   :
          :  -> wf. convergence          0.1000000E-03 e    :
          :  Broyden damping             0.4000000          :
          ...................................................

 iter      E             dE          RMSdq      gap      omega  full diag
   1   -255.0147954 -0.255015E+03  0.478E+00    1.29       0.0  T
   2   -255.0574182 -0.426228E-01  0.297E+00    1.12       1.0  T
   3   -254.3282034  0.729215E+00  0.274E+00    0.30       1.0  T
   4   -255.1764818 -0.848278E+00  0.102E+00    0.71       1.0  T
   5   -255.3119111 -0.135429E+00  0.361E-01    0.41       1.0  T
   6   -255.3222848 -0.103737E-01  0.179E-01    0.60       1.0  T
   7   -255.3255555 -0.327076E-02  0.843E-02    0.51       1.0  T
   8   -255.3260247 -0.469146E-03  0.431E-02    0.56       1.0  T
   9   -255.3262796 -0.254908E-03  0.181E-02    0.53       1.0  T
  10   -255.3263134 -0.337526E-04  0.832E-03    0.54       1.0  T
  11   -255.3263176 -0.425483E-05  0.366E-03    0.54       2.2  T
  12   -255.3263181 -0.508114E-06  0.168E-03    0.54       4.8  T
  13   -255.3263184 -0.264235E-06  0.825E-04    0.54       9.9  T
  14   -255.3263184 -0.350896E-07  0.471E-04    0.54      17.3  T

   *** convergence criteria satisfied after 14 iterations ***

         #    Occupation            Energy/Eh            Energy/eV
      -------------------------------------------------------------
         1        2.0000           -0.8483428             -23.0846
       ...           ...                  ...                  ...
       226        2.0000           -0.4005714             -10.9001
       227        2.0000           -0.3965362             -10.7903
       228        2.0000           -0.3949312             -10.7466
       229        2.0000           -0.3937840             -10.7154
       230        2.0000           -0.3897833             -10.6065
       231        2.0000           -0.3877240             -10.5505
       232        1.9999           -0.3711638             -10.0999 (HOMO)
       233        0.0001           -0.3513633              -9.5611 (LUMO)
       234                         -0.3363368              -9.1522
       235                         -0.3282659              -8.9326
       236                         -0.3251158              -8.8469
       237                         -0.3047477              -8.2926
       ...                                ...                  ...
       462                          1.1022868              29.9948
      -------------------------------------------------------------
                  HL-Gap            0.0198004 Eh            0.5388 eV
             Fermi-level           -0.3612636 Eh           -9.8305 eV

 SCC (total)                   0 d,  0 h,  0 min,  0.405 sec
 SCC setup                      ...        0 min,  0.001 sec (  0.256%)
 Dispersion                     ...        0 min,  0.006 sec (  1.364%)
 classical contributions        ...        0 min,  0.000 sec (  0.059%)
 integral evaluation            ...        0 min,  0.022 sec (  5.317%)
 iterations                     ...        0 min,  0.307 sec ( 75.825%)
 molecular gradient             ...        0 min,  0.068 sec ( 16.714%)
 printout                       ...        0 min,  0.002 sec (  0.445%)

         :::::::::::::::::::::::::::::::::::::::::::::::::::::
         ::                     SUMMARY                     ::
         :::::::::::::::::::::::::::::::::::::::::::::::::::::
         :: total energy            -250.960071941645 Eh    ::
         :: gradient norm              0.693488321015 Eh/a0 ::
         :: HOMO-LUMO gap              0.538797425077 eV    ::
         ::.................................................::
         :: SCC energy              -255.326318415133 Eh    ::
         :: -> isotropic ES            0.114369366035 Eh    ::
         :: -> anisotropic ES          0.025323140696 Eh    ::
         :: -> anisotropic XC          0.159294657890 Eh    ::
         :: -> dispersion             -0.242943869600 Eh    ::
         :: repulsion energy           4.359931596623 Eh    ::
         :: add. restraining           0.000000000000 Eh    ::
         :: total charge              -0.000000000006 e     ::
         :::::::::::::::::::::::::::::::::::::::::::::::::::::

      ----------------------------------------------------------- 
     |                   =====================                   |
     |                        A N C O P T                        |
     |                   =====================                   |
     |               Approximate Normal Coordinate               |
     |                Rational Function Optimizer                |
      ----------------------------------------------------------- 

          ...................................................
          :                      SETUP                      :
          :.................................................:
          :   optimization level            normal          :
          :   max. optcycles                   453          :
          :   ANC micro-cycles                  20          :
          :   degrees of freedom               447          :
          :.................................................:
          :   RF solver                   davidson          :
          :   write xtbopt.log                true          :
          :   linear?                        false          :
          :   energy convergence         0.5000000E-05 Eh   :
          :   grad. convergence          0.1000000E-02 Eh/α :
          :   maximium RF displ.         1.0000000          :
          :   Hlow (freq-cutoff)         0.1000000E-01      :
          :   Hmax (freq-cutoff)         5.0000000          :
          :   S6 in model hess.         20.0000000          :
          ...................................................

generating ANC from model Hessian ...
Using Lindh-Hessian (1995)
 Shifting diagonal of input Hessian by   9.998743094223113E-003
 Lowest  eigenvalues of input Hessian
    0.000000    0.000000    0.000000    0.000000    0.000000    0.000000
    0.010000    0.010012    0.010022    0.010046    0.010056    0.010099
    0.010126    0.010148    0.010164    0.010194    0.010210    0.010265
 Highest eigenvalues
    2.251829    2.306451    2.333028    2.434566    2.454547    2.581736
 

........................................................................
.............................. CYCLE    1 ..............................
........................................................................
   1   -255.3263184 -0.255326E+03  0.293E-04    0.54       0.0  T
   2   -255.3263184  0.610240E-08  0.299E-04    0.54      27.3  T
   3   -255.3263184 -0.135986E-07  0.128E-04    0.54      63.3  T
     SCC iter.                  ...        0 min,  0.070 sec
     gradient                   ...        0 min,  0.067 sec
 * total energy  :  -250.9600720 Eh     change       -0.1583413E-07 Eh
   gradient norm :     0.6934895 Eh/α   predicted     0.0000000E+00 (-100.00%)
   displ. norm   :     0.5381111 α      lambda       -0.3083528E+00
   maximum displ.:     0.1058086 α      in ANC's #267, #317, #412, ...

........................................................................
.............................. CYCLE    2 ..............................
........................................................................
   1   -255.5162249 -0.255516E+03  0.396E-01    0.72       0.0  T
   2   -255.5179948 -0.176996E-02  0.237E-01    0.74       1.0  T
   3   -255.5172351  0.759695E-03  0.134E-01    0.74       1.0  T
   4   -255.5185010 -0.126584E-02  0.470E-02    0.72       1.0  T
   5   -255.5187697 -0.268719E-03  0.221E-02    0.75       1.0  T
   6   -255.5188117 -0.420148E-04  0.116E-02    0.73       1.0  T
   7   -255.5188269 -0.151608E-04  0.490E-03    0.74       1.7  T
   8   -255.5188294 -0.254065E-05  0.283E-03    0.74       2.9  T
   9   -255.5188303 -0.862088E-06  0.156E-03    0.74       5.2  T
  10   -255.5188303 -0.690945E-07  0.881E-04    0.74       9.2  T
  11   -255.5188304 -0.369232E-07  0.439E-04    0.74      18.6  T
     SCC iter.                  ...        0 min,  0.246 sec
     gradient                   ...        0 min,  0.068 sec
 * total energy  :  -251.1939548 Eh     change       -0.2338828E+00 Eh
   gradient norm :     0.3363052 Eh/α   predicted    -0.1988583E+00 ( -14.98%)
   displ. norm   :     0.5830354 α      lambda       -0.1620870E+00
   maximum displ.:     0.0934016 α      in ANC's #267, #317, #344, ...

........................................................................
.............................. CYCLE    3 ..............................
........................................................................
   1   -255.6107553 -0.255611E+03  0.373E-01    0.81       0.0  T
   2   -255.6118357 -0.108048E-02  0.213E-01    0.87       1.0  T
   3   -255.6102217  0.161406E-02  0.145E-01    0.84       1.0  T
   4   -255.6122687 -0.204699E-02  0.509E-02    0.89       1.0  T
   5   -255.6126473 -0.378662E-03  0.227E-02    0.86       1.0  T
   6   -255.6126979 -0.505304E-04  0.126E-02    0.87       1.0  T
   7   -255.6127249 -0.270537E-04  0.509E-03    0.86       1.6  T
   8   -255.6127277 -0.278337E-05  0.219E-03    0.87       3.7  T
   9   -255.6127279 -0.213161E-06  0.134E-03    0.87       6.1  T
  10   -255.6127280 -0.522588E-07  0.760E-04    0.87      10.7  T
  11   -255.6127280 -0.127218E-07  0.367E-04    0.87      22.2  T
     SCC iter.                  ...        0 min,  0.253 sec
     gradient                   ...        0 min,  0.067 sec
 * total energy  :  -251.3031369 Eh     change       -0.1091821E+00 Eh
   gradient norm :     0.2010022 Eh/α   predicted    -0.1085928E+00 (  -0.54%)
   displ. norm   :     0.6323397 α      lambda       -0.7229366E-01
   maximum displ.:     0.1605477 α      in ANC's #41, #56, #61, ...

........................................................................
.............................. CYCLE    4 ..............................
........................................................................
   1   -255.5591026 -0.255559E+03  0.306E-01    0.81       0.0  T
   2   -255.5593815 -0.278837E-03  0.176E-01    0.87       1.0  T
   3   -255.5568538  0.252761E-02  0.134E-01    0.82       1.0  T
   4   -255.5594951 -0.264128E-02  0.392E-02    0.90       1.0  T
   5   -255.5597629 -0.267753E-03  0.205E-02    0.86       1.0  T
   6   -255.5598324 -0.694829E-04  0.817E-03    0.87       1.0  T
   7   -255.5598396 -0.721861E-05  0.361E-03    0.87       2.3  T
   8   -255.5598405 -0.934313E-06  0.176E-03    0.87       4.6  T
   9   -255.5598406 -0.127883E-06  0.101E-03    0.87       8.0  T
  10   -255.5598406 -0.116906E-07  0.638E-04    0.87      12.8  T
  11   -255.5598407 -0.213910E-07  0.290E-04    0.87      28.1  T
     SCC iter.                  ...        0 min,  0.246 sec
     gradient                   ...        0 min,  0.067 sec
 * total energy  :  -251.3483131 Eh     change       -0.4517613E-01 Eh
   gradient norm :     0.1018937 Eh/α   predicted    -0.5060050E-01 (  12.01%)
   displ. norm   :     0.7461929 α      lambda       -0.3875638E-01
   maximum displ.:     0.2536539 α      in ANC's #41, #56, #37, ...

........................................................................
.............................. CYCLE    5 ..............................
........................................................................
   1   -255.5584884 -0.255558E+03  0.255E-01    0.88       0.0  T
   2   -255.5585440 -0.556289E-04  0.150E-01    0.90       1.0  T
   3   -255.5570375  0.150653E-02  0.101E-01    0.88       1.0  T
   4   -255.5586681 -0.163059E-02  0.177E-02    0.90       1.0  T
   5   -255.5586974 -0.293773E-04  0.107E-02    0.89       1.0  T
   6   -255.5587114 -0.139843E-04  0.548E-03    0.90       1.5  T
   7   -255.5587160 -0.454398E-05  0.254E-03    0.90       3.2  T
   8   -255.5587166 -0.672551E-06  0.126E-03    0.90       6.5  T
   9   -255.5587167 -0.104663E-06  0.720E-04    0.90      11.3  T
  10   -255.5587168 -0.335056E-07  0.383E-04    0.90      21.2  T
     SCC iter.                  ...        0 min,  0.232 sec
     gradient                   ...        0 min,  0.067 sec
 * total energy  :  -251.3752804 Eh     change       -0.2696730E-01 Eh
   gradient norm :     0.0768722 Eh/α   predicted    -0.3016877E-01 (  11.87%)
   displ. norm   :     0.7445268 α      lambda       -0.3122708E-01
   maximum displ.:     0.2097618 α      in ANC's #53, #43, #63, ...

........................................................................
.............................. CYCLE    6 ..............................
........................................................................
   1   -255.5773194 -0.255577E+03  0.229E-01    0.91       0.0  T
   2   -255.5773358 -0.163992E-04  0.141E-01    0.93       1.0  T
   3   -255.5752325  0.210329E-02  0.107E-01    0.90       1.0  T
   4   -255.5775145 -0.228200E-02  0.193E-02    0.93       1.0  T
   5   -255.5775607 -0.461893E-04  0.111E-02    0.92       1.0  T
   6   -255.5775769 -0.161973E-04  0.534E-03    0.93       1.5  T
   7   -255.5775811 -0.424908E-05  0.243E-03    0.93       3.3  T
   8   -255.5775817 -0.594544E-06  0.118E-03    0.93       6.9  T
   9   -255.5775818 -0.126950E-06  0.623E-04    0.93      13.1  T
  10   -255.5775819 -0.268843E-07  0.312E-04    0.93      26.1  T
     SCC iter.                  ...        0 min,  0.236 sec
     gradient                   ...        0 min,  0.067 sec
 * total energy  :  -251.3950798 Eh     change       -0.1979943E-01 Eh
   gradient norm :     0.0878028 Eh/α   predicted    -0.2426847E-01 (  22.57%)
   displ. norm   :     0.6857486 α      lambda       -0.2202820E-01
   maximum displ.:     0.2027522 α      in ANC's #53, #56, #63, ...

........................................................................
.............................. CYCLE    7 ..............................
........................................................................
   1   -255.6036464 -0.255604E+03  0.193E-01    0.92       0.0  T
   2   -255.6036609 -0.145529E-04  0.114E-01    0.94       1.0  T
   3   -255.6023832  0.127779E-02  0.789E-02    0.90       1.0  T
   4   -255.6037220 -0.133889E-02  0.158E-02    0.94       1.0  T
   5   -255.6037652 -0.431155E-04  0.657E-03    0.93       1.2  T
   6   -255.6037682 -0.302542E-05  0.405E-03    0.93       2.0  T
   7   -255.6037706 -0.239692E-05  0.154E-03    0.93       5.3  T
   8   -255.6037708 -0.233771E-06  0.804E-04    0.93      10.1  T
   9   -255.6037709 -0.540815E-07  0.391E-04    0.93      20.8  T
     SCC iter.                  ...        0 min,  0.216 sec
     gradient                   ...        0 min,  0.067 sec
 * total energy  :  -251.4117360 Eh     change       -0.1665616E-01 Eh
   gradient norm :     0.0423403 Eh/α   predicted    -0.1619352E-01 (  -2.78%)
   displ. norm   :     0.7431176 α      lambda       -0.1493338E-01
   maximum displ.:     0.2189450 α      in ANC's #43, #53, #63, ...

........................................................................
.............................. CYCLE    8 ..............................
........................................................................
   1   -255.6223633 -0.255622E+03  0.206E-01    0.92       0.0  T
   2   -255.6223845 -0.212272E-04  0.119E-01    0.94       1.0  T
   3   -255.6213409  0.104358E-02  0.717E-02    0.91       1.0  T
   4   -255.6224344 -0.109342E-02  0.146E-02    0.94       1.0  T
   5   -255.6224699 -0.355630E-04  0.648E-03    0.93       1.3  T
   6   -255.6224735 -0.353380E-05  0.337E-03    0.93       2.4  T
   7   -255.6224750 -0.151558E-05  0.114E-03    0.93       7.2  T
   8   -255.6224751 -0.135501E-06  0.559E-04    0.93      14.6  T
   9   -255.6224751 -0.393484E-07  0.252E-04    0.93      32.3  T
     SCC iter.                  ...        0 min,  0.222 sec
     gradient                   ...        0 min,  0.067 sec
 * total energy  :  -251.4239408 Eh     change       -0.1220485E-01 Eh
   gradient norm :     0.0451450 Eh/α   predicted    -0.1158999E-01 (  -5.04%)
   displ. norm   :     0.8133743 α      lambda       -0.1394233E-01
   maximum displ.:     0.2259663 α      in ANC's #51, #39, #43, ...

........................................................................
.............................. CYCLE    9 ..............................
........................................................................
   1   -255.6651984 -0.255665E+03  0.251E-01    0.95       0.0  T
   2   -255.6653027 -0.104302E-03  0.142E-01    0.95       1.0  T
   3   -255.6649420  0.360708E-03  0.488E-02    0.95       1.0  T
   4   -255.6653421 -0.400119E-03  0.117E-02    0.94       1.0  T
   5   -255.6653544 -0.122818E-04  0.671E-03    0.94       1.2  T
   6   -255.6653590 -0.463163E-05  0.263E-03    0.94       3.1  T
   7   -255.6653597 -0.621461E-06  0.144E-03    0.95       5.6  T
   8   -255.6653599 -0.269893E-06  0.623E-04    0.94      13.1  T
   9   -255.6653600 -0.510984E-07  0.343E-04    0.94      23.7  T
     SCC iter.                  ...        0 min,  0.213 sec
     gradient                   ...        0 min,  0.067 sec
 * total energy  :  -251.4330582 Eh     change       -0.9117357E-02 Eh
   gradient norm :     0.0595975 Eh/α   predicted    -0.1158315E-01 (  27.05%)
   displ. norm   :     0.7111675 α      lambda       -0.1020588E-01
   maximum displ.:     0.1947384 α      in ANC's #43, #24, #29, ...

........................................................................
.............................. CYCLE   10 ..............................
........................................................................
   1   -255.6679904 -0.255668E+03  0.206E-01    0.93       0.0  T
   2   -255.6680793 -0.888245E-04  0.116E-01    0.94       1.0  T
   3   -255.6678685  0.210752E-03  0.370E-02    0.93       1.0  T
   4   -255.6681051 -0.236565E-03  0.104E-02    0.94       1.0  T
   5   -255.6681138 -0.872532E-05  0.563E-03    0.94       1.4  T
   6   -255.6681173 -0.352481E-05  0.239E-03    0.94       3.4  T
   7   -255.6681179 -0.517480E-06  0.129E-03    0.94       6.3  T
   8   -255.6681181 -0.221938E-06  0.536E-04    0.94      15.2  T
   9   -255.6681181 -0.324511E-07  0.316E-04    0.94      25.8  T
     SCC iter.                  ...        0 min,  0.210 sec
     gradient                   ...        0 min,  0.067 sec
 * total energy  :  -251.4412002 Eh     change       -0.8141998E-02 Eh
   gradient norm :     0.0237472 Eh/α   predicted    -0.7683812E-02 (  -5.63%)
   displ. norm   :     0.7668257 α      lambda       -0.7505354E-02
   maximum displ.:     0.1902225 α      in ANC's #42, #43, #51, ...

........................................................................
.............................. CYCLE   11 ..............................
........................................................................
   1   -255.6571859 -0.255657E+03  0.191E-01    0.93       0.0  T
   2   -255.6572274 -0.415050E-04  0.107E-01    0.94       1.0  T
   3   -255.6568692  0.358287E-03  0.448E-02    0.92       1.0  T
   4   -255.6572551 -0.385904E-03  0.102E-02    0.94       1.0  T
   5   -255.6572626 -0.758226E-05  0.662E-03    0.93       1.2  T
   6   -255.6572692 -0.656389E-05  0.299E-03    0.94       2.7  T
   7   -255.6572707 -0.150027E-05  0.101E-03    0.94       8.0  T
   8   -255.6572708 -0.646037E-07  0.452E-04    0.94      18.0  T
   9   -255.6572708 -0.154798E-07  0.242E-04    0.94      33.6  T
     SCC iter.                  ...        0 min,  0.215 sec
     gradient                   ...        0 min,  0.067 sec
 * total energy  :  -251.4469944 Eh     change       -0.5794276E-02 Eh
   gradient norm :     0.0344218 Eh/α   predicted    -0.5959342E-02 (   2.85%)
   displ. norm   :     0.7694391 α      lambda       -0.6412602E-02
   maximum displ.:     0.1975194 α      in ANC's #27, #24, #39, ...

........................................................................
.............................. CYCLE   12 ..............................
........................................................................
   1   -255.6670209 -0.255667E+03  0.202E-01    0.94       0.0  T
   2   -255.6670792 -0.582866E-04  0.113E-01    0.94       1.0  T
   3   -255.6668935  0.185738E-03  0.370E-02    0.95       1.0  T
   4   -255.6671071 -0.213594E-03  0.895E-03    0.94       1.0  T
   5   -255.6671109 -0.383566E-05  0.614E-03    0.94       1.3  T
   6   -255.6671164 -0.552200E-05  0.234E-03    0.94       3.5  T
   7   -255.6671173 -0.847914E-06  0.103E-03    0.94       7.9  T
   8   -255.6671174 -0.119449E-06  0.416E-04    0.94      19.6  T
   9   -255.6671174 -0.733064E-08  0.247E-04    0.94      32.9  T
     SCC iter.                  ...        0 min,  0.212 sec
     gradient                   ...        0 min,  0.067 sec
 * total energy  :  -251.4518997 Eh     change       -0.4905282E-02 Eh
   gradient norm :     0.0297743 Eh/α   predicted    -0.5104561E-02 (   4.06%)
   displ. norm   :     0.7296447 α      lambda       -0.5149367E-02
   maximum displ.:     0.1965010 α      in ANC's #51, #42, #27, ...

........................................................................
.............................. CYCLE   13 ..............................
........................................................................
   1   -255.6869919 -0.255687E+03  0.131E-01    0.94       0.0  T
   2   -255.6870190 -0.271160E-04  0.746E-02    0.94       1.0  T
   3   -255.6868817  0.137360E-03  0.300E-02    0.95       1.0  T
   4   -255.6870263 -0.144679E-03  0.838E-03    0.94       1.0  T
   5   -255.6870338 -0.749811E-05  0.508E-03    0.94       1.6  T
   6   -255.6870379 -0.409682E-05  0.195E-03    0.94       4.2  T
   7   -255.6870384 -0.481574E-06  0.896E-04    0.94       9.1  T
   8   -255.6870385 -0.784175E-07  0.316E-04    0.94      25.7  T
     SCC iter.                  ...        0 min,  0.185 sec
     gradient                   ...        0 min,  0.067 sec
 * total energy  :  -251.4554414 Eh     change       -0.3541673E-02 Eh
   gradient norm :     0.0276244 Eh/α   predicted    -0.3945400E-02 (  11.40%)
   displ. norm   :     0.7107778 α      lambda       -0.4390663E-02
   maximum displ.:     0.2130079 α      in ANC's #27, #24, #16, ...

........................................................................
.............................. CYCLE   14 ..............................
........................................................................
   1   -255.6792973 -0.255679E+03  0.162E-01    0.93       0.0  T
   2   -255.6793293 -0.320056E-04  0.918E-02    0.94       1.0  T
   3   -255.6791743  0.154987E-03  0.317E-02    0.93       1.0  T
   4   -255.6793492 -0.174917E-03  0.707E-03    0.94       1.2  T
   5   -255.6793503 -0.106638E-05  0.531E-03    0.94       1.5  T
   6   -255.6793542 -0.394637E-05  0.205E-03    0.94       4.0  T
   7   -255.6793550 -0.760212E-06  0.839E-04    0.94       9.7  T
   8   -255.6793550 -0.364192E-07  0.448E-04    0.94      18.2  T
     SCC iter.                  ...        0 min,  0.187 sec
     gradient                   ...        0 min,  0.067 sec
 * total energy  :  -251.4585396 Eh     change       -0.3098156E-02 Eh
   gradient norm :     0.0206511 Eh/α   predicted    -0.3304424E-02 (   6.66%)
   displ. norm   :     0.6804361 α      lambda       -0.3164891E-02
   maximum displ.:     0.1926769 α      in ANC's #27, #16, #21, ...

........................................................................
.............................. CYCLE   15 ..............................
........................................................................
   1   -255.6885808 -0.255689E+03  0.136E-01    0.94       0.0  T
   2   -255.6886035 -0.227160E-04  0.782E-02    0.94       1.0  T
   3   -255.6883184  0.285155E-03  0.412E-02    0.94       1.0  T
   4   -255.6886235 -0.305161E-03  0.826E-03    0.95       1.0  T
   5   -255.6886316 -0.808076E-05  0.503E-03    0.94       1.6  T
   6   -255.6886349 -0.327034E-05  0.183E-03    0.94       4.4  T
   7   -255.6886352 -0.288717E-06  0.108E-03    0.94       7.5  T
   8   -255.6886354 -0.170011E-06  0.481E-04    0.94      16.9  T
   9   -255.6886354 -0.186326E-07  0.244E-04    0.94      33.3  T
     SCC iter.                  ...        0 min,  0.211 sec
     gradient                   ...        0 min,  0.067 sec
 * total energy  :  -251.4606762 Eh     change       -0.2136680E-02 Eh
   gradient norm :     0.0300987 Eh/α   predicted    -0.2315113E-02 (   8.35%)
   displ. norm   :     0.6620531 α      lambda       -0.3024059E-02
   maximum displ.:     0.1838777 α      in ANC's #21, #16, #27, ...

........................................................................
.............................. CYCLE   16 ..............................
........................................................................
   1   -255.6896498 -0.255690E+03  0.134E-01    0.95       0.0  T
   2   -255.6896707 -0.208460E-04  0.771E-02    0.95       1.0  T
   3   -255.6894109  0.259744E-03  0.427E-02    0.95       1.0  T
   4   -255.6897036 -0.292621E-03  0.597E-03    0.95       1.4  T
   5   -255.6897057 -0.213246E-05  0.352E-03    0.95       2.3  T
   6   -255.6897066 -0.891528E-06  0.173E-03    0.95       4.7  T
   7   -255.6897071 -0.480417E-06  0.836E-04    0.95       9.7  T
   8   -255.6897072 -0.124523E-06  0.268E-04    0.95      30.4  T
     SCC iter.                  ...        0 min,  0.187 sec
     gradient                   ...        0 min,  0.067 sec
 * total energy  :  -251.4626223 Eh     change       -0.1946048E-02 Eh
   gradient norm :     0.0282474 Eh/α   predicted    -0.2174780E-02 (  11.75%)
   displ. norm   :     0.6126093 α      lambda       -0.2633937E-02
   maximum displ.:     0.1804574 α      in ANC's #16, #21, #27, ...

........................................................................
.............................. CYCLE   17 ..............................
........................................................................
   1   -255.7087834 -0.255709E+03  0.132E-01    0.95       0.0  T
   2   -255.7088077 -0.242783E-04  0.759E-02    0.95       1.0  T
   3   -255.7085231  0.284554E-03  0.404E-02    0.96       1.0  T
   4   -255.7088334 -0.310258E-03  0.701E-03    0.95       1.2  T
   5   -255.7088376 -0.416280E-05  0.461E-03    0.95       1.8  T
   6   -255.7088404 -0.280865E-05  0.185E-03    0.95       4.4  T
   7   -255.7088406 -0.268858E-06  0.104E-03    0.95       7.8  T
   8   -255.7088408 -0.122178E-06  0.470E-04    0.95      17.3  T
   9   -255.7088408 -0.124886E-07  0.275E-04    0.95      29.6  T
     SCC iter.                  ...        0 min,  0.215 sec
     gradient                   ...        0 min,  0.067 sec
 * total energy  :  -251.4638723 Eh     change       -0.1249988E-02 Eh
   gradient norm :     0.0403459 Eh/α   predicted    -0.1811222E-02 (  44.90%)
   displ. norm   :     0.5470680 α      lambda       -0.2348043E-02
   maximum displ.:     0.1650056 α      in ANC's #21, #10, #16, ...

........................................................................
.............................. CYCLE   18 ..............................
........................................................................
   1   -255.7017472 -0.255702E+03  0.123E-01    0.95       0.0  T
   2   -255.7017742 -0.270387E-04  0.702E-02    0.95       1.0  T
   3   -255.7015896  0.184622E-03  0.349E-02    0.94       1.0  T
   4   -255.7017952 -0.205599E-03  0.610E-03    0.95       1.3  T
   5   -255.7017964 -0.116248E-05  0.469E-03    0.95       1.7  T
   6   -255.7017998 -0.344483E-05  0.164E-03    0.95       5.0  T
   7   -255.7018000 -0.195795E-06  0.936E-04    0.95       8.7  T
   8   -255.7018001 -0.103353E-06  0.433E-04    0.95      18.8  T
     SCC iter.                  ...        0 min,  0.192 sec
     gradient                   ...        0 min,  0.067 sec
 * total energy  :  -251.4652369 Eh     change       -0.1364674E-02 Eh
   gradient norm :     0.0285625 Eh/α   predicted    -0.1525391E-02 (  11.78%)
   displ. norm   :     0.5318906 α      lambda       -0.1822102E-02
   maximum displ.:     0.1751542 α      in ANC's #21, #10, #15, ...

........................................................................
.............................. CYCLE   19 ..............................
........................................................................
   1   -255.6959313 -0.255696E+03  0.113E-01    0.95       0.0  T
   2   -255.6959597 -0.284336E-04  0.642E-02    0.95       1.0  T
   3   -255.6958333  0.126467E-03  0.279E-02    0.95       1.0  T
   4   -255.6959759 -0.142611E-03  0.516E-03    0.95       1.6  T
   5   -255.6959775 -0.156279E-05  0.327E-03    0.95       2.5  T
   6   -255.6959786 -0.111855E-05  0.149E-03    0.95       5.4  T
   7   -255.6959788 -0.198939E-06  0.649E-04    0.95      12.5  T
   8   -255.6959788 -0.483127E-07  0.258E-04    0.95      31.5  T
     SCC iter.                  ...        0 min,  0.186 sec
     gradient                   ...        0 min,  0.067 sec
 * total energy  :  -251.4661392 Eh     change       -0.9022041E-03 Eh
   gradient norm :     0.0325114 Eh/α   predicted    -0.1168795E-02 (  29.55%)
   displ. norm   :     0.5289256 α      lambda       -0.2156650E-02
   maximum displ.:     0.1758090 α      in ANC's #10, #21, #3, ...

........................................................................
.............................. CYCLE   20 ..............................
........................................................................
   1   -255.7117124 -0.255712E+03  0.119E-01    0.96       0.0  T
   2   -255.7117280 -0.155753E-04  0.681E-02    0.95       1.0  T
   3   -255.7112224  0.505565E-03  0.490E-02    0.97       1.0  T
   4   -255.7117707 -0.548232E-03  0.677E-03    0.95       1.2  T
   5   -255.7117761 -0.539098E-05  0.402E-03    0.95       2.0  T
   6   -255.7117783 -0.221791E-05  0.163E-03    0.95       5.0  T
   7   -255.7117785 -0.239161E-06  0.807E-04    0.95      10.1  T
   8   -255.7117786 -0.450663E-07  0.374E-04    0.95      21.8  T
     SCC iter.                  ...        0 min,  0.193 sec
     gradient                   ...        0 min,  0.067 sec
 * total energy  :  -251.4666865 Eh     change       -0.5473611E-03 Eh
   gradient norm :     0.0446611 Eh/α   predicted    -0.1380007E-02 ( 152.12%)
   displ. norm   :     0.3816584 α      lambda       -0.2180168E-02
   maximum displ.:     0.1267379 α      in ANC's #10, #21, #3, ...
 * RMSD in coord.:     0.7941621 α      energy gain  -0.5066146E+00 Eh

generating ANC from model Hessian ...
Using Lindh-Hessian (1995)
 Shifting diagonal of input Hessian by   1.000808494706869E-002
 Lowest  eigenvalues of input Hessian
    0.010000    0.000000    0.000000    0.000000    0.000000    0.000000
    0.000000    0.010014    0.010029    0.010051    0.010073    0.010094
    0.010131    0.010151    0.010167    0.010177    0.010215    0.010303
 Highest eigenvalues
    2.280136    2.282228    2.598227    2.615598    2.650297    2.651387
 

........................................................................
.............................. CYCLE   21 ..............................
........................................................................
   1   -255.7013854 -0.255701E+03  0.807E-02    0.95       0.0  T
   2   -255.7014043 -0.189394E-04  0.467E-02    0.94       1.0  T
   3   -255.7012770  0.127354E-03  0.255E-02    0.96       1.0  T
   4   -255.7014111 -0.134147E-03  0.640E-03    0.94       1.3  T
   5   -255.7014182 -0.704323E-05  0.310E-03    0.95       2.6  T
   6   -255.7014195 -0.134663E-05  0.129E-03    0.95       6.3  T
   7   -255.7014196 -0.115877E-06  0.702E-04    0.95      11.6  T
   8   -255.7014197 -0.572741E-07  0.273E-04    0.95      29.8  T
     SCC iter.                  ...        0 min,  0.175 sec
     gradient                   ...        0 min,  0.067 sec
 * total energy  :  -251.4679187 Eh     change       -0.1232180E-02 Eh
   gradient norm :     0.0160367 Eh/α   predicted     0.0000000E+00 (-100.00%)
   displ. norm   :     0.2032988 α      lambda       -0.9688406E-03
   maximum displ.:     0.0801323 α      in ANC's #18, #13, #3, ...

........................................................................
.............................. CYCLE   22 ..............................
........................................................................
   1   -255.7038391 -0.255704E+03  0.113E-01    0.94       0.0  T
   2   -255.7038591 -0.199752E-04  0.630E-02    0.95       1.0  T
   3   -255.7037193  0.139769E-03  0.278E-02    0.94       1.0  T
   4   -255.7038752 -0.155861E-03  0.358E-03    0.95       2.3  T
   5   -255.7038761 -0.973851E-06  0.248E-03    0.95       3.3  T
   6   -255.7038770 -0.812360E-06  0.997E-04    0.95       8.2  T
   7   -255.7038770 -0.753257E-07  0.578E-04    0.95      14.1  T
     SCC iter.                  ...        0 min,  0.155 sec
     gradient                   ...        0 min,  0.067 sec
 * total energy  :  -251.4682191 Eh     change       -0.3003573E-03 Eh
   gradient norm :     0.0118936 Eh/α   predicted    -0.5044692E-03 (  67.96%)
   displ. norm   :     0.3140644 α      lambda       -0.1383202E-02
   maximum displ.:     0.1122403 α      in ANC's #15, #3, #9, ...

........................................................................
.............................. CYCLE   23 ..............................
........................................................................
   1   -255.7128825 -0.255713E+03  0.121E-01    0.94       0.0  T
   2   -255.7129086 -0.260582E-04  0.676E-02    0.95       1.0  T
   3   -255.7128072  0.101356E-03  0.245E-02    0.94       1.0  T
   4   -255.7129222 -0.114961E-03  0.480E-03    0.95       1.7  T
   5   -255.7129249 -0.270951E-05  0.301E-03    0.95       2.7  T
   6   -255.7129261 -0.115398E-05  0.121E-03    0.95       6.7  T
   7   -255.7129262 -0.112386E-06  0.670E-04    0.95      12.1  T
   8   -255.7129262 -0.623237E-07  0.289E-04    0.95      28.1  T
     SCC iter.                  ...        0 min,  0.177 sec
     gradient                   ...        0 min,  0.067 sec
 * total energy  :  -251.4686729 Eh     change       -0.4538158E-03 Eh
   gradient norm :     0.0182835 Eh/α   predicted    -0.7598195E-03 (  67.43%)
   displ. norm   :     0.2539345 α      lambda       -0.1050747E-02
   maximum displ.:     0.0850200 α      in ANC's #18, #3, #13, ...

........................................................................
.............................. CYCLE   24 ..............................
........................................................................
   1   -255.7135106 -0.255714E+03  0.116E-01    0.95       0.0  T
   2   -255.7135299 -0.192490E-04  0.645E-02    0.95       1.0  T
   3   -255.7135093  0.205335E-04  0.137E-02    0.95       1.0  T
   4   -255.7135389 -0.295788E-04  0.264E-03    0.95       3.1  T
   5   -255.7135388  0.153777E-06  0.199E-03    0.95       4.1  T
   6   -255.7135393 -0.574679E-06  0.753E-04    0.95      10.8  T
   7   -255.7135395 -0.104766E-06  0.308E-04    0.95      26.5  T
     SCC iter.                  ...        0 min,  0.153 sec
     gradient                   ...        0 min,  0.067 sec
 * total energy  :  -251.4691227 Eh     change       -0.4498348E-03 Eh
   gradient norm :     0.0121305 Eh/α   predicted    -0.5592671E-03 (  24.33%)
   displ. norm   :     0.2942695 α      lambda       -0.9057251E-03
   maximum displ.:     0.1171520 α      in ANC's #18, #3, #15, ...

........................................................................
.............................. CYCLE   25 ..............................
........................................................................
   1   -255.7085529 -0.255709E+03  0.698E-02    0.95       0.0  T
   2   -255.7085610 -0.806126E-05  0.392E-02    0.95       1.0  T
   3   -255.7085372  0.238025E-04  0.116E-02    0.94       1.0  T
   4   -255.7085633 -0.261669E-04  0.330E-03    0.95       2.5  T
   5   -255.7085649 -0.155707E-05  0.173E-03    0.95       4.7  T
   6   -255.7085652 -0.340100E-06  0.840E-04    0.95       9.7  T
   7   -255.7085653 -0.681604E-07  0.360E-04    0.95      22.6  T
     SCC iter.                  ...        0 min,  0.153 sec
     gradient                   ...        0 min,  0.067 sec
 * total energy  :  -251.4697583 Eh     change       -0.6355664E-03 Eh
   gradient norm :     0.0096432 Eh/α   predicted    -0.4920793E-03 ( -22.58%)
   displ. norm   :     0.5903733 α      lambda       -0.1174279E-02
   maximum displ.:     0.2074429 α      in ANC's #3, #18, #13, ...

........................................................................
.............................. CYCLE   26 ..............................
........................................................................
   1   -255.6980107 -0.255698E+03  0.139E-01    0.95       0.0  T
   2   -255.6980400 -0.292932E-04  0.773E-02    0.95       1.0  T
   3   -255.6979946  0.454718E-04  0.178E-02    0.94       1.0  T
   4   -255.6980516 -0.570181E-04  0.472E-03    0.95       1.7  T
   5   -255.6980531 -0.155913E-05  0.302E-03    0.95       2.7  T
   6   -255.6980545 -0.136464E-05  0.118E-03    0.95       6.9  T
   7   -255.6980547 -0.170738E-06  0.502E-04    0.95      16.2  T
   8   -255.6980547 -0.328927E-07  0.225E-04    0.95      36.2  T
     SCC iter.                  ...        0 min,  0.173 sec
     gradient                   ...        0 min,  0.067 sec
 * total energy  :  -251.4702094 Eh     change       -0.4511162E-03 Eh
   gradient norm :     0.0171987 Eh/α   predicted    -0.7917827E-03 (  75.52%)
   displ. norm   :     0.4994238 α      lambda       -0.1318385E-02
   maximum displ.:     0.2017615 α      in ANC's #18, #3, #15, ...

........................................................................
.............................. CYCLE   27 ..............................
........................................................................
   1   -255.6996318 -0.255700E+03  0.100E-01    0.95       0.0  T
   2   -255.6996463 -0.144510E-04  0.561E-02    0.95       1.0  T
   3   -255.6996191  0.271766E-04  0.143E-02    0.95       1.0  T
   4   -255.6996528 -0.336299E-04  0.305E-03    0.95       2.7  T
   5   -255.6996525  0.251424E-06  0.242E-03    0.95       3.4  T
   6   -255.6996535 -0.101786E-05  0.668E-04    0.95      12.2  T
   7   -255.6996535 -0.213386E-07  0.418E-04    0.95      19.5  T
   8   -255.6996536 -0.292857E-07  0.166E-04    0.95      49.1  T
     SCC iter.                  ...        0 min,  0.176 sec
     gradient                   ...        0 min,  0.067 sec
 * total energy  :  -251.4711025 Eh     change       -0.8931147E-03 Eh
   gradient norm :     0.0130829 Eh/α   predicted    -0.8236115E-03 (  -7.78%)
   displ. norm   :     0.5875928 α      lambda       -0.9305683E-03
   maximum displ.:     0.2234306 α      in ANC's #3, #18, #15, ...

........................................................................
.............................. CYCLE   28 ..............................
........................................................................
   1   -255.7050528 -0.255705E+03  0.690E-02    0.95       0.0  T
   2   -255.7050559 -0.312393E-05  0.401E-02    0.95       1.0  T
   3   -255.7050144  0.415093E-04  0.148E-02    0.95       1.0  T
   4   -255.7050586 -0.442125E-04  0.255E-03    0.95       3.2  T
   5   -255.7050591 -0.476022E-06  0.174E-03    0.95       4.7  T
   6   -255.7050595 -0.428342E-06  0.659E-04    0.95      12.3  T
   7   -255.7050596 -0.295371E-07  0.372E-04    0.95      21.9  T
     SCC iter.                  ...        0 min,  0.158 sec
     gradient                   ...        0 min,  0.067 sec
 * total energy  :  -251.4718623 Eh     change       -0.7598459E-03 Eh
   gradient norm :     0.0076926 Eh/α   predicted    -0.6259316E-03 ( -17.62%)
   displ. norm   :     0.7571428 α      lambda       -0.1051062E-02
   maximum displ.:     0.3010190 α      in ANC's #3, #18, #15, ...

........................................................................
.............................. CYCLE   29 ..............................
........................................................................
   1   -255.7080878 -0.255708E+03  0.985E-02    0.95       0.0  T
   2   -255.7080991 -0.113735E-04  0.563E-02    0.95       1.0  T
   3   -255.7080388  0.603068E-04  0.177E-02    0.96       1.0  T
   4   -255.7081039 -0.650987E-04  0.443E-03    0.95       1.8  T
   5   -255.7081065 -0.257119E-05  0.256E-03    0.95       3.2  T
   6   -255.7081073 -0.804280E-06  0.875E-04    0.95       9.3  T
   7   -255.7081074 -0.732945E-07  0.421E-04    0.95      19.3  T
     SCC iter.                  ...        0 min,  0.157 sec
     gradient                   ...        0 min,  0.067 sec
 * total energy  :  -251.4726262 Eh     change       -0.7638305E-03 Eh
   gradient norm :     0.0111366 Eh/α   predicted    -0.8268036E-03 (   8.24%)
   displ. norm   :     0.7282979 α      lambda       -0.1199245E-02
   maximum displ.:     0.2944849 α      in ANC's #3, #18, #13, ...

........................................................................
.............................. CYCLE   30 ..............................
........................................................................
   1   -255.7135221 -0.255714E+03  0.101E-01    0.95       0.0  T
   2   -255.7135302 -0.801895E-05  0.576E-02    0.95       1.0  T
   3   -255.7134218  0.108324E-03  0.220E-02    0.96       1.0  T
   4   -255.7135390 -0.117187E-03  0.374E-03    0.95       2.2  T
   5   -255.7135395 -0.531708E-06  0.247E-03    0.95       3.3  T
   6   -255.7135402 -0.630059E-06  0.921E-04    0.95       8.8  T
   7   -255.7135403 -0.116130E-06  0.421E-04    0.95      19.3  T
     SCC iter.                  ...        0 min,  0.158 sec
     gradient                   ...        0 min,  0.067 sec
 * total energy  :  -251.4735007 Eh     change       -0.8745091E-03 Eh
   gradient norm :     0.0096871 Eh/α   predicted    -0.9176779E-03 (   4.94%)
   displ. norm   :     0.7941985 α      lambda       -0.8935695E-03
   maximum displ.:     0.3224088 α      in ANC's #3, #18, #13, ...

........................................................................
.............................. CYCLE   31 ..............................
........................................................................
   1   -255.7065226 -0.255707E+03  0.872E-02    0.95       0.0  T
   2   -255.7065272 -0.459755E-05  0.503E-02    0.95       1.0  T
   3   -255.7064978  0.293925E-04  0.129E-02    0.95       1.0  T
   4   -255.7065300 -0.321586E-04  0.310E-03    0.95       2.6  T
   5   -255.7065303 -0.336375E-06  0.218E-03    0.95       3.7  T
   6   -255.7065310 -0.634540E-06  0.765E-04    0.95      10.6  T
   7   -255.7065311 -0.953379E-07  0.338E-04    0.95      24.1  T
     SCC iter.                  ...        0 min,  0.159 sec
     gradient                   ...        0 min,  0.067 sec
 * total energy  :  -251.4743019 Eh     change       -0.8012539E-03 Eh
   gradient norm :     0.0075291 Eh/α   predicted    -0.7285954E-03 (  -9.07%)
   displ. norm   :     0.7708804 α      lambda       -0.9682987E-03
   maximum displ.:     0.3356108 α      in ANC's #3, #13, #15, ...

........................................................................
.............................. CYCLE   32 ..............................
........................................................................
   1   -255.7133234 -0.255713E+03  0.856E-02    0.95       0.0  T
   2   -255.7133274 -0.406043E-05  0.491E-02    0.95       1.0  T
   3   -255.7132913  0.360828E-04  0.141E-02    0.95       1.0  T
   4   -255.7133297 -0.383452E-04  0.376E-03    0.95       2.2  T
   5   -255.7133305 -0.810200E-06  0.255E-03    0.95       3.2  T
   6   -255.7133315 -0.987319E-06  0.804E-04    0.95      10.1  T
   7   -255.7133316 -0.111931E-06  0.312E-04    0.95      26.1  T
     SCC iter.                  ...        0 min,  0.158 sec
     gradient                   ...        0 min,  0.067 sec
 * total energy  :  -251.4751443 Eh     change       -0.8424050E-03 Eh
   gradient norm :     0.0058085 Eh/α   predicted    -0.7718524E-03 (  -8.38%)
   displ. norm   :     0.8424566 α      lambda       -0.8854608E-03
   maximum displ.:     0.3699913 α      in ANC's #3, #18, #13, ...

........................................................................
.............................. CYCLE   33 ..............................
........................................................................
   1   -255.7106336 -0.255711E+03  0.923E-02    0.95       0.0  T
   2   -255.7106387 -0.507903E-05  0.531E-02    0.95       1.0  T
   3   -255.7106108  0.279182E-04  0.130E-02    0.95       1.0  T
   4   -255.7106418 -0.310206E-04  0.331E-03    0.95       2.5  T
   5   -255.7106418 -0.275588E-07  0.228E-03    0.95       3.6  T
   6   -255.7106426 -0.798839E-06  0.797E-04    0.95      10.2  T
   7   -255.7106427 -0.970812E-07  0.302E-04    0.95      26.9  T
     SCC iter.                  ...        0 min,  0.162 sec
     gradient                   ...        0 min,  0.067 sec
 * total energy  :  -251.4759486 Eh     change       -0.8042400E-03 Eh
   gradient norm :     0.0064037 Eh/α   predicted    -0.7569531E-03 (  -5.88%)
   displ. norm   :     0.8244059 α      lambda       -0.8392117E-03
   maximum displ.:     0.3781058 α      in ANC's #3, #13, #18, ...

........................................................................
.............................. CYCLE   34 ..............................
........................................................................
   1   -255.7140260 -0.255714E+03  0.905E-02    0.95       0.0  T
   2   -255.7140313 -0.536177E-05  0.518E-02    0.95       1.0  T
   3   -255.7140027  0.285764E-04  0.137E-02    0.95       1.0  T
   4   -255.7140347 -0.319975E-04  0.342E-03    0.95       2.4  T
   5   -255.7140346  0.129701E-06  0.242E-03    0.95       3.4  T
   6   -255.7140355 -0.909217E-06  0.769E-04    0.95      10.6  T
   7   -255.7140356 -0.799081E-07  0.304E-04    0.95      26.7  T
     SCC iter.                  ...        0 min,  0.158 sec
     gradient                   ...        0 min,  0.067 sec
 * total energy  :  -251.4766994 Eh     change       -0.7508202E-03 Eh
   gradient norm :     0.0055743 Eh/α   predicted    -0.7047928E-03 (  -6.13%)
   displ. norm   :     0.8423014 α      lambda       -0.7507415E-03
   maximum displ.:     0.3974274 α      in ANC's #3, #13, #18, ...

........................................................................
.............................. CYCLE   35 ..............................
........................................................................
   1   -255.7119998 -0.255712E+03  0.844E-02    0.95       0.0  T
   2   -255.7120040 -0.423103E-05  0.486E-02    0.95       1.0  T
   3   -255.7119830  0.210537E-04  0.118E-02    0.95       1.0  T
   4   -255.7120067 -0.237560E-04  0.292E-03    0.95       2.8  T
   5   -255.7120067  0.770353E-07  0.204E-03    0.95       4.0  T
   6   -255.7120073 -0.620788E-06  0.695E-04    0.95      11.7  T
   7   -255.7120074 -0.673491E-07  0.269E-04    0.95      30.3  T
     SCC iter.                  ...        0 min,  0.158 sec
     gradient                   ...        0 min,  0.067 sec
 * total energy  :  -251.4773824 Eh     change       -0.6830282E-03 Eh
   gradient norm :     0.0046411 Eh/α   predicted    -0.6416864E-03 (  -6.05%)
   displ. norm   :     0.8042265 α      lambda       -0.6914922E-03
   maximum displ.:     0.4010530 α      in ANC's #3, #13, #6, ...

........................................................................
.............................. CYCLE   36 ..............................
........................................................................
   1   -255.7165547 -0.255717E+03  0.745E-02    0.95       0.0  T
   2   -255.7165578 -0.307932E-05  0.429E-02    0.95       1.0  T
   3   -255.7165273  0.305101E-04  0.126E-02    0.95       1.0  T
   4   -255.7165598 -0.325792E-04  0.310E-03    0.95       2.6  T
   5   -255.7165602 -0.382567E-06  0.219E-03    0.95       3.7  T
   6   -255.7165610 -0.784101E-06  0.670E-04    0.95      12.1  T
   7   -255.7165611 -0.684967E-07  0.264E-04    0.95      30.8  T
     SCC iter.                  ...        0 min,  0.160 sec
     gradient                   ...        0 min,  0.067 sec
 * total energy  :  -251.4780066 Eh     change       -0.6241808E-03 Eh
   gradient norm :     0.0044002 Eh/α   predicted    -0.5693693E-03 (  -8.78%)
   displ. norm   :     0.8264874 α      lambda       -0.6489629E-03
   maximum displ.:     0.4147778 α      in ANC's #3, #13, #6, ...

........................................................................
.............................. CYCLE   37 ..............................
........................................................................
   1   -255.7145449 -0.255715E+03  0.707E-02    0.95       0.0  T
   2   -255.7145471 -0.211451E-05  0.410E-02    0.95       1.0  T
   3   -255.7145093  0.377985E-04  0.135E-02    0.95       1.0  T
   4   -255.7145493 -0.400818E-04  0.283E-03    0.95       2.9  T
   5   -255.7145499 -0.558892E-06  0.185E-03    0.95       4.4  T
   6   -255.7145503 -0.453917E-06  0.615E-04    0.95      13.2  T
   7   -255.7145504 -0.586708E-07  0.250E-04    0.95      32.6  T
     SCC iter.                  ...        0 min,  0.161 sec
     gradient                   ...        0 min,  0.067 sec
 * total energy  :  -251.4786009 Eh     change       -0.5942984E-03 Eh
   gradient norm :     0.0051149 Eh/α   predicted    -0.5461322E-03 (  -8.10%)
   displ. norm   :     0.7872143 α      lambda       -0.6381506E-03
   maximum displ.:     0.4246865 α      in ANC's #3, #13, #4, ...

........................................................................
.............................. CYCLE   38 ..............................
........................................................................
   1   -255.7218894 -0.255722E+03  0.585E-02    0.95       0.0  T
   2   -255.7218899 -0.533951E-06  0.341E-02    0.94       1.0  T
   3   -255.7218312  0.587738E-04  0.157E-02    0.95       1.0  T
   4   -255.7218931 -0.619008E-04  0.247E-03    0.95       3.3  T
   5   -255.7218936 -0.533847E-06  0.142E-03    0.95       5.7  T
   6   -255.7218938 -0.214976E-06  0.536E-04    0.95      15.2  T
   7   -255.7218938 -0.338286E-07  0.233E-04    0.95      34.9  T
     SCC iter.                  ...        0 min,  0.164 sec
     gradient                   ...        0 min,  0.067 sec
 * total energy  :  -251.4791674 Eh     change       -0.5664948E-03 Eh
   gradient norm :     0.0051514 Eh/α   predicted    -0.5168071E-03 (  -8.77%)
   displ. norm   :     0.8227892 α      lambda       -0.6136692E-03
   maximum displ.:     0.4349106 α      in ANC's #3, #13, #4, ...

........................................................................
.............................. CYCLE   39 ..............................
........................................................................
   1   -255.7192138 -0.255719E+03  0.637E-02    0.95       0.0  T
   2   -255.7192157 -0.186950E-05  0.372E-02    0.95       1.0  T
   3   -255.7191929  0.228027E-04  0.113E-02    0.95       1.0  T
   4   -255.7192172 -0.243817E-04  0.220E-03    0.95       3.7  T
   5   -255.7192175 -0.279987E-06  0.153E-03    0.95       5.3  T
   6   -255.7192179 -0.330502E-06  0.549E-04    0.95      14.8  T
   7   -255.7192179 -0.419296E-07  0.259E-04    0.95      31.4  T
     SCC iter.                  ...        0 min,  0.166 sec
     gradient                   ...        0 min,  0.067 sec
 * total energy  :  -251.4797226 Eh     change       -0.5551627E-03 Eh
   gradient norm :     0.0052109 Eh/α   predicted    -0.5145596E-03 (  -7.31%)
   displ. norm   :     0.7910484 α      lambda       -0.5778286E-03
   maximum displ.:     0.4449438 α      in ANC's #3, #4, #6, ...

........................................................................
.............................. CYCLE   40 ..............................
........................................................................
   1   -255.7210724 -0.255721E+03  0.547E-02    0.95       0.0  T
   2   -255.7210737 -0.133847E-05  0.320E-02    0.95       1.0  T
   3   -255.7210642  0.954605E-05  0.829E-03    0.95       1.0  T
   4   -255.7210748 -0.106068E-04  0.144E-03    0.95       5.6  T
   5   -255.7210748 -0.291294E-07  0.101E-03    0.95       8.1  T
   6   -255.7210749 -0.103840E-06  0.435E-04    0.95      18.7  T
   7   -255.7210750 -0.229022E-07  0.213E-04    0.95      38.3  T
     SCC iter.                  ...        0 min,  0.165 sec
     gradient                   ...        0 min,  0.067 sec
 * total energy  :  -251.4802552 Eh     change       -0.5326601E-03 Eh
   gradient norm :     0.0046418 Eh/α   predicted    -0.4697071E-03 ( -11.82%)
   displ. norm   :     0.8089332 α      lambda       -0.5705502E-03
   maximum displ.:     0.4672945 α      in ANC's #3, #4, #6, ...

........................................................................
.............................. CYCLE   41 ..............................
........................................................................
   1   -255.7233682 -0.255723E+03  0.554E-02    0.95       0.0  T
   2   -255.7233692 -0.105536E-05  0.324E-02    0.95       1.0  T
   3   -255.7233491  0.201018E-04  0.104E-02    0.95       1.0  T
   4   -255.7233702 -0.211081E-04  0.193E-03    0.95       4.2  T
   5   -255.7233707 -0.474546E-06  0.113E-03    0.95       7.2  T
   6   -255.7233709 -0.173387E-06  0.470E-04    0.95      17.3  T
   7   -255.7233709 -0.198710E-07  0.254E-04    0.95      32.0  T
     SCC iter.                  ...        0 min,  0.171 sec
     gradient                   ...        0 min,  0.067 sec
 * total energy  :  -251.4807816 Eh     change       -0.5264057E-03 Eh
   gradient norm :     0.0048705 Eh/α   predicted    -0.4719529E-03 ( -10.34%)
   displ. norm   :     0.8008706 α      lambda       -0.5613614E-03
   maximum displ.:     0.4767072 α      in ANC's #3, #4, #6, ...

........................................................................
.............................. CYCLE   42 ..............................
........................................................................
   1   -255.7233043 -0.255723E+03  0.565E-02    0.95       0.0  T
   2   -255.7233053 -0.996394E-06  0.329E-02    0.95       1.0  T
   3   -255.7232593  0.459660E-04  0.141E-02    0.94       1.0  T
   4   -255.7233076 -0.483033E-04  0.218E-03    0.95       3.7  T
   5   -255.7233083 -0.700654E-06  0.115E-03    0.95       7.1  T
   6   -255.7233084 -0.112860E-06  0.456E-04    0.95      17.9  T
   7   -255.7233084 -0.170605E-07  0.213E-04    0.95      38.3  T
     SCC iter.                  ...        0 min,  0.159 sec
     gradient                   ...        0 min,  0.067 sec
 * total energy  :  -251.4812943 Eh     change       -0.5126654E-03 Eh
   gradient norm :     0.0060133 Eh/α   predicted    -0.4607124E-03 ( -10.13%)
   displ. norm   :     0.8211788 α      lambda       -0.5506930E-03
   maximum displ.:     0.4983183 α      in ANC's #3, #4, #6, ...
 * RMSD in coord.:     1.1258315 α      energy gain  -0.1460779E-01 Eh

generating ANC from model Hessian ...
Using Lindh-Hessian (1995)
 Shifting diagonal of input Hessian by   1.000374224511231E-002
 Lowest  eigenvalues of input Hessian
    0.010000    0.000000    0.000000    0.000000    0.000000    0.000000
    0.000000    0.010015    0.010020    0.010036    0.010071    0.010092
    0.010104    0.010153    0.010166    0.010192    0.010221    0.010266
 Highest eigenvalues
    2.281735    2.289449    2.599038    2.612591    2.643865    2.660880
 

........................................................................
.............................. CYCLE   43 ..............................
........................................................................
   1   -255.7235162 -0.255724E+03  0.554E-02    0.95       0.0  T
   2   -255.7235168 -0.564586E-06  0.324E-02    0.95       1.0  T
   3   -255.7234689  0.479061E-04  0.144E-02    0.94       1.0  T
   4   -255.7235191 -0.501793E-04  0.217E-03    0.95       3.7  T
   5   -255.7235198 -0.737863E-06  0.108E-03    0.95       7.5  T
   6   -255.7235199 -0.916663E-07  0.474E-04    0.95      17.2  T
   7   -255.7235199 -0.219356E-07  0.207E-04    0.95      39.3  T
     SCC iter.                  ...        0 min,  0.152 sec
     gradient                   ...        0 min,  0.067 sec
 * total energy  :  -251.4818069 Eh     change       -0.5126384E-03 Eh
   gradient norm :     0.0046743 Eh/α   predicted     0.0000000E+00 (-100.00%)
   displ. norm   :     0.0864603 α      lambda       -0.1081411E-03
   maximum displ.:     0.0472406 α      in ANC's #4, #2, #21, ...

........................................................................
.............................. CYCLE   44 ..............................
........................................................................
   1   -255.7234588 -0.255723E+03  0.250E-02    0.95       0.0  T
   2   -255.7234599 -0.110226E-05  0.140E-02    0.95       1.0  T
   3   -255.7234504  0.952462E-05  0.741E-03    0.95       1.1  T
   4   -255.7234610 -0.106368E-04  0.103E-03    0.95       7.9  T
   5   -255.7234611 -0.119467E-06  0.588E-04    0.95      13.8  T
   6   -255.7234612 -0.407385E-07  0.231E-04    0.95      35.2  T
     SCC iter.                  ...        0 min,  0.132 sec
     gradient                   ...        0 min,  0.067 sec
 * total energy  :  -251.4818951 Eh     change       -0.8817122E-04 Eh
   gradient norm :     0.0028235 Eh/α   predicted    -0.5924040E-04 ( -32.81%)
   displ. norm   :     0.2795059 α      lambda       -0.2958856E-03
   maximum displ.:     0.1522277 α      in ANC's #4, #2, #21, ...

........................................................................
.............................. CYCLE   45 ..............................
........................................................................
   1   -255.7229709 -0.255723E+03  0.378E-02    0.95       0.0  T
   2   -255.7229715 -0.610534E-06  0.219E-02    0.95       1.0  T
   3   -255.7229242  0.473126E-04  0.147E-02    0.95       1.0  T
   4   -255.7229749 -0.507259E-04  0.205E-03    0.95       4.0  T
   5   -255.7229754 -0.471545E-06  0.119E-03    0.95       6.9  T
   6   -255.7229756 -0.155223E-06  0.549E-04    0.95      14.8  T
   7   -255.7229756 -0.272401E-07  0.268E-04    0.95      30.4  T
     SCC iter.                  ...        0 min,  0.151 sec
     gradient                   ...        0 min,  0.067 sec
 * total energy  :  -251.4820783 Eh     change       -0.1832008E-03 Eh
   gradient norm :     0.0069670 Eh/α   predicted    -0.1595016E-03 ( -12.94%)
   displ. norm   :     0.4119626 α      lambda       -0.3969011E-03
   maximum displ.:     0.2129423 α      in ANC's #4, #2, #21, ...

........................................................................
.............................. CYCLE   46 ..............................
........................................................................
   1   -255.7204602 -0.255720E+03  0.845E-02    0.95       0.0  T
   2   -255.7204714 -0.112083E-04  0.473E-02    0.94       1.0  T
   3   -255.7204160  0.553735E-04  0.167E-02    0.95       1.0  T
   4   -255.7204775 -0.615145E-04  0.369E-03    0.94       2.2  T
   5   -255.7204795 -0.194249E-05  0.196E-03    0.95       4.1  T
   6   -255.7204798 -0.356249E-06  0.681E-04    0.94      11.9  T
   7   -255.7204799 -0.452729E-07  0.349E-04    0.95      23.3  T
     SCC iter.                  ...        0 min,  0.158 sec
     gradient                   ...        0 min,  0.067 sec
 * total energy  :  -251.4821758 Eh     change       -0.9747910E-04 Eh
   gradient norm :     0.0120870 Eh/α   predicted    -0.2321311E-03 ( 138.13%)
   displ. norm   :     0.1927144 α      lambda       -0.3725319E-03
   maximum displ.:     0.1122893 α      in ANC's #4, #2, #7, ...

........................................................................
.............................. CYCLE   47 ..............................
........................................................................
   1   -255.7211061 -0.255721E+03  0.371E-02    0.95       0.0  T
   2   -255.7211082 -0.209573E-05  0.209E-02    0.95       1.0  T
   3   -255.7211022  0.596163E-05  0.606E-03    0.94       1.3  T
   4   -255.7211093 -0.703458E-05  0.132E-03    0.95       6.2  T
   5   -255.7211094 -0.116468E-06  0.782E-04    0.95      10.4  T
   6   -255.7211094 -0.496051E-07  0.338E-04    0.95      24.1  T
     SCC iter.                  ...        0 min,  0.132 sec
     gradient                   ...        0 min,  0.067 sec
 * total energy  :  -251.4824486 Eh     change       -0.2728007E-03 Eh
   gradient norm :     0.0085567 Eh/α   predicted    -0.1931842E-03 ( -29.18%)
   displ. norm   :     0.3098824 α      lambda       -0.3179857E-03
   maximum displ.:     0.1802656 α      in ANC's #4, #2, #7, ...

........................................................................
.............................. CYCLE   48 ..............................
........................................................................
   1   -255.7226075 -0.255723E+03  0.313E-02    0.95       0.0  T
   2   -255.7226086 -0.111624E-05  0.182E-02    0.95       1.0  T
   3   -255.7225973  0.112932E-04  0.756E-03    0.94       1.1  T
   4   -255.7226090 -0.116867E-04  0.172E-03    0.95       4.7  T
   5   -255.7226096 -0.562794E-06  0.810E-04    0.95      10.0  T
   6   -255.7226096 -0.906147E-07  0.346E-04    0.95      23.5  T
     SCC iter.                  ...        0 min,  0.132 sec
     gradient                   ...        0 min,  0.067 sec
 * total energy  :  -251.4826896 Eh     change       -0.2410436E-03 Eh
   gradient norm :     0.0046050 Eh/α   predicted    -0.1742610E-03 ( -27.71%)
   displ. norm   :     0.4545820 α      lambda       -0.3183026E-03
   maximum displ.:     0.2610385 α      in ANC's #4, #2, #7, ...

........................................................................
.............................. CYCLE   49 ..............................
........................................................................
   1   -255.7226269 -0.255723E+03  0.555E-02    0.95       0.0  T
   2   -255.7226302 -0.333764E-05  0.315E-02    0.95       1.0  T
   3   -255.7226106  0.196206E-04  0.100E-02    0.95       1.0  T
   4   -255.7226323 -0.216529E-04  0.200E-03    0.95       4.1  T
   5   -255.7226326 -0.342582E-06  0.124E-03    0.95       6.6  T
   6   -255.7226328 -0.160990E-06  0.516E-04    0.95      15.8  T
   7   -255.7226328 -0.371872E-07  0.232E-04    0.95      35.1  T
     SCC iter.                  ...        0 min,  0.152 sec
     gradient                   ...        0 min,  0.067 sec
 * total energy  :  -251.4829203 Eh     change       -0.2307146E-03 Eh
   gradient norm :     0.0059094 Eh/α   predicted    -0.1920400E-03 ( -16.76%)
   displ. norm   :     0.5727925 α      lambda       -0.4219676E-03
   maximum displ.:     0.3251120 α      in ANC's #4, #2, #7, ...

........................................................................
.............................. CYCLE   50 ..............................
........................................................................
   1   -255.7231131 -0.255723E+03  0.605E-02    0.95       0.0  T
   2   -255.7231162 -0.313172E-05  0.346E-02    0.95       1.0  T
   3   -255.7230910  0.252006E-04  0.112E-02    0.95       1.0  T
   4   -255.7231184 -0.273835E-04  0.222E-03    0.95       3.7  T
   5   -255.7231188 -0.410132E-06  0.142E-03    0.95       5.7  T
   6   -255.7231190 -0.217553E-06  0.544E-04    0.95      15.0  T
   7   -255.7231191 -0.387483E-07  0.271E-04    0.95      30.1  T
     SCC iter.                  ...        0 min,  0.155 sec
     gradient                   ...        0 min,  0.067 sec
 * total energy  :  -251.4831929 Eh     change       -0.2725959E-03 Eh
   gradient norm :     0.0087971 Eh/α   predicted    -0.2802078E-03 (   2.79%)
   displ. norm   :     0.5669996 α      lambda       -0.4949833E-03
   maximum displ.:     0.3364561 α      in ANC's #4, #2, #7, ...

........................................................................
.............................. CYCLE   51 ..............................
........................................................................
   1   -255.7226346 -0.255723E+03  0.751E-02    0.95       0.0  T
   2   -255.7226411 -0.654146E-05  0.423E-02    0.95       1.0  T
   3   -255.7226302  0.109191E-04  0.847E-03    0.95       1.0  T
   4   -255.7226441 -0.138896E-04  0.224E-03    0.95       3.6  T
   5   -255.7226442 -0.145722E-06  0.143E-03    0.95       5.7  T
   6   -255.7226445 -0.245328E-06  0.513E-04    0.95      15.9  T
   7   -255.7226445 -0.426660E-07  0.224E-04    0.95      36.3  T
     SCC iter.                  ...        0 min,  0.158 sec
     gradient                   ...        0 min,  0.067 sec
 * total energy  :  -251.4834815 Eh     change       -0.2886055E-03 Eh
   gradient norm :     0.0102526 Eh/α   predicted    -0.3270634E-03 (  13.33%)
   displ. norm   :     0.4736304 α      lambda       -0.4536186E-03
   maximum displ.:     0.2862436 α      in ANC's #4, #2, #7, ...

........................................................................
.............................. CYCLE   52 ..............................
........................................................................
   1   -255.7236889 -0.255724E+03  0.493E-02    0.95       0.0  T
   2   -255.7236913 -0.246424E-05  0.281E-02    0.95       1.0  T
   3   -255.7236899  0.144158E-05  0.405E-03    0.95       2.0  T
   4   -255.7236922 -0.235486E-05  0.147E-03    0.95       5.5  T
   5   -255.7236922  0.344568E-07  0.105E-03    0.95       7.8  T
   6   -255.7236924 -0.190784E-06  0.360E-04    0.95      22.6  T
   7   -255.7236924 -0.228972E-07  0.127E-04    0.95      64.2  T
     SCC iter.                  ...        0 min,  0.159 sec
     gradient                   ...        0 min,  0.067 sec
 * total energy  :  -251.4838626 Eh     change       -0.3810703E-03 Eh
   gradient norm :     0.0070151 Eh/α   predicted    -0.2776959E-03 ( -27.13%)
   displ. norm   :     0.6544993 α      lambda       -0.4864825E-03
   maximum displ.:     0.3976782 α      in ANC's #4, #2, #7, ...

........................................................................
.............................. CYCLE   53 ..............................
........................................................................
   1   -255.7243637 -0.255724E+03  0.589E-02    0.95       0.0  T
   2   -255.7243665 -0.285794E-05  0.337E-02    0.95       1.0  T
   3   -255.7243557  0.107906E-04  0.797E-03    0.95       1.0  T
   4   -255.7243678 -0.120907E-04  0.211E-03    0.95       3.8  T
   5   -255.7243681 -0.231379E-06  0.138E-03    0.95       5.9  T
   6   -255.7243683 -0.240981E-06  0.510E-04    0.95      15.9  T
   7   -255.7243683 -0.423718E-07  0.212E-04    0.95      38.4  T
     SCC iter.                  ...        0 min,  0.163 sec
     gradient                   ...        0 min,  0.067 sec
 * total energy  :  -251.4842835 Eh     change       -0.4209119E-03 Eh
   gradient norm :     0.0047721 Eh/α   predicted    -0.3474445E-03 ( -17.45%)
   displ. norm   :     0.7328367 α      lambda       -0.4651127E-03
   maximum displ.:     0.4485082 α      in ANC's #4, #2, #7, ...

........................................................................
.............................. CYCLE   54 ..............................
........................................................................
   1   -255.7257935 -0.255726E+03  0.567E-02    0.95       0.0  T
   2   -255.7257952 -0.172237E-05  0.328E-02    0.95       1.0  T
   3   -255.7257823  0.128985E-04  0.865E-03    0.95       1.0  T
   4   -255.7257963 -0.139488E-04  0.199E-03    0.95       4.1  T
   5   -255.7257965 -0.201306E-06  0.130E-03    0.95       6.3  T
   6   -255.7257967 -0.206052E-06  0.436E-04    0.95      18.7  T
   7   -255.7257967 -0.244527E-07  0.206E-04    0.95      39.5  T
     SCC iter.                  ...        0 min,  0.162 sec
     gradient                   ...        0 min,  0.067 sec
 * total energy  :  -251.4847119 Eh     change       -0.4284034E-03 Eh
   gradient norm :     0.0050081 Eh/α   predicted    -0.3574575E-03 ( -16.56%)
   displ. norm   :     0.7618433 α      lambda       -0.4731924E-03
   maximum displ.:     0.4659828 α      in ANC's #4, #2, #7, ...

........................................................................
.............................. CYCLE   55 ..............................
........................................................................
   1   -255.7249445 -0.255725E+03  0.551E-02    0.95       0.0  T
   2   -255.7249459 -0.141986E-05  0.320E-02    0.95       1.0  T
   3   -255.7249305  0.153980E-04  0.928E-03    0.95       1.0  T
   4   -255.7249471 -0.165436E-04  0.187E-03    0.95       4.4  T
   5   -255.7249473 -0.169749E-06  0.122E-03    0.95       6.7  T
   6   -255.7249474 -0.170497E-06  0.404E-04    0.95      20.2  T
   7   -255.7249475 -0.170796E-07  0.188E-04    0.95      43.3  T
     SCC iter.                  ...        0 min,  0.156 sec
     gradient                   ...        0 min,  0.067 sec
 * total energy  :  -251.4851508 Eh     change       -0.4388530E-03 Eh
   gradient norm :     0.0044862 Eh/α   predicted    -0.3739226E-03 ( -14.80%)
   displ. norm   :     0.7618081 α      lambda       -0.4930924E-03
   maximum displ.:     0.4703862 α      in ANC's #4, #2, #7, ...

........................................................................
.............................. CYCLE   56 ..............................
........................................................................
   1   -255.7282091 -0.255728E+03  0.540E-02    0.95       0.0  T
   2   -255.7282106 -0.155026E-05  0.313E-02    0.95       1.0  T
   3   -255.7281975  0.131266E-04  0.867E-03    0.95       1.0  T
   4   -255.7282115 -0.140460E-04  0.206E-03    0.95       3.9  T
   5   -255.7282118 -0.279364E-06  0.127E-03    0.95       6.4  T
   6   -255.7282120 -0.193113E-06  0.412E-04    0.95      19.7  T
   7   -255.7282120 -0.157399E-07  0.213E-04    0.95      38.2  T
     SCC iter.                  ...        0 min,  0.163 sec
     gradient                   ...        0 min,  0.067 sec
 * total energy  :  -251.4855863 Eh     change       -0.4354911E-03 Eh
   gradient norm :     0.0053269 Eh/α   predicted    -0.3896301E-03 ( -10.53%)
   displ. norm   :     0.7907862 α      lambda       -0.4717618E-03
   maximum displ.:     0.4897122 α      in ANC's #4, #2, #7, ...

........................................................................
.............................. CYCLE   57 ..............................
........................................................................
   1   -255.7256330 -0.255726E+03  0.500E-02    0.95       0.0  T
   2   -255.7256342 -0.112801E-05  0.292E-02    0.95       1.0  T
   3   -255.7256248  0.939815E-05  0.718E-03    0.95       1.1  T
   4   -255.7256348 -0.100801E-04  0.161E-03    0.95       5.1  T
   5   -255.7256351 -0.211309E-06  0.958E-04    0.95       8.5  T
   6   -255.7256352 -0.965805E-07  0.342E-04    0.95      23.8  T
     SCC iter.                  ...        0 min,  0.140 sec
     gradient                   ...        0 min,  0.067 sec
 * total energy  :  -251.4860213 Eh     change       -0.4349741E-03 Eh
   gradient norm :     0.0047399 Eh/α   predicted    -0.3833877E-03 ( -11.86%)
   displ. norm   :     0.7777004 α      lambda       -0.4734269E-03
   maximum displ.:     0.4896043 α      in ANC's #4, #2, #7, ...

........................................................................
.............................. CYCLE   58 ..............................
........................................................................
   1   -255.7259860 -0.255726E+03  0.442E-02    0.95       0.0  T
   2   -255.7259868 -0.814121E-06  0.259E-02    0.95       1.0  T
   3   -255.7259797  0.717434E-05  0.621E-03    0.95       1.3  T
   4   -255.7259874 -0.770924E-05  0.138E-03    0.95       5.9  T
   5   -255.7259875 -0.180370E-06  0.780E-04    0.95      10.4  T
   6   -255.7259876 -0.578244E-07  0.286E-04    0.95      28.5  T
     SCC iter.                  ...        0 min,  0.142 sec
     gradient                   ...        0 min,  0.067 sec
 * total energy  :  -251.4864658 Eh     change       -0.4445017E-03 Eh
   gradient norm :     0.0049675 Eh/α   predicted    -0.3798831E-03 ( -14.54%)
   displ. norm   :     0.8094663 α      lambda       -0.5201428E-03
   maximum displ.:     0.5141962 α      in ANC's #4, #2, #7, ...

........................................................................
[...]
    48   6 C    3.968 --    49 C    1.323    28 C    1.225    75 C    1.219
    49   6 C    3.967 --    50 C    1.458    48 C    1.323   128 H    0.953
    50   6 C    3.945 --    49 C    1.458    73 C    1.220    51 Se   1.099
    51  34 Se   2.554 --    52 C    1.118    50 C    1.099
    52   6 C    3.936 --    72 C    1.430    53 C    1.206    51 Se   1.118
    53   6 C    3.934 --    54 C    1.290    79 S    1.222    52 C    1.206
    54   6 C    3.955 --    77 C    1.459    53 C    1.290    55 C    0.968
    55   6 C    3.986 --    72 C    0.974    54 C    0.968    56 C    0.953
                            64 C    0.946
    56   6 C    3.983 --    63 C    1.417    57 C    1.398    55 C    0.953
                            59 C    0.105
    57   6 C    3.990 --    58 C    1.456    56 C    1.398   129 H    0.967
                            62 C    0.110
    58   6 C    3.990 --    57 C    1.456    59 C    1.403   130 H    0.968
                            63 C    0.107
    59   6 C    3.986 --    62 C    1.415    58 C    1.403    60 C    1.013
                            56 C    0.105
    60   6 C    3.997 --    59 C    1.013    61 C    1.000   131 H    0.974
                           132 H    0.974
    61   6 C    3.995 --    60 C    1.000   135 H    0.988   134 H    0.988
                           133 H    0.986
    62   6 C    3.991 --    63 C    1.441    59 C    1.415   136 H    0.969
                            57 C    0.110
    63   6 C    3.989 --    62 C    1.441    56 C    1.417   137 H    0.966
                            58 C    0.107
    64   6 C    3.982 --    71 C    1.408    65 C    1.408    55 C    0.946
                            67 C    0.105
    65   6 C    3.991 --    66 C    1.451    64 C    1.408   138 H    0.968
                            70 C    0.108
    66   6 C    3.991 --    65 C    1.451    67 C    1.408   139 H    0.969
                            71 C    0.107
    67   6 C    3.985 --    70 C    1.410    66 C    1.408    68 C    1.014
                            64 C    0.105
    68   6 C    3.997 --    67 C    1.014    69 C    1.000   140 H    0.975
                           141 H    0.973
    69   6 C    3.995 --    68 C    1.000   144 H    0.988   142 H    0.988
                           143 H    0.986
    70   6 C    3.990 --    71 C    1.446    67 C    1.410   145 H    0.969
                            65 C    0.108
    71   6 C    3.988 --    70 C    1.446    64 C    1.408   146 H    0.964
                            66 C    0.107
    72   6 C    3.926 --    52 C    1.430    73 C    1.229    55 C    0.974
    73   6 C    3.969 --    74 C    1.319    72 C    1.229    50 C    1.220
    74   6 C    3.963 --    75 C    1.463    73 C    1.319   147 H    0.953
    75   6 C    3.947 --    74 C    1.463    48 C    1.219    76 Se   1.095
    76  34 Se   2.552 --    27 C    1.121    75 C    1.095
    77   6 C    3.961 --    54 C    1.459    78 C    1.320   148 H    0.960
    78   6 C    3.928 --    80 C    1.336    77 C    1.320    79 S    1.100
    79  16 S    2.764 --    53 C    1.222    78 C    1.100    83 O    0.126
    80   6 C    3.946 --    81 C    1.460    78 C    1.336   149 H    0.938
    81   6 C    3.952 --    80 C    1.460    92 C    1.152    82 C    1.076
    82   6 C    3.921 --    83 O    1.712    81 C    1.076    84 C    1.015
    83   8 O    2.116 --    82 C    1.712    79 S    0.126
    84   6 C    3.975 --    85 C    1.420    91 C    1.301    82 C    1.015
    85   6 C    3.976 --    84 C    1.420    86 C    1.383   150 H    0.959
    86   6 C    3.881 --    85 C    1.383    88 C    1.334    87 F    0.987
    87   9 F    1.125 --    86 C    0.987
    88   6 C    3.888 --    90 C    1.387    86 C    1.334    89 F    0.990
    89   9 F    1.130 --    88 C    0.990
    90   6 C    3.971 --    91 C    1.404    88 C    1.387   151 H    0.954
    91   6 C    3.981 --    90 C    1.404    84 C    1.301    92 C    1.077
    92   6 C    3.970 --    93 C    1.482    81 C    1.152    91 C    1.077
    93   6 C    3.941 --    92 C    1.482    94 C    1.099    96 C    1.095
    94   6 C    3.945 --    95 N    2.753    93 C    1.099
    95   7 N    2.963 --    94 C    2.753
    96   6 C    3.945 --    97 N    2.766    93 C    1.095
    97   7 N    2.968 --    96 C    2.766
    98   1 H    0.991 --     1 C    0.950
    99   1 H    0.996 --     6 C    0.964
   100   1 H    0.997 --     9 C    0.960
   101   1 H    0.997 --    17 C    0.962
   102   1 H    0.999 --    18 C    0.971
   103   1 H    0.998 --    19 C    0.971
   104   1 H    0.998 --    20 C    0.971
   105   1 H    0.999 --    21 C    0.971
   106   1 H    0.999 --    22 C    0.974
   107   1 H    0.998 --    22 C    0.978
   108   1 H    0.997 --    23 C    0.962
   109   1 H    0.997 --    31 C    0.958
   110   1 H    0.999 --    33 C    0.964
   111   1 H    0.998 --    34 C    0.969
   112   1 H    0.998 --    36 C    0.974
   113   1 H    0.998 --    36 C    0.973
   114   1 H    0.998 --    37 C    0.986
   115   1 H    0.999 --    37 C    0.988
   116   1 H    0.999 --    37 C    0.988
   117   1 H    0.998 --    38 C    0.968
   118   1 H    0.998 --    39 C    0.963
   119   1 H    0.999 --    41 C    0.967
   120   1 H    0.998 --    42 C    0.969
   121   1 H    0.998 --    44 C    0.974
   122   1 H    0.998 --    44 C    0.974
   123   1 H    0.999 --    45 C    0.988
   124   1 H    0.998 --    45 C    0.986
   125   1 H    0.999 --    45 C    0.988
   126   1 H    0.998 --    46 C    0.969
   127   1 H    0.999 --    47 C    0.966
   128   1 H    0.996 --    49 C    0.953
   129   1 H    0.998 --    57 C    0.967
   130   1 H    0.998 --    58 C    0.968
   131   1 H    0.998 --    60 C    0.974
   132   1 H    0.998 --    60 C    0.974
   133   1 H    0.998 --    61 C    0.986
   134   1 H    0.999 --    61 C    0.988
   135   1 H    0.999 --    61 C    0.988
   136   1 H    0.998 --    62 C    0.969
   137   1 H    0.999 --    63 C    0.966
   138   1 H    0.999 --    65 C    0.968
   139   1 H    0.998 --    66 C    0.969
   140   1 H    0.998 --    68 C    0.975
   141   1 H    0.998 --    68 C    0.973
   142   1 H    0.999 --    69 C    0.988
   143   1 H    0.998 --    69 C    0.986
   144   1 H    0.999 --    69 C    0.988
   145   1 H    0.998 --    70 C    0.969
   146   1 H    0.999 --    71 C    0.964
   147   1 H    0.996 --    74 C    0.953
   148   1 H    0.996 --    77 C    0.960
   149   1 H    0.994 --    80 C    0.938
   150   1 H    0.991 --    85 C    0.959
   151   1 H    0.991 --    90 C    0.954
 ---------------------------------------------------------------------------

Topologies differ in bond orders
Writing corrected topology to xtbtopo.mol

molecular dipole:
                 x           y           z       tot (Debye)
 q only:       -1.920       2.597      -1.813
   full:       -2.474       2.615      -1.889      10.334
molecular quadrupole (traceless):
                xx          xy          yy          xz          yz          zz
 q only:       86.197       8.384      -2.901     -29.377      97.554     -83.296
  q+dip:       79.414       5.838       1.013     -27.730      90.234     -80.427
   full:       73.609       0.102      -0.180     -32.362      95.236     -73.428

           -------------------------------------------------
          |                Geometry Summary                 |
           -------------------------------------------------

      molecular mass/u    :     1423.4121329
   center of mass at/Å    :        0.5478325      -0.4718946       0.6356022
  moments of inertia/u·Å² :        0.1736047E+05   0.9241125E+05   0.9805108E+05
rotational constants/cm⁻¹ :        0.9710357E-03   0.1824197E-03   0.1719270E-03

 * 139 selected distances

     #   Z          #   Z                                           value/Å
     1   6 C        2   6 C                                       1.3633522
     3   6 C        4   8 O                                       1.2104415
     5   6 C        6   6 C                                       1.3933737
     6   6 C        7   6 C                                       1.3742592
     7   6 C        8   6 C                                       1.4016299
     8   6 C        9   6 C                                       1.3748132
     5   6 C       10   6 C                                       1.4107477
     9   6 C       10   6 C                                       1.3975262
    11   6 C       12   6 C                                       1.3723221
    13   6 C       14   7 N                                       1.1481743
    15   6 C       16   7 N                                       1.1483862
     8   6 C       17   6 C                                       1.5085683
    17   6 C       18   6 C                                       1.5434838
    19   6 C       20   6 C                                       1.3268872
    18   6 C       22   6 C                                       1.5342440
    21   6 C       22   6 C                                       1.5341412
     7   6 C       23   6 C                                       1.5085136
    17   6 C       23   6 C                                       1.5624366
    21   6 C       23   6 C                                       1.5435809
     1   6 C       24   6 C                                       1.4097750
    24   6 C       25  16 S                                       1.7563205
    25  16 S       26   6 C                                       1.7075159
    26   6 C       27   6 C                                       1.4164212
    27   6 C       28   6 C                                       1.3847101
    26   6 C       30   6 C                                       1.3972119
    24   6 C       31   6 C                                       1.3919472
    30   6 C       31   6 C                                       1.3826769
    32   6 C       33   6 C                                       1.3885757
    33   6 C       34   6 C                                       1.3826010
    34   6 C       35   6 C                                       1.3884380
    36   6 C       37   6 C                                       1.5300086
    35   6 C       38   6 C                                       1.3886069
    32   6 C       39   6 C                                       1.3886952
    38   6 C       39   6 C                                       1.3818918
    40   6 C       41   6 C                                       1.3907465
    41   6 C       42   6 C                                       1.3807504
    42   6 C       43   6 C                                       1.3896571
    44   6 C       45   6 C                                       1.5301721
    43   6 C       46   6 C                                       1.3873834
    40   6 C       47   6 C                                       1.3867619
    46   6 C       47   6 C                                       1.3837972
    28   6 C       48   6 C                                       1.4129292
    48   6 C       49   6 C                                       1.3961689
    49   6 C       50   6 C                                       1.3754363
    51  34 Se      52   6 C                                       1.8695151 (max)
    52   6 C       53   6 C                                       1.4149046
    53   6 C       54   6 C                                       1.4059486
    56   6 C       57   6 C                                       1.3905927
    57   6 C       58   6 C                                       1.3809321
    58   6 C       59   6 C                                       1.3896109
    60   6 C       61   6 C                                       1.5300390
    59   6 C       62   6 C                                       1.3875623
    56   6 C       63   6 C                                       1.3868327
    62   6 C       63   6 C                                       1.3837075
    64   6 C       65   6 C                                       1.3889874
    65   6 C       66   6 C                                       1.3818784
    66   6 C       67   6 C                                       1.3886738
    68   6 C       69   6 C                                       1.5300140
    67   6 C       70   6 C                                       1.3883972
    64   6 C       71   6 C                                       1.3882646
    70   6 C       71   6 C                                       1.3825508
    52   6 C       72   6 C                                       1.3859725
    50   6 C       73   6 C                                       1.4265998
    72   6 C       73   6 C                                       1.4119570
    73   6 C       74   6 C                                       1.3966523
    48   6 C       75   6 C                                       1.4268702
    74   6 C       75   6 C                                       1.3745144
    27   6 C       76  34 Se                                      1.8676820
    54   6 C       77   6 C                                       1.3722101
    77   6 C       78   6 C                                       1.4071738
    53   6 C       79  16 S                                       1.7074754
    78   6 C       80   6 C                                       1.3956753
    80   6 C       81   6 C                                       1.3772810
    82   6 C       83   8 O                                       1.2177692
    84   6 C       85   6 C                                       1.3801035
    85   6 C       86   6 C                                       1.3858483
    86   6 C       87   9 F                                       1.3391001
    86   6 C       88   6 C                                       1.3944099
    88   6 C       89   9 F                                       1.3383187
    88   6 C       90   6 C                                       1.3875340
    84   6 C       91   6 C                                       1.4046992
    90   6 C       91   6 C                                       1.3857186
    92   6 C       93   6 C                                       1.3717854
    94   6 C       95   7 N                                       1.1490383
    96   6 C       97   7 N                                       1.1478317
     1   6 C       98   1 H                                       1.0858632
     6   6 C       99   1 H                                       1.0786123
     9   6 C      100   1 H                                       1.0778906
    17   6 C      101   1 H                                       1.0882109
    18   6 C      102   1 H                                       1.0866468
    19   6 C      103   1 H                                       1.0741525 (min)
    20   6 C      104   1 H                                       1.0741663
    21   6 C      105   1 H                                       1.0866641
    22   6 C      106   1 H                                       1.0885585
    22   6 C      107   1 H                                       1.0888001
    23   6 C      108   1 H                                       1.0882346
    31   6 C      109   1 H                                       1.0746320
    33   6 C      110   1 H                                       1.0810950
    34   6 C      111   1 H                                       1.0808951
    36   6 C      112   1 H                                       1.0913877
    36   6 C      113   1 H                                       1.0918783
    37   6 C      114   1 H                                       1.0874506
    37   6 C      115   1 H                                       1.0878520
    37   6 C      116   1 H                                       1.0876626
    38   6 C      117   1 H                                       1.0799805
    39   6 C      118   1 H                                       1.0796450
    41   6 C      119   1 H                                       1.0803661
    42   6 C      120   1 H                                       1.0807203
    44   6 C      121   1 H                                       1.0917710
    44   6 C      122   1 H                                       1.0917716
    45   6 C      123   1 H                                       1.0877347
    45   6 C      124   1 H                                       1.0873706
    45   6 C      125   1 H                                       1.0877715
    46   6 C      126   1 H                                       1.0806389
    47   6 C      127   1 H                                       1.0797241
    49   6 C      128   1 H                                       1.0788635
    57   6 C      129   1 H                                       1.0800384
    58   6 C      130   1 H                                       1.0804779
    60   6 C      131   1 H                                       1.0916763
    60   6 C      132   1 H                                       1.0919080
    61   6 C      133   1 H                                       1.0873787
    61   6 C      134   1 H                                       1.0877632
    61   6 C      135   1 H                                       1.0876578
    62   6 C      136   1 H                                       1.0806739
    63   6 C      137   1 H                                       1.0797695
    65   6 C      138   1 H                                       1.0806405
    66   6 C      139   1 H                                       1.0805390
    68   6 C      140   1 H                                       1.0915596
    68   6 C      141   1 H                                       1.0918136
    69   6 C      142   1 H                                       1.0876344
    69   6 C      143   1 H                                       1.0873313
    69   6 C      144   1 H                                       1.0876044
    70   6 C      145   1 H                                       1.0806767
    71   6 C      146   1 H                                       1.0806627
    74   6 C      147   1 H                                       1.0788945
    77   6 C      148   1 H                                       1.0751585
    80   6 C      149   1 H                                       1.0832231
    85   6 C      150   1 H                                       1.0782916
    90   6 C      151   1 H                                       1.0774376

 * 7 distinct bonds (by element types)

   Z      Z             #   av. dist./Å        max./Å        min./Å
   1 H    6 C          54     1.0839967     1.0919080     1.0741525
   6 C    6 C          72     1.4113770     1.5624366     1.3268872
   6 C    7 N           4     1.1483576     1.1490383     1.1478317
   6 C    8 O           2     1.2141053     1.2177692     1.2104415
   6 C    9 F           2     1.3387094     1.3391001     1.3383187
   6 C   16 S           3     1.7237706     1.7563205     1.7074754
   6 C   34 Se          2     1.8685986     1.8695151     1.8676820


optimized geometry written to: xtbopt.mol


           -------------------------------------------------
          | TOTAL ENERGY             -251.508934680938 Eh   |
          | GRADIENT NORM               0.000408605407 Eh/α |
          | HOMO-LUMO GAP               0.944503826811 eV   |
           -------------------------------------------------

------------------------------------------------------------------------
 * finished run on 2022/02/02 at 05:31:22.135     
------------------------------------------------------------------------
 total:
 * wall-time:     0 d,  0 h,  0 min, 52.818 sec
 *  cpu-time:     0 d,  0 h,  7 min,  2.332 sec
 * ratio c/w:     7.996 speedup
 SCF:
 * wall-time:     0 d,  0 h,  0 min,  0.407 sec
 *  cpu-time:     0 d,  0 h,  0 min,  3.247 sec
 * ratio c/w:     7.985 speedup
 ANC optimizer:
 * wall-time:     0 d,  0 h,  0 min, 52.331 sec
 *  cpu-time:     0 d,  0 h,  6 min, 58.520 sec
 * ratio c/w:     7.998 speedup

