      -----------------------------------------------------------      
     |                   =====================                   |     
     |                           x T B                           |     
     |                   =====================                   |     
     |                         S. Grimme                         |     
     |          Mulliken Center for Theoretical Chemistry        |     
     |                    University of Bonn                     |     
      -----------------------------------------------------------      

   * xtb version 6.4.1 (unknown) compiled by 'oda6@login1.crc.pitt.edu' on 2021-06-25

   xtb is free software: you can redistribute it and/or modify it under
   the terms of the GNU Lesser General Public License as published by
   the Free Software Foundation, either version 3 of the License, or
   (at your option) any later version.
   
   xtb is distributed in the hope that it will be useful,
   but WITHOUT ANY WARRANTY; without even the implied warranty of
   MERCHANTABILITY or FITNESS FOR A PARTICULAR PURPOSE.  See the
   GNU Lesser General Public License for more details.
   
   Cite this work as:
   * C. Bannwarth, E. Caldeweyher, S. Ehlert, A. Hansen, P. Pracht,
     J. Seibert, S. Spicher, S. Grimme, WIREs Comput. Mol. Sci., 2020, 11,
     e01493. DOI: 10.1002/wcms.1493
   
   for GFN2-xTB:
   * C. Bannwarth, S. Ehlert and S. Grimme., J. Chem. Theory Comput., 2019,
     15, 1652-1671. DOI: 10.1021/acs.jctc.8b01176
   for GFN1-xTB:
   * S. Grimme, C. Bannwarth, P. Shushkov, J. Chem. Theory Comput., 2017,
     13, 1989-2009. DOI: 10.1021/acs.jctc.7b00118
   for GFN0-xTB:
   * P. Pracht, E. Caldeweyher, S. Ehlert, S. Grimme, ChemRxiv, 2019, preprint.
     DOI: 10.26434/chemrxiv.8326202.v1
   for GFN-FF:
   * S. Spicher and S. Grimme, Angew. Chem. Int. Ed., 2020, 59, 15665-15673.
     DOI: 10.1002/anie.202004239
   
   for DFT-D4:
   * E. Caldeweyher, C. Bannwarth and S. Grimme, J. Chem. Phys., 2017,
     147, 034112. DOI: 10.1063/1.4993215
   * E. Caldeweyher, S. Ehlert, A. Hansen, H. Neugebauer, S. Spicher,
     C. Bannwarth and S. Grimme, J. Chem. Phys., 2019, 150, 154122.
     DOI: 10.1063/1.5090222
   * E. Caldeweyher, J.-M. Mewes, S. Ehlert and S. Grimme, Phys. Chem. Chem. Phys.
     2020, 22, 8499-8512. DOI: 10.1039/D0CP00502A
   
   for sTDA-xTB:
   * S. Grimme and C. Bannwarth, J. Chem. Phys., 2016, 145, 054103.
     DOI: 10.1063/1.4959605
   
   in the mass-spec context:
   * V. Asgeirsson, C. Bauer and S. Grimme, Chem. Sci., 2017, 8, 4879.
     DOI: 10.1039/c7sc00601b
   * J. Koopman and S. Grimme, ACS Omega 2019, 4, 12, 15120-15133.
     DOI: 10.1021/acsomega.9b02011
   
   for metadynamics refer to:
   * S. Grimme, J. Chem. Theory Comput., 2019, 155, 2847-2862
     DOI: 10.1021/acs.jctc.9b00143
   
   for SPH calculations refer to:
   * S. Spicher and S. Grimme, J. Chem. Theory Comput., 2021, 17, 1701-1714
     DOI: 10.1021/acs.jctc.0c01306
   
   with help from (in alphabetical order)
   P. Atkinson, C. Bannwarth, F. Bohle, G. Brandenburg, E. Caldeweyher
   M. Checinski, S. Dohm, S. Ehlert, S. Ehrlich, I. Gerasimov, J. Koopman
   C. Lavigne, S. Lehtola, F. März, M. Müller, F. Musil, H. Neugebauer
   J. Pisarek, C. Plett, P. Pracht, J. Seibert, P. Shushkov, S. Spicher
   M. Stahn, M. Steiner, T. Strunk, J. Stückrath, T. Rose, and J. Unsleber
   
 * started run on 2022/02/02 at 06:37:27.068     

           -------------------------------------------------
          |                Calculation Setup                |
           -------------------------------------------------

          program call               : /ihome/ghutchison/oda6/xtb/xtb-641/bin/xtb ../../FF_optimized/39_115_35.mol -opt
          hostname                   : smp-n98
          coordinate file            : ../../FF_optimized/39_115_35.mol
          omp threads                :                     8
          number of atoms            :                   108
          number of electrons        :                   354
          charge                     :                     0
          spin                       :                   0.0
          first test random number   :      0.61055154627975

   ID    Z sym.   atoms
    1    6 C      1-3, 5-13, 15, 17-29, 31, 32, 34, 35, 39-41, 43-45, 47, 48,
                  50-53, 55-59, 61-64, 66-71, 73
    2    8 O      4, 60, 65
    3    7 N      14, 16, 36, 38, 49, 54, 72, 74
    4   16 S      30, 33, 37, 42, 46
    5    1 H      75-108
########################################################################
[WARNING] Please study the warnings concerning your input carefully
-1- prog_main_parseArguments: the use of '-opt' is discouraged, please use '--opt' next time
########################################################################

           -------------------------------------------------
          |                 G F N 2 - x T B                 |
           -------------------------------------------------

        Reference                      10.1021/acs.jctc.8b01176
      * Hamiltonian:
        H0-scaling (s, p, d)           1.850000    2.230000    2.230000
        zeta-weighting                 0.500000
      * Dispersion:
        s8                             2.700000
        a1                             0.520000
        a2                             5.000000
        s9                             5.000000
      * Repulsion:
        kExp                           1.500000    1.000000
        rExp                           1.000000
      * Coulomb:
        alpha                          2.000000
        third order                    shell-resolved
        anisotropic                    true
        a3                             3.000000
        a5                             4.000000
        cn-shift                       1.200000
        cn-exp                         4.000000
        max-rad                        5.000000


          ...................................................
          :                      SETUP                      :
          :.................................................:
          :  # basis functions                 360          :
          :  # atomic orbitals                 355          :
          :  # shells                          187          :
          :  # electrons                       354          :
          :  max. iterations                   250          :
          :  Hamiltonian                  GFN2-xTB          :
          :  restarted?                      false          :
          :  GBSA solvation                  false          :
          :  PC potential                    false          :
          :  electronic temp.          300.0000000     K    :
          :  accuracy                    1.0000000          :
          :  -> integral cutoff          0.2500000E+02      :
          :  -> integral neglect         0.1000000E-07      :
          :  -> SCF convergence          0.1000000E-05 Eh   :
          :  -> wf. convergence          0.1000000E-03 e    :
          :  Broyden damping             0.4000000          :
          ...................................................

 iter      E             dE          RMSdq      gap      omega  full diag
   1   -195.6989723 -0.195699E+03  0.474E+00    1.35       0.0  T
   2   -195.8820771 -0.183105E+00  0.298E+00    1.11       1.0  T
   3   -195.8268162  0.552610E-01  0.195E+00    1.10       1.0  T
   4   -196.0278508 -0.201035E+00  0.778E-01    1.24       1.0  T
   5   -196.0779110 -0.500603E-01  0.233E-01    1.02       1.0  T
   6   -196.0817563 -0.384527E-02  0.117E-01    1.13       1.0  T
   7   -196.0824920 -0.735744E-03  0.493E-02    1.12       1.0  T
   8   -196.0826549 -0.162872E-03  0.215E-02    1.12       1.0  T
   9   -196.0826733 -0.184323E-04  0.112E-02    1.12       1.0  T
  10   -196.0826799 -0.660486E-05  0.534E-03    1.12       1.8  T
  11   -196.0826809 -0.100112E-05  0.280E-03    1.12       3.4  T
  12   -196.0826814 -0.418846E-06  0.141E-03    1.12       6.8  T
  13   -196.0826814 -0.706367E-07  0.718E-04    1.12      13.4  T
  14   -196.0826814 -0.174237E-07  0.355E-04    1.12      27.1  T

   *** convergence criteria satisfied after 14 iterations ***

         #    Occupation            Energy/Eh            Energy/eV
      -------------------------------------------------------------
         1        2.0000           -0.7606237             -20.6976
       ...           ...                  ...                  ...
       171        2.0000           -0.4044898             -11.0067
       172        2.0000           -0.4037649             -10.9870
       173        2.0000           -0.4027626             -10.9597
       174        2.0000           -0.3929668             -10.6932
       175        2.0000           -0.3864011             -10.5145
       176        2.0000           -0.3766935             -10.2504
       177        2.0000           -0.3706238             -10.0852 (HOMO)
       178                         -0.3295847              -8.9685 (LUMO)
       179                         -0.3277317              -8.9180
       180                         -0.3208510              -8.7308
       181                         -0.3169455              -8.6245
       182                         -0.3065328              -8.3412
       ...                                ...                  ...
       355                          1.0855812              29.5402
      -------------------------------------------------------------
                  HL-Gap            0.0410391 Eh            1.1167 eV
             Fermi-level           -0.3501666 Eh           -9.5285 eV

 SCC (total)                   0 d,  0 h,  0 min,  0.264 sec
 SCC setup                      ...        0 min,  0.001 sec (  0.251%)
 Dispersion                     ...        0 min,  0.004 sec (  1.567%)
 classical contributions        ...        0 min,  0.000 sec (  0.044%)
 integral evaluation            ...        0 min,  0.014 sec (  5.365%)
 iterations                     ...        0 min,  0.207 sec ( 78.386%)
 molecular gradient             ...        0 min,  0.037 sec ( 13.958%)
 printout                       ...        0 min,  0.001 sec (  0.396%)

         :::::::::::::::::::::::::::::::::::::::::::::::::::::
         ::                     SUMMARY                     ::
         :::::::::::::::::::::::::::::::::::::::::::::::::::::
         :: total energy            -193.128929875098 Eh    ::
         :: gradient norm              0.294883877988 Eh/a0 ::
         :: HOMO-LUMO gap              1.116731284632 eV    ::
         ::.................................................::
         :: SCC energy              -196.082681447194 Eh    ::
         :: -> isotropic ES            0.128268471879 Eh    ::
         :: -> anisotropic ES          0.013287824311 Eh    ::
         :: -> anisotropic XC          0.132293719144 Eh    ::
         :: -> dispersion             -0.171637823309 Eh    ::
         :: repulsion energy           2.953356598031 Eh    ::
         :: add. restraining           0.000000000000 Eh    ::
         :: total charge              -0.000000000117 e     ::
         :::::::::::::::::::::::::::::::::::::::::::::::::::::

      ----------------------------------------------------------- 
     |                   =====================                   |
     |                        A N C O P T                        |
     |                   =====================                   |
     |               Approximate Normal Coordinate               |
     |                Rational Function Optimizer                |
      ----------------------------------------------------------- 

          ...................................................
          :                      SETUP                      :
          :.................................................:
          :   optimization level            normal          :
          :   max. optcycles                   324          :
          :   ANC micro-cycles                  20          :
          :   degrees of freedom               318          :
          :.................................................:
          :   RF solver                   davidson          :
          :   write xtbopt.log                true          :
          :   linear?                        false          :
          :   energy convergence         0.5000000E-05 Eh   :
          :   grad. convergence          0.1000000E-02 Eh/α :
          :   maximium RF displ.         1.0000000          :
          :   Hlow (freq-cutoff)         0.1000000E-01      :
          :   Hmax (freq-cutoff)         5.0000000          :
          :   S6 in model hess.         20.0000000          :
          ...................................................

generating ANC from model Hessian ...
Using Lindh-Hessian (1995)
 Shifting diagonal of input Hessian by   1.000247627495010E-002
 Lowest  eigenvalues of input Hessian
    0.010000    0.000000    0.000000    0.000000    0.000000    0.000000
    0.000000    0.010033    0.010048    0.010083    0.010094    0.010175
    0.010217    0.010281    0.010321    0.010523    0.010660    0.010687
 Highest eigenvalues
    2.306441    2.322787    2.491614    2.511526    2.554801    2.566330
 

........................................................................
.............................. CYCLE    1 ..............................
........................................................................
   1   -196.0826815 -0.196083E+03  0.157E-04    1.12       0.0  T
   2   -196.0826815 -0.229363E-10  0.127E-04    1.12      75.6  T
   3   -196.0826815 -0.140611E-08  0.670E-05    1.12     143.7  T
     SCC iter.                  ...        0 min,  0.046 sec
     gradient                   ...        0 min,  0.032 sec
 * total energy  :  -193.1289299 Eh     change       -0.7174492E-08 Eh
   gradient norm :     0.2948854 Eh/α   predicted     0.0000000E+00 (-100.00%)
   displ. norm   :     0.4645574 α      lambda       -0.9719777E-01
   maximum displ.:     0.0976200 α      in ANC's #177, #87, #142, ...

........................................................................
.............................. CYCLE    2 ..............................
........................................................................
   1   -196.2045798 -0.196205E+03  0.351E-01    1.10       0.0  T
   2   -196.2059168 -0.133700E-02  0.204E-01    1.11       1.0  T
   3   -196.2056324  0.284326E-03  0.110E-01    1.11       1.0  T
   4   -196.2062501 -0.617718E-03  0.444E-02    1.10       1.0  T
   5   -196.2063500 -0.998605E-04  0.199E-02    1.11       1.0  T
   6   -196.2063680 -0.179577E-04  0.922E-03    1.11       1.0  T
   7   -196.2063745 -0.653459E-05  0.402E-03    1.11       2.4  T
   8   -196.2063753 -0.835213E-06  0.206E-03    1.11       4.7  T
   9   -196.2063754 -0.792841E-07  0.110E-03    1.11       8.7  T
  10   -196.2063755 -0.943808E-07  0.406E-04    1.11      23.7  T
  11   -196.2063755 -0.125867E-07  0.151E-04    1.11      63.6  T
     SCC iter.                  ...        0 min,  0.158 sec
     gradient                   ...        0 min,  0.033 sec
 * total energy  :  -193.1989646 Eh     change       -0.7003475E-01 Eh
   gradient norm :     0.1356393 Eh/α   predicted    -0.5913345E-01 ( -15.57%)
   displ. norm   :     0.4452934 α      lambda       -0.3720605E-01
   maximum displ.:     0.1010554 α      in ANC's #87, #64, #52, ...

........................................................................
.............................. CYCLE    3 ..............................
........................................................................
   1   -196.2606786 -0.196261E+03  0.263E-01    1.07       0.0  T
   2   -196.2614964 -0.817774E-03  0.154E-01    1.10       1.0  T
   3   -196.2613474  0.149019E-03  0.869E-02    1.09       1.0  T
   4   -196.2617384 -0.391010E-03  0.331E-02    1.09       1.0  T
   5   -196.2617981 -0.597453E-04  0.152E-02    1.10       1.0  T
   6   -196.2618111 -0.129708E-04  0.692E-03    1.09       1.4  T
   7   -196.2618138 -0.270388E-05  0.334E-03    1.09       2.9  T
   8   -196.2618146 -0.792172E-06  0.167E-03    1.10       5.8  T
   9   -196.2618147 -0.113696E-06  0.888E-04    1.09      10.8  T
  10   -196.2618147 -0.515206E-07  0.302E-04    1.09      31.8  T
     SCC iter.                  ...        0 min,  0.145 sec
     gradient                   ...        0 min,  0.033 sec
 * total energy  :  -193.2217019 Eh     change       -0.2273731E-01 Eh
   gradient norm :     0.0368735 Eh/α   predicted    -0.2229175E-01 (  -1.96%)
   displ. norm   :     0.4291800 α      lambda       -0.7836949E-02
   maximum displ.:     0.1236779 α      in ANC's #44, #64, #52, ...

........................................................................
.............................. CYCLE    4 ..............................
........................................................................
   1   -196.2738185 -0.196274E+03  0.170E-01    1.10       0.0  T
   2   -196.2739025 -0.839877E-04  0.101E-01    1.11       1.0  T
   3   -196.2737065  0.195935E-03  0.490E-02    1.11       1.0  T
   4   -196.2739513 -0.244789E-03  0.101E-02    1.11       1.0  T
   5   -196.2739576 -0.629314E-05  0.521E-03    1.11       1.8  T
   6   -196.2739595 -0.191839E-05  0.219E-03    1.11       4.4  T
   7   -196.2739597 -0.169157E-06  0.113E-03    1.11       8.5  T
   8   -196.2739597 -0.600232E-07  0.499E-04    1.11      19.3  T
   9   -196.2739597 -0.359719E-08  0.310E-04    1.11      31.0  T
     SCC iter.                  ...        0 min,  0.129 sec
     gradient                   ...        0 min,  0.033 sec
 * total energy  :  -193.2264663 Eh     change       -0.4764336E-02 Eh
   gradient norm :     0.0215758 Eh/α   predicted    -0.4640448E-02 (  -2.60%)
   displ. norm   :     0.5740101 α      lambda       -0.6352996E-02
   maximum displ.:     0.1563320 α      in ANC's #19, #51, #28, ...

........................................................................
.............................. CYCLE    5 ..............................
........................................................................
   1   -196.2643855 -0.196264E+03  0.378E-01    1.10       0.0  T
   2   -196.2645855 -0.200034E-03  0.211E-01    1.12       1.0  T
   3   -196.2640420  0.543474E-03  0.706E-02    1.10       1.0  T
   4   -196.2646893 -0.647248E-03  0.153E-02    1.12       1.0  T
   5   -196.2647037 -0.144020E-04  0.858E-03    1.12       1.1  T
   6   -196.2647079 -0.423817E-05  0.316E-03    1.12       3.0  T
   7   -196.2647084 -0.481771E-06  0.136E-03    1.12       7.1  T
   8   -196.2647085 -0.960401E-07  0.653E-04    1.12      14.7  T
   9   -196.2647085 -0.103298E-07  0.360E-04    1.12      26.7  T
     SCC iter.                  ...        0 min,  0.130 sec
     gradient                   ...        0 min,  0.032 sec
 * total energy  :  -193.2263920 Eh     change        0.7428246E-04 Eh
   gradient norm :     0.0527113 Eh/α   predicted    -0.4223104E-02 (*******%)
   displ. norm   :     0.2962131 α      lambda       -0.6720869E-02
   maximum displ.:     0.1152028 α      in ANC's #8, #40, #31, ...

........................................................................
.............................. CYCLE    6 ..............................
........................................................................
   1   -196.2770307 -0.196277E+03  0.298E-01    1.13       0.0  T
   2   -196.2771559 -0.125190E-03  0.165E-01    1.14       1.0  T
   3   -196.2770533  0.102514E-03  0.336E-02    1.12       1.0  T
   4   -196.2772032 -0.149893E-03  0.715E-03    1.13       1.3  T
   5   -196.2772052 -0.193334E-05  0.382E-03    1.13       2.5  T
   6   -196.2772058 -0.663167E-06  0.168E-03    1.13       5.7  T
   7   -196.2772060 -0.137376E-06  0.744E-04    1.13      12.9  T
   8   -196.2772060 -0.554736E-07  0.282E-04    1.13      34.1  T
     SCC iter.                  ...        0 min,  0.116 sec
     gradient                   ...        0 min,  0.032 sec
 * total energy  :  -193.2290778 Eh     change       -0.2685804E-02 Eh
   gradient norm :     0.0286661 Eh/α   predicted    -0.3655302E-02 (  36.10%)
   displ. norm   :     0.3376156 α      lambda       -0.3295193E-02
   maximum displ.:     0.1147544 α      in ANC's #39, #19, #40, ...

........................................................................
.............................. CYCLE    7 ..............................
........................................................................
   1   -196.2701987 -0.196270E+03  0.290E-01    1.14       0.0  T
   2   -196.2703150 -0.116334E-03  0.161E-01    1.14       1.0  T
   3   -196.2701868  0.128195E-03  0.379E-02    1.13       1.0  T
   4   -196.2703583 -0.171490E-03  0.102E-02    1.14       1.0  T
   5   -196.2703650 -0.666890E-05  0.494E-03    1.14       1.9  T
   6   -196.2703667 -0.167890E-05  0.166E-03    1.14       5.8  T
   7   -196.2703668 -0.969343E-07  0.877E-04    1.14      11.0  T
   8   -196.2703668 -0.614071E-07  0.379E-04    1.14      25.4  T
     SCC iter.                  ...        0 min,  0.116 sec
     gradient                   ...        0 min,  0.032 sec
 * total energy  :  -193.2287836 Eh     change        0.2941858E-03 Eh
   gradient norm :     0.0221196 Eh/α   predicted    -0.1835410E-02 (-723.89%)
   displ. norm   :     0.2206441 α      lambda       -0.2922281E-02
   maximum displ.:     0.0708944 α      in ANC's #28, #40, #19, ...

........................................................................
.............................. CYCLE    8 ..............................
........................................................................
   1   -196.2763904 -0.196276E+03  0.179E-01    1.14       0.0  T
   2   -196.2764307 -0.402671E-04  0.990E-02    1.15       1.0  T
   3   -196.2763517  0.790103E-04  0.260E-02    1.14       1.0  T
   4   -196.2764528 -0.101123E-03  0.474E-03    1.15       2.0  T
   5   -196.2764537 -0.926315E-06  0.274E-03    1.15       3.5  T
   6   -196.2764540 -0.245203E-06  0.109E-03    1.15       8.9  T
   7   -196.2764541 -0.105493E-06  0.403E-04    1.15      23.9  T
   8   -196.2764541 -0.101061E-07  0.203E-04    1.15      47.4  T
     SCC iter.                  ...        0 min,  0.116 sec
     gradient                   ...        0 min,  0.032 sec
 * total energy  :  -193.2304654 Eh     change       -0.1681791E-02 Eh
   gradient norm :     0.0162259 Eh/α   predicted    -0.1532271E-02 (  -8.89%)
   displ. norm   :     0.2570621 α      lambda       -0.8263983E-03
   maximum displ.:     0.1125657 α      in ANC's #28, #5, #7, ...

........................................................................
.............................. CYCLE    9 ..............................
........................................................................
   1   -196.2723933 -0.196272E+03  0.996E-02    1.14       0.0  T
   2   -196.2724055 -0.122240E-04  0.559E-02    1.15       1.0  T
   3   -196.2722926  0.112851E-03  0.310E-02    1.14       1.0  T
   4   -196.2724213 -0.128666E-03  0.386E-03    1.15       2.5  T
   5   -196.2724218 -0.531466E-06  0.246E-03    1.15       3.9  T
   6   -196.2724222 -0.331105E-06  0.879E-04    1.15      10.9  T
   7   -196.2724222 -0.451560E-07  0.353E-04    1.15      27.2  T
     SCC iter.                  ...        0 min,  0.102 sec
     gradient                   ...        0 min,  0.033 sec
 * total energy  :  -193.2309810 Eh     change       -0.5155710E-03 Eh
   gradient norm :     0.0109125 Eh/α   predicted    -0.4405061E-03 ( -14.56%)
   displ. norm   :     0.3389659 α      lambda       -0.6126327E-03
   maximum displ.:     0.1533726 α      in ANC's #28, #5, #24, ...

........................................................................
.............................. CYCLE   10 ..............................
........................................................................
   1   -196.2709918 -0.196271E+03  0.915E-02    1.15       0.0  T
   2   -196.2709978 -0.594624E-05  0.524E-02    1.16       1.0  T
   3   -196.2708601  0.137672E-03  0.321E-02    1.14       1.0  T
   4   -196.2710141 -0.154050E-03  0.431E-03    1.15       2.2  T
   5   -196.2710150 -0.868494E-06  0.250E-03    1.15       3.9  T
   6   -196.2710153 -0.289843E-06  0.978E-04    1.15       9.8  T
   7   -196.2710154 -0.905792E-07  0.359E-04    1.15      26.8  T
     SCC iter.                  ...        0 min,  0.101 sec
     gradient                   ...        0 min,  0.033 sec
 * total energy  :  -193.2314264 Eh     change       -0.4454737E-03 Eh
   gradient norm :     0.0093113 Eh/α   predicted    -0.3415149E-03 ( -23.34%)
   displ. norm   :     0.4254970 α      lambda       -0.6142561E-03
   maximum displ.:     0.1701977 α      in ANC's #28, #5, #7, ...

........................................................................
.............................. CYCLE   11 ..............................
........................................................................
   1   -196.2744930 -0.196274E+03  0.102E-01    1.15       0.0  T
   2   -196.2745027 -0.965632E-05  0.583E-02    1.16       1.0  T
   3   -196.2743690  0.133642E-03  0.322E-02    1.15       1.0  T
   4   -196.2745193 -0.150212E-03  0.465E-03    1.16       2.1  T
   5   -196.2745199 -0.679554E-06  0.287E-03    1.16       3.4  T
   6   -196.2745204 -0.420514E-06  0.965E-04    1.16      10.0  T
   7   -196.2745204 -0.753136E-07  0.415E-04    1.16      23.2  T
     SCC iter.                  ...        0 min,  0.103 sec
     gradient                   ...        0 min,  0.032 sec
 * total energy  :  -193.2317220 Eh     change       -0.2955583E-03 Eh
   gradient norm :     0.0090536 Eh/α   predicted    -0.3627338E-03 (  22.73%)
   displ. norm   :     0.2521137 α      lambda       -0.3483314E-03
   maximum displ.:     0.1087423 α      in ANC's #5, #7, #28, ...

........................................................................
.............................. CYCLE   12 ..............................
........................................................................
   1   -196.2764597 -0.196276E+03  0.749E-02    1.15       0.0  T
   2   -196.2764647 -0.501809E-05  0.419E-02    1.16       1.0  T
   3   -196.2764225  0.422830E-04  0.176E-02    1.15       1.0  T
   4   -196.2764699 -0.474657E-04  0.272E-03    1.16       3.5  T
   5   -196.2764700 -0.113482E-06  0.172E-03    1.16       5.6  T
   6   -196.2764702 -0.185550E-06  0.580E-04    1.16      16.6  T
   7   -196.2764702 -0.227852E-07  0.276E-04    1.16      34.9  T
     SCC iter.                  ...        0 min,  0.101 sec
     gradient                   ...        0 min,  0.033 sec
 * total energy  :  -193.2319445 Eh     change       -0.2224641E-03 Eh
   gradient norm :     0.0049803 Eh/α   predicted    -0.1852358E-03 ( -16.73%)
   displ. norm   :     0.2546982 α      lambda       -0.2499715E-03
   maximum displ.:     0.1192654 α      in ANC's #5, #7, #13, ...

........................................................................
.............................. CYCLE   13 ..............................
........................................................................
   1   -196.2780637 -0.196278E+03  0.449E-02    1.15       0.0  T
   2   -196.2780650 -0.127277E-05  0.254E-02    1.16       1.0  T
   3   -196.2780407  0.243079E-04  0.133E-02    1.15       1.0  T
   4   -196.2780675 -0.268205E-04  0.211E-03    1.16       4.6  T
   5   -196.2780675 -0.338266E-07  0.134E-03    1.16       7.2  T
   6   -196.2780677 -0.138932E-06  0.400E-04    1.16      24.0  T
   7   -196.2780677 -0.112837E-07  0.176E-04    1.16      54.8  T
     SCC iter.                  ...        0 min,  0.101 sec
     gradient                   ...        0 min,  0.033 sec
 * total energy  :  -193.2321425 Eh     change       -0.1980765E-03 Eh
   gradient norm :     0.0057010 Eh/α   predicted    -0.1330983E-03 ( -32.80%)
   displ. norm   :     0.4551225 α      lambda       -0.4171961E-03
   maximum displ.:     0.2157649 α      in ANC's #5, #7, #13, ...

........................................................................
.............................. CYCLE   14 ..............................
........................................................................
   1   -196.2815381 -0.196282E+03  0.680E-02    1.15       0.0  T
   2   -196.2815422 -0.412939E-05  0.384E-02    1.15       1.0  T
   3   -196.2815229  0.193426E-04  0.139E-02    1.15       1.0  T
   4   -196.2815450 -0.221033E-04  0.344E-03    1.15       2.8  T
   5   -196.2815450 -0.270224E-07  0.232E-03    1.15       4.2  T
   6   -196.2815456 -0.560440E-06  0.634E-04    1.15      15.2  T
   7   -196.2815456 -0.264638E-07  0.317E-04    1.15      30.4  T
     SCC iter.                  ...        0 min,  0.101 sec
     gradient                   ...        0 min,  0.032 sec
 * total energy  :  -193.2324479 Eh     change       -0.3053270E-03 Eh
   gradient norm :     0.0077032 Eh/α   predicted    -0.2518108E-03 ( -17.53%)
   displ. norm   :     0.4922040 α      lambda       -0.3485237E-03
   maximum displ.:     0.2401313 α      in ANC's #5, #7, #13, ...

........................................................................
.............................. CYCLE   15 ..............................
........................................................................
   1   -196.2791679 -0.196279E+03  0.687E-02    1.15       0.0  T
   2   -196.2791708 -0.288843E-05  0.389E-02    1.15       1.0  T
   3   -196.2791141  0.566698E-04  0.202E-02    1.14       1.0  T
   4   -196.2791764 -0.622794E-04  0.367E-03    1.15       2.6  T
   5   -196.2791765 -0.123789E-06  0.233E-03    1.15       4.1  T
   6   -196.2791770 -0.458015E-06  0.674E-04    1.15      14.3  T
   7   -196.2791770 -0.350805E-07  0.268E-04    1.15      35.9  T
     SCC iter.                  ...        0 min,  0.100 sec
     gradient                   ...        0 min,  0.032 sec
 * total energy  :  -193.2327192 Eh     change       -0.2713472E-03 Eh
   gradient norm :     0.0073918 Eh/α   predicted    -0.2164835E-03 ( -20.22%)
   displ. norm   :     0.5011804 α      lambda       -0.3280314E-03
   maximum displ.:     0.2481962 α      in ANC's #5, #7, #4, ...

........................................................................
.............................. CYCLE   16 ..............................
........................................................................
   1   -196.2779554 -0.196278E+03  0.649E-02    1.14       0.0  T
   2   -196.2779578 -0.234605E-05  0.368E-02    1.15       1.0  T
   3   -196.2779057  0.520956E-04  0.198E-02    1.14       1.0  T
   4   -196.2779630 -0.573370E-04  0.374E-03    1.15       2.6  T
   5   -196.2779632 -0.178404E-06  0.255E-03    1.15       3.8  T
   6   -196.2779638 -0.537809E-06  0.612E-04    1.15      15.7  T
   7   -196.2779638 -0.291391E-07  0.270E-04    1.15      35.7  T
     SCC iter.                  ...        0 min,  0.096 sec
     gradient                   ...        0 min,  0.033 sec
 * total energy  :  -193.2329924 Eh     change       -0.2731882E-03 Eh
   gradient norm :     0.0051963 Eh/α   predicted    -0.2052157E-03 ( -24.88%)
   displ. norm   :     0.5582976 α      lambda       -0.3804195E-03
   maximum displ.:     0.2797338 α      in ANC's #5, #7, #4, ...

........................................................................
.............................. CYCLE   17 ..............................
........................................................................
   1   -196.2755141 -0.196276E+03  0.913E-02    1.14       0.0  T
   2   -196.2755197 -0.566060E-05  0.512E-02    1.14       1.0  T
   3   -196.2754351  0.846642E-04  0.249E-02    1.14       1.0  T
   4   -196.2755288 -0.937747E-04  0.448E-03    1.14       2.1  T
   5   -196.2755291 -0.245386E-06  0.299E-03    1.14       3.2  T
   6   -196.2755298 -0.677662E-06  0.781E-04    1.14      12.3  T
   7   -196.2755298 -0.512611E-07  0.323E-04    1.14      29.8  T
     SCC iter.                  ...        0 min,  0.103 sec
     gradient                   ...        0 min,  0.033 sec
 * total energy  :  -193.2333031 Eh     change       -0.3106542E-03 Eh
   gradient norm :     0.0059336 Eh/α   predicted    -0.2494994E-03 ( -19.69%)
   displ. norm   :     0.5988892 α      lambda       -0.3789479E-03
   maximum displ.:     0.3049392 α      in ANC's #5, #7, #4, ...

........................................................................
.............................. CYCLE   18 ..............................
........................................................................
   1   -196.2752220 -0.196275E+03  0.884E-02    1.14       0.0  T
   2   -196.2752262 -0.426772E-05  0.498E-02    1.14       1.0  T
   3   -196.2751373  0.889327E-04  0.253E-02    1.14       1.0  T
   4   -196.2752351 -0.978252E-04  0.458E-03    1.14       2.1  T
   5   -196.2752354 -0.277310E-06  0.299E-03    1.14       3.2  T
   6   -196.2752361 -0.687583E-06  0.839E-04    1.14      11.5  T
   7   -196.2752361 -0.647212E-07  0.321E-04    1.14      30.0  T
     SCC iter.                  ...        0 min,  0.103 sec
     gradient                   ...        0 min,  0.033 sec
 * total energy  :  -193.2336102 Eh     change       -0.3071039E-03 Eh
   gradient norm :     0.0073160 Eh/α   predicted    -0.2574350E-03 ( -16.17%)
   displ. norm   :     0.6221139 α      lambda       -0.3509589E-03
   maximum displ.:     0.3236485 α      in ANC's #5, #7, #4, ...

........................................................................
.............................. CYCLE   19 ..............................
........................................................................
   1   -196.2732356 -0.196273E+03  0.102E-01    1.14       0.0  T
   2   -196.2732432 -0.759199E-05  0.574E-02    1.14       1.0  T
   3   -196.2731777  0.655184E-04  0.224E-02    1.13       1.0  T
   4   -196.2732506 -0.729309E-04  0.473E-03    1.14       2.0  T
   5   -196.2732508 -0.222444E-06  0.313E-03    1.14       3.1  T
   6   -196.2732517 -0.830700E-06  0.780E-04    1.14      12.3  T
   7   -196.2732517 -0.471168E-07  0.338E-04    1.14      28.4  T
     SCC iter.                  ...        0 min,  0.107 sec
     gradient                   ...        0 min,  0.033 sec
 * total energy  :  -193.2339022 Eh     change       -0.2920396E-03 Eh
   gradient norm :     0.0061317 Eh/α   predicted    -0.2433981E-03 ( -16.66%)
   displ. norm   :     0.6221398 α      lambda       -0.3618189E-03
   maximum displ.:     0.3305734 α      in ANC's #5, #7, #6, ...

........................................................................
.............................. CYCLE   20 ..............................
........................................................................
   1   -196.2764043 -0.196276E+03  0.904E-02    1.14       0.0  T
   2   -196.2764100 -0.569281E-05  0.511E-02    1.14       1.0  T
   3   -196.2763739  0.360533E-04  0.172E-02    1.14       1.0  T
   4   -196.2764140 -0.400308E-04  0.442E-03    1.14       2.2  T
   5   -196.2764144 -0.459516E-06  0.261E-03    1.14       3.7  T
   6   -196.2764150 -0.596509E-06  0.760E-04    1.14      12.7  T
   7   -196.2764151 -0.491671E-07  0.314E-04    1.14      30.7  T
     SCC iter.                  ...        0 min,  0.105 sec
     gradient                   ...        0 min,  0.033 sec
 * total energy  :  -193.2341996 Eh     change       -0.2973643E-03 Eh
   gradient norm :     0.0056311 Eh/α   predicted    -0.2509363E-03 ( -15.61%)
   displ. norm   :     0.6773942 α      lambda       -0.3454084E-03
   maximum displ.:     0.3709354 α      in ANC's #5, #7, #6, ...
 * RMSD in coord.:     0.5969455 α      energy gain  -0.1052697E+00 Eh

generating ANC from model Hessian ...
Using Lindh-Hessian (1995)
 Shifting diagonal of input Hessian by   1.000009630435283E-002
 Lowest  eigenvalues of input Hessian
    0.010000    0.000000    0.000000    0.000000    0.000000    0.000000
    0.000000    0.010025    0.010040    0.010079    0.010120    0.010157
    0.010207    0.010232    0.010406    0.010559    0.010770    0.010797
 Highest eigenvalues
    2.279309    2.293994    2.597883    2.604803    2.649170    2.653940
 

........................................................................
.............................. CYCLE   21 ..............................
........................................................................
   1   -196.2737670 -0.196274E+03  0.102E-01    1.14       0.0  T
   2   -196.2737745 -0.746524E-05  0.571E-02    1.14       1.0  T
   3   -196.2737550  0.195270E-04  0.141E-02    1.13       1.0  T
   4   -196.2737779 -0.228874E-04  0.452E-03    1.14       2.1  T
   5   -196.2737782 -0.307983E-06  0.256E-03    1.14       3.8  T
   6   -196.2737789 -0.725292E-06  0.679E-04    1.14      14.2  T
   7   -196.2737789 -0.318859E-07  0.312E-04    1.14      30.8  T
     SCC iter.                  ...        0 min,  0.110 sec
     gradient                   ...        0 min,  0.033 sec
 * total energy  :  -193.2344871 Eh     change       -0.2874840E-03 Eh
   gradient norm :     0.0058746 Eh/α   predicted     0.0000000E+00 (-100.00%)
   displ. norm   :     0.0750823 α      lambda       -0.8037181E-04
   maximum displ.:     0.0257407 α      in ANC's #5, #23, #14, ...

........................................................................
.............................. CYCLE   22 ..............................
........................................................................
   1   -196.2765820 -0.196277E+03  0.349E-02    1.14       0.0  T
   2   -196.2765835 -0.150993E-05  0.194E-02    1.14       1.0  T
   3   -196.2765795  0.402657E-05  0.605E-03    1.14       1.6  T
   4   -196.2765843 -0.480808E-05  0.117E-03    1.14       8.2  T
   5   -196.2765844 -0.657916E-07  0.713E-04    1.14      13.5  T
   6   -196.2765844 -0.389435E-07  0.248E-04    1.14      38.7  T
     SCC iter.                  ...        0 min,  0.089 sec
     gradient                   ...        0 min,  0.033 sec
 * total energy  :  -193.2345568 Eh     change       -0.6971428E-04 Eh
   gradient norm :     0.0032972 Eh/α   predicted    -0.5773788E-04 ( -17.18%)
   displ. norm   :     0.2068804 α      lambda       -0.2328002E-03
   maximum displ.:     0.0843824 α      in ANC's #5, #23, #8, ...

........................................................................
.............................. CYCLE   23 ..............................
........................................................................
   1   -196.2829795 -0.196283E+03  0.507E-02    1.14       0.0  T
   2   -196.2829828 -0.331949E-05  0.287E-02    1.14       1.0  T
   3   -196.2829752  0.757521E-05  0.870E-03    1.14       1.1  T
   4   -196.2829840 -0.874713E-05  0.234E-03    1.14       4.1  T
   5   -196.2829843 -0.329137E-06  0.130E-03    1.14       7.4  T
   6   -196.2829844 -0.132078E-06  0.516E-04    1.14      18.6  T
   7   -196.2829845 -0.161509E-07  0.264E-04    1.14      36.5  T
     SCC iter.                  ...        0 min,  0.104 sec
     gradient                   ...        0 min,  0.033 sec
 * total energy  :  -193.2346384 Eh     change       -0.8159730E-04 Eh
   gradient norm :     0.0089000 Eh/α   predicted    -0.1213882E-03 (  48.77%)
   displ. norm   :     0.1474627 α      lambda       -0.1737626E-03
   maximum displ.:     0.0553175 α      in ANC's #5, #8, #2, ...

........................................................................
.............................. CYCLE   24 ..............................
........................................................................
   1   -196.2817856 -0.196282E+03  0.681E-02    1.14       0.0  T
   2   -196.2817905 -0.491108E-05  0.378E-02    1.14       1.0  T
   3   -196.2817842  0.635791E-05  0.810E-03    1.14       1.2  T
   4   -196.2817929 -0.875604E-05  0.165E-03    1.14       5.8  T
   5   -196.2817929 -0.327925E-07  0.962E-04    1.14      10.0  T
   6   -196.2817930 -0.667040E-07  0.321E-04    1.14      30.0  T
     SCC iter.                  ...        0 min,  0.090 sec
     gradient                   ...        0 min,  0.033 sec
 * total energy  :  -193.2346719 Eh     change       -0.3358364E-04 Eh
   gradient norm :     0.0070188 Eh/α   predicted    -0.8877230E-04 ( 164.33%)
   displ. norm   :     0.1132133 α      lambda       -0.2179651E-03
   maximum displ.:     0.0507457 α      in ANC's #5, #8, #2, ...

........................................................................
.............................. CYCLE   25 ..............................
........................................................................
   1   -196.2780505 -0.196278E+03  0.495E-02    1.14       0.0  T
   2   -196.2780534 -0.292899E-05  0.276E-02    1.14       1.0  T
   3   -196.2780400  0.134796E-04  0.103E-02    1.14       1.0  T
   4   -196.2780555 -0.155415E-04  0.154E-03    1.14       6.3  T
   5   -196.2780556 -0.719401E-07  0.940E-04    1.14      10.2  T
   6   -196.2780556 -0.450914E-07  0.393E-04    1.14      24.5  T
     SCC iter.                  ...        0 min,  0.091 sec
     gradient                   ...        0 min,  0.033 sec
 * total energy  :  -193.2347973 Eh     change       -0.1253507E-03 Eh
   gradient norm :     0.0054419 Eh/α   predicted    -0.1103801E-03 ( -11.94%)
   displ. norm   :     0.1625162 α      lambda       -0.9936150E-04
   maximum displ.:     0.0762901 α      in ANC's #5, #8, #2, ...

........................................................................
.............................. CYCLE   26 ..............................
........................................................................
   1   -196.2784655 -0.196278E+03  0.309E-02    1.14       0.0  T
   2   -196.2784664 -0.940770E-06  0.173E-02    1.14       1.0  T
   3   -196.2784621  0.429451E-05  0.594E-03    1.14       1.6  T
   4   -196.2784671 -0.497621E-05  0.119E-03    1.14       8.1  T
   5   -196.2784671 -0.229261E-07  0.802E-04    1.14      12.0  T
   6   -196.2784672 -0.474821E-07  0.248E-04    1.14      38.8  T
     SCC iter.                  ...        0 min,  0.090 sec
     gradient                   ...        0 min,  0.033 sec
 * total energy  :  -193.2348804 Eh     change       -0.8306204E-04 Eh
   gradient norm :     0.0031705 Eh/α   predicted    -0.5099511E-04 ( -38.61%)
   displ. norm   :     0.3884856 α      lambda       -0.1833980E-03
   maximum displ.:     0.1774844 α      in ANC's #5, #8, #2, ...

........................................................................
.............................. CYCLE   27 ..............................
........................................................................
   1   -196.2788692 -0.196279E+03  0.569E-02    1.14       0.0  T
   2   -196.2788718 -0.260735E-05  0.323E-02    1.14       1.0  T
   3   -196.2788489  0.228963E-04  0.136E-02    1.14       1.0  T
   4   -196.2788747 -0.258560E-04  0.251E-03    1.14       3.8  T
   5   -196.2788748 -0.302688E-07  0.176E-03    1.14       5.5  T
   6   -196.2788750 -0.254614E-06  0.440E-04    1.14      21.9  T
   7   -196.2788750 -0.133942E-07  0.198E-04    1.14      48.7  T
     SCC iter.                  ...        0 min,  0.103 sec
     gradient                   ...        0 min,  0.033 sec
 * total energy  :  -193.2350279 Eh     change       -0.1475479E-03 Eh
   gradient norm :     0.0035471 Eh/α   predicted    -0.1055401E-03 ( -28.47%)
   displ. norm   :     0.4994622 α      lambda       -0.1934554E-03
   maximum displ.:     0.2309101 α      in ANC's #5, #8, #2, ...

........................................................................
.............................. CYCLE   28 ..............................
........................................................................
   1   -196.2782419 -0.196278E+03  0.725E-02    1.14       0.0  T
   2   -196.2782464 -0.452514E-05  0.409E-02    1.14       1.0  T
   3   -196.2782187  0.276779E-04  0.154E-02    1.14       1.0  T
   4   -196.2782505 -0.317884E-04  0.304E-03    1.14       3.2  T
   5   -196.2782504  0.627270E-07  0.215E-03    1.14       4.5  T
   6   -196.2782509 -0.431294E-06  0.492E-04    1.14      19.6  T
   7   -196.2782509 -0.143347E-07  0.215E-04    1.14      44.8  T
     SCC iter.                  ...        0 min,  0.102 sec
     gradient                   ...        0 min,  0.033 sec
 * total energy  :  -193.2351808 Eh     change       -0.1528829E-03 Eh
   gradient norm :     0.0050039 Eh/α   predicted    -0.1208583E-03 ( -20.95%)
   displ. norm   :     0.5398247 α      lambda       -0.2159646E-03
   maximum displ.:     0.2555401 α      in ANC's #5, #8, #2, ...

........................................................................
.............................. CYCLE   29 ..............................
........................................................................
   1   -196.2785247 -0.196279E+03  0.667E-02    1.14       0.0  T
   2   -196.2785278 -0.317340E-05  0.380E-02    1.14       1.0  T
   3   -196.2784989  0.289744E-04  0.157E-02    1.14       1.0  T
   4   -196.2785315 -0.326053E-04  0.312E-03    1.14       3.1  T
   5   -196.2785315  0.857770E-08  0.210E-03    1.14       4.6  T
   6   -196.2785319 -0.422455E-06  0.508E-04    1.14      18.9  T
   7   -196.2785319 -0.177579E-07  0.209E-04    1.14      46.1  T
     SCC iter.                  ...        0 min,  0.104 sec
     gradient                   ...        0 min,  0.033 sec
 * total energy  :  -193.2353397 Eh     change       -0.1588809E-03 Eh
   gradient norm :     0.0069045 Eh/α   predicted    -0.1394506E-03 ( -12.23%)
   displ. norm   :     0.5237182 α      lambda       -0.2562352E-03
   maximum displ.:     0.2546218 α      in ANC's #5, #8, #2, ...

........................................................................
.............................. CYCLE   30 ..............................
........................................................................
   1   -196.2787823 -0.196279E+03  0.747E-02    1.14       0.0  T
   2   -196.2787878 -0.552162E-05  0.419E-02    1.14       1.0  T
   3   -196.2787758  0.120438E-04  0.114E-02    1.14       1.0  T
   4   -196.2787906 -0.148116E-04  0.305E-03    1.14       3.2  T
   5   -196.2787907 -0.749340E-07  0.176E-03    1.14       5.5  T
   6   -196.2787910 -0.304216E-06  0.663E-04    1.14      14.5  T
   7   -196.2787910 -0.439915E-07  0.226E-04    1.14      42.6  T
     SCC iter.                  ...        0 min,  0.102 sec
     gradient                   ...        0 min,  0.033 sec
 * total energy  :  -193.2355390 Eh     change       -0.1993139E-03 Eh
   gradient norm :     0.0054275 Eh/α   predicted    -0.1632592E-03 ( -18.09%)
   displ. norm   :     0.5480043 α      lambda       -0.2659473E-03
   maximum displ.:     0.2732961 α      in ANC's #5, #8, #2, ...

........................................................................
.............................. CYCLE   31 ..............................
........................................................................
   1   -196.2802035 -0.196280E+03  0.661E-02    1.14       0.0  T
   2   -196.2802071 -0.366648E-05  0.375E-02    1.14       1.0  T
   3   -196.2801910  0.161792E-04  0.121E-02    1.14       1.0  T
   4   -196.2802090 -0.180402E-04  0.335E-03    1.14       2.9  T
   5   -196.2802093 -0.308355E-06  0.208E-03    1.14       4.6  T
   6   -196.2802097 -0.434837E-06  0.620E-04    1.14      15.5  T
   7   -196.2802098 -0.325871E-07  0.247E-04    1.14      38.9  T
     SCC iter.                  ...        0 min,  0.103 sec
     gradient                   ...        0 min,  0.033 sec
 * total energy  :  -193.2357529 Eh     change       -0.2139530E-03 Eh
   gradient norm :     0.0048912 Eh/α   predicted    -0.1729089E-03 ( -19.18%)
   displ. norm   :     0.6490186 α      lambda       -0.2886859E-03
   maximum displ.:     0.3280508 α      in ANC's #5, #8, #2, ...

........................................................................
.............................. CYCLE   32 ..............................
........................................................................
   1   -196.2777748 -0.196278E+03  0.791E-02    1.14       0.0  T
   2   -196.2777798 -0.493943E-05  0.450E-02    1.14       1.0  T
   3   -196.2777671  0.126935E-04  0.117E-02    1.14       1.0  T
   4   -196.2777818 -0.147235E-04  0.360E-03    1.14       2.7  T
   5   -196.2777820 -0.178788E-06  0.223E-03    1.14       4.3  T
   6   -196.2777825 -0.521159E-06  0.700E-04    1.14      13.7  T
   7   -196.2777826 -0.420623E-07  0.265E-04    1.14      36.3  T
     SCC iter.                  ...        0 min,  0.103 sec
     gradient                   ...        0 min,  0.033 sec
 * total energy  :  -193.2359859 Eh     change       -0.2329319E-03 Eh
   gradient norm :     0.0053349 Eh/α   predicted    -0.2051455E-03 ( -11.93%)
   displ. norm   :     0.5433412 α      lambda       -0.2991635E-03
   maximum displ.:     0.2722391 α      in ANC's #5, #2, #8, ...

........................................................................
.............................. CYCLE   33 ..............................
........................................................................
   1   -196.2807750 -0.196281E+03  0.760E-02    1.14       0.0  T
   2   -196.2807795 -0.443968E-05  0.433E-02    1.14       1.0  T
   3   -196.2807339  0.455703E-04  0.193E-02    1.14       1.0  T
   4   -196.2807842 -0.502435E-04  0.401E-03    1.14       2.4  T
   5   -196.2807846 -0.462952E-06  0.263E-03    1.14       3.7  T
   6   -196.2807852 -0.556758E-06  0.751E-04    1.14      12.8  T
   7   -196.2807852 -0.359075E-07  0.341E-04    1.14      28.2  T
     SCC iter.                  ...        0 min,  0.102 sec
     gradient                   ...        0 min,  0.033 sec
 * total energy  :  -193.2361906 Eh     change       -0.2047551E-03 Eh
   gradient norm :     0.0061449 Eh/α   predicted    -0.1937475E-03 (  -5.38%)
   displ. norm   :     0.6972621 α      lambda       -0.3005808E-03
   maximum displ.:     0.3562254 α      in ANC's #5, #8, #2, ...

........................................................................
.............................. CYCLE   34 ..............................
........................................................................
   1   -196.2725215 -0.196273E+03  0.860E-02    1.13       0.0  T
   2   -196.2725273 -0.582719E-05  0.487E-02    1.13       1.0  T
   3   -196.2725028  0.245748E-04  0.146E-02    1.13       1.0  T
   4   -196.2725297 -0.269199E-04  0.454E-03    1.13       2.1  T
   5   -196.2725305 -0.863946E-06  0.256E-03    1.13       3.8  T
   6   -196.2725311 -0.597077E-06  0.754E-04    1.13      12.8  T
   7   -196.2725312 -0.419996E-07  0.275E-04    1.13      35.0  T
     SCC iter.                  ...        0 min,  0.103 sec
     gradient                   ...        0 min,  0.033 sec
 * total energy  :  -193.2363428 Eh     change       -0.1521669E-03 Eh
   gradient norm :     0.0087670 Eh/α   predicted    -0.2233600E-03 (  46.79%)
   displ. norm   :     0.2278819 α      lambda       -0.2264892E-03
   maximum displ.:     0.1146450 α      in ANC's #5, #2, #4, ...

........................................................................
.............................. CYCLE   35 ..............................
........................................................................
   1   -196.2759884 -0.196276E+03  0.386E-02    1.13       0.0  T
   2   -196.2759898 -0.137102E-05  0.217E-02    1.13       1.0  T
   3   -196.2759854  0.440570E-05  0.636E-03    1.13       1.5  T
   4   -196.2759902 -0.481200E-05  0.222E-03    1.13       4.3  T
   5   -196.2759905 -0.269811E-06  0.118E-03    1.13       8.2  T
   6   -196.2759906 -0.105879E-06  0.369E-04    1.13      26.0  T
   7   -196.2759906 -0.989348E-08  0.144E-04    1.13      66.7  T
     SCC iter.                  ...        0 min,  0.103 sec
     gradient                   ...        0 min,  0.033 sec
 * total energy  :  -193.2365184 Eh     change       -0.1756232E-03 Eh
   gradient norm :     0.0051635 Eh/α   predicted    -0.1191269E-03 ( -32.17%)
   displ. norm   :     0.4841572 α      lambda       -0.2653225E-03
   maximum displ.:     0.2507201 α      in ANC's #5, #2, #4, ...

........................................................................
.............................. CYCLE   36 ..............................
........................................................................
   1   -196.2792734 -0.196279E+03  0.735E-02    1.13       0.0  T
   2   -196.2792773 -0.394573E-05  0.415E-02    1.13       1.0  T
   3   -196.2792470  0.303130E-04  0.150E-02    1.13       1.0  T
   4   -196.2792804 -0.333941E-04  0.369E-03    1.13       2.6  T
   5   -196.2792808 -0.400711E-06  0.217E-03    1.13       4.4  T
   6   -196.2792812 -0.359665E-06  0.633E-04    1.13      15.2  T
   7   -196.2792812 -0.289146E-07  0.260E-04    1.13      37.0  T
     SCC iter.                  ...        0 min,  0.103 sec
     gradient                   ...        0 min,  0.033 sec
 * total energy  :  -193.2367210 Eh     change       -0.2026024E-03 Eh
   gradient norm :     0.0047866 Eh/α   predicted    -0.1637593E-03 ( -19.17%)
   displ. norm   :     0.5813882 α      lambda       -0.2316500E-03
   maximum displ.:     0.3080967 α      in ANC's #5, #2, #4, ...

........................................................................
.............................. CYCLE   37 ..............................
........................................................................
   1   -196.2804160 -0.196280E+03  0.762E-02    1.13       0.0  T
   2   -196.2804195 -0.350501E-05  0.432E-02    1.13       1.0  T
   3   -196.2803731  0.463858E-04  0.185E-02    1.12       1.0  T
   4   -196.2804242 -0.510745E-04  0.389E-03    1.13       2.5  T
   5   -196.2804243 -0.131305E-06  0.255E-03    1.13       3.8  T
   6   -196.2804249 -0.542954E-06  0.651E-04    1.13      14.8  T
   7   -196.2804249 -0.354531E-07  0.287E-04    1.13      33.5  T
     SCC iter.                  ...        0 min,  0.103 sec
     gradient                   ...        0 min,  0.033 sec
 * total energy  :  -193.2369096 Eh     change       -0.1886008E-03 Eh
   gradient norm :     0.0057523 Eh/α   predicted    -0.1549786E-03 ( -17.83%)
   displ. norm   :     0.5731559 α      lambda       -0.2452313E-03
   maximum displ.:     0.3066664 α      in ANC's #5, #2, #4, ...

........................................................................
.............................. CYCLE   38 ..............................
........................................................................
   1   -196.2813300 -0.196281E+03  0.830E-02    1.13       0.0  T
   2   -196.2813354 -0.538577E-05  0.471E-02    1.13       1.0  T
   3   -196.2812597  0.756906E-04  0.243E-02    1.12       1.0  T
   4   -196.2813442 -0.844435E-04  0.416E-03    1.13       2.3  T
   5   -196.2813446 -0.408742E-06  0.273E-03    1.13       3.5  T
   6   -196.2813451 -0.525602E-06  0.825E-04    1.13      11.7  T
   7   -196.2813452 -0.551111E-07  0.338E-04    1.13      28.5  T
     SCC iter.                  ...        0 min,  0.102 sec
     gradient                   ...        0 min,  0.033 sec
 * total energy  :  -193.2370949 Eh     change       -0.1853087E-03 Eh
   gradient norm :     0.0046503 Eh/α   predicted    -0.1629013E-03 ( -12.09%)
   displ. norm   :     0.6503663 α      lambda       -0.1992247E-03
   maximum displ.:     0.3568838 α      in ANC's #5, #2, #4, ...

........................................................................
.............................. CYCLE   39 ..............................
........................................................................
   1   -196.2773989 -0.196277E+03  0.808E-02    1.13       0.0  T
   2   -196.2774040 -0.501989E-05  0.459E-02    1.13       1.0  T
   3   -196.2773564  0.475879E-04  0.194E-02    1.12       1.0  T
   4   -196.2774093 -0.528896E-04  0.399E-03    1.13       2.4  T
   5   -196.2774094 -0.136522E-06  0.263E-03    1.13       3.7  T
   6   -196.2774100 -0.574042E-06  0.799E-04    1.13      12.0  T
   7   -196.2774100 -0.503984E-07  0.330E-04    1.13      29.2  T
     SCC iter.                  ...        0 min,  0.102 sec
     gradient                   ...        0 min,  0.033 sec
 * total energy  :  -193.2372247 Eh     change       -0.1297848E-03 Eh
   gradient norm :     0.0062896 Eh/α   predicted    -0.1417497E-03 (   9.22%)
   displ. norm   :     0.3748243 α      lambda       -0.2125577E-03
   maximum displ.:     0.1923557 α      in ANC's #5, #2, #11, ...

........................................................................
.............................. CYCLE   40 ..............................
........................................................................
   1   -196.2835114 -0.196284E+03  0.576E-02    1.13       0.0  T
   2   -196.2835154 -0.402897E-05  0.330E-02    1.13       1.0  T
   3   -196.2834775  0.379208E-04  0.186E-02    1.13       1.0  T
   4   -196.2835207 -0.431781E-04  0.316E-03    1.13       3.0  T
   5   -196.2835213 -0.593753E-06  0.178E-03    1.13       5.4  T
   6   -196.2835215 -0.160407E-06  0.696E-04    1.13      13.8  T
   7   -196.2835215 -0.338374E-07  0.262E-04    1.13      36.7  T
     SCC iter.                  ...        0 min,  0.104 sec
     gradient                   ...        0 min,  0.033 sec
 * total energy  :  -193.2373056 Eh     change       -0.8088652E-04 Eh
   gradient norm :     0.0081786 Eh/α   predicted    -0.1212129E-03 (  49.86%)
   displ. norm   :     0.3815948 α      lambda       -0.1552315E-03
   maximum displ.:     0.2201850 α      in ANC's #5, #2, #4, ...

........................................................................
.............................. CYCLE   41 ..............................
........................................................................
   1   -196.2766313 -0.196277E+03  0.580E-02    1.13       0.0  T
   2   -196.2766345 -0.325344E-05  0.326E-02    1.13       1.0  T
   3   -196.2766212  0.133479E-04  0.111E-02    1.13       1.0  T
   4   -196.2766364 -0.151683E-04  0.261E-03    1.13       3.7  T
   5   -196.2766365 -0.157727E-06  0.166E-03    1.13       5.8  T
   6   -196.2766368 -0.244909E-06  0.462E-04    1.13      20.8  T
   7   -196.2766368 -0.122243E-07  0.216E-04    1.13      44.5  T
     SCC iter.                  ...        0 min,  0.102 sec
     gradient                   ...        0 min,  0.033 sec
 * total energy  :  -193.2374037 Eh     change       -0.9814888E-04 Eh
   gradient norm :     0.0073093 Eh/α   predicted    -0.8892080E-04 (  -9.40%)
   displ. norm   :     0.2621383 α      lambda       -0.1101199E-03
   maximum displ.:     0.1533960 α      in ANC's #5, #2, #4, ...

........................................................................
.............................. CYCLE   42 ..............................
........................................................................
   1   -196.2765634 -0.196277E+03  0.348E-02    1.13       0.0  T
   2   -196.2765645 -0.119280E-05  0.197E-02    1.13       1.0  T
   3   -196.2765564  0.818837E-05  0.836E-03    1.13       1.2  T
   4   -196.2765656 -0.920098E-05  0.173E-03    1.13       5.6  T
   5   -196.2765657 -0.117096E-06  0.105E-03    1.13       9.2  T
   6   -196.2765658 -0.723456E-07  0.328E-04    1.13      29.3  T
   7   -196.2765658 -0.607028E-08  0.145E-04    1.13      66.3  T
     SCC iter.                  ...        0 min,  0.104 sec
     gradient                   ...        0 min,  0.033 sec
 * total energy  :  -193.2374827 Eh     change       -0.7898248E-04 Eh
   gradient norm :     0.0050608 Eh/α   predicted    -0.5884562E-04 ( -25.50%)
   displ. norm   :     0.3916446 α      lambda       -0.1550530E-03
   maximum displ.:     0.2305322 α      in ANC's #5, #2, #4, ...
 * RMSD in coord.:     0.7968552 α      energy gain  -0.3283162E-02 Eh

generating ANC from model Hessian ...
Using Lindh-Hessian (1995)
 Shifting diagonal of input Hessian by   1.000511989535852E-002
 Lowest  eigenvalues of input Hessian
    0.010000    0.000000    0.000000    0.000000    0.000000    0.000000
    0.000000    0.010019    0.010044    0.010066    0.010112    0.010146
    0.010162    0.010244    0.010355    0.010547    0.010729    0.010852
 Highest eigenvalues
    2.277441    2.291505    2.596123    2.610082    2.649233    2.652930
 

........................................................................
.............................. CYCLE   43 ..............................
........................................................................
   1   -196.2771502 -0.196277E+03  0.559E-02    1.13       0.0  T
   2   -196.2771532 -0.297805E-05  0.317E-02    1.12       1.0  T
   3   -196.2771265  0.266518E-04  0.148E-02    1.13       1.0  T
   4   -196.2771565 -0.300148E-04  0.262E-03    1.13       3.7  T
   5   -196.2771568 -0.262632E-06  0.162E-03    1.13       6.0  T
   6   -196.2771570 -0.162536E-06  0.519E-04    1.13      18.5  T
   7   -196.2771570 -0.164261E-07  0.209E-04    1.13      46.1  T
     SCC iter.                  ...        0 min,  0.104 sec
     gradient                   ...        0 min,  0.032 sec
 * total energy  :  -193.2375770 Eh     change       -0.9429555E-04 Eh
   gradient norm :     0.0061760 Eh/α   predicted     0.0000000E+00 (-100.00%)
   displ. norm   :     0.0492627 α      lambda       -0.4495174E-04
   maximum displ.:     0.0224830 α      in ANC's #14, #2, #6, ...

........................................................................
.............................. CYCLE   44 ..............................
........................................................................
   1   -196.2796295 -0.196280E+03  0.352E-02    1.13       0.0  T
   2   -196.2796312 -0.166862E-05  0.195E-02    1.13       1.0  T
   3   -196.2796293  0.187626E-05  0.459E-03    1.13       2.1  T
   4   -196.2796319 -0.253221E-05  0.112E-03    1.13       8.6  T
   5   -196.2796320 -0.802208E-07  0.604E-04    1.13      15.9  T
   6   -196.2796320 -0.236691E-07  0.228E-04    1.13      42.1  T
     SCC iter.                  ...        0 min,  0.090 sec
     gradient                   ...        0 min,  0.034 sec
 * total energy  :  -193.2376004 Eh     change       -0.2337684E-04 Eh
   gradient norm :     0.0032819 Eh/α   predicted    -0.3827722E-04 (  63.74%)
   displ. norm   :     0.0892276 α      lambda       -0.1201391E-03
   maximum displ.:     0.0362379 α      in ANC's #9, #3, #15, ...

........................................................................
.............................. CYCLE   45 ..............................
........................................................................
   1   -196.2838726 -0.196284E+03  0.478E-02    1.13       0.0  T
   2   -196.2838757 -0.304064E-05  0.265E-02    1.13       1.0  T
   3   -196.2838722  0.344345E-05  0.642E-03    1.13       1.5  T
   4   -196.2838769 -0.463012E-05  0.166E-03    1.13       5.8  T
   5   -196.2838770 -0.148193E-06  0.995E-04    1.13       9.7  T
   6   -196.2838771 -0.738575E-07  0.356E-04    1.13      27.0  T
     SCC iter.                  ...        0 min,  0.090 sec
     gradient                   ...        0 min,  0.033 sec
 * total energy  :  -193.2376068 Eh     change       -0.6394760E-05 Eh
   gradient norm :     0.0082316 Eh/α   predicted    -0.6054831E-04 ( 846.84%)
   displ. norm   :     0.0341037 α      lambda       -0.8983915E-04
   maximum displ.:     0.0133609 α      in ANC's #14, #34, #26, ...

........................................................................
.............................. CYCLE   46 ..............................
........................................................................
   1   -196.2815864 -0.196282E+03  0.317E-02    1.13       0.0  T
   2   -196.2815878 -0.140083E-05  0.176E-02    1.13       1.0  T
   3   -196.2815849  0.291440E-05  0.523E-03    1.13       1.8  T
   4   -196.2815885 -0.362770E-05  0.826E-04    1.13      11.7  T
   5   -196.2815885 -0.243160E-07  0.460E-04    1.13      20.9  T
   6   -196.2815885 -0.108900E-07  0.237E-04    1.13      40.5  T
     SCC iter.                  ...        0 min,  0.088 sec
     gradient                   ...        0 min,  0.033 sec
 * total energy  :  -193.2376532 Eh     change       -0.4636382E-04 Eh
   gradient norm :     0.0021979 Eh/α   predicted    -0.4497244E-04 (  -3.00%)
   displ. norm   :     0.0505446 α      lambda       -0.4519143E-04
   maximum displ.:     0.0160251 α      in ANC's #2, #14, #3, ...

........................................................................
.............................. CYCLE   47 ..............................
........................................................................
   1   -196.2795457 -0.196280E+03  0.257E-02    1.13       0.0  T
   2   -196.2795465 -0.761550E-06  0.143E-02    1.13       1.0  T
   3   -196.2795457  0.757985E-06  0.280E-03    1.13       3.4  T
   4   -196.2795468 -0.107239E-05  0.719E-04    1.13      13.4  T
   5   -196.2795468 -0.256784E-07  0.395E-04    1.13      24.4  T
   6   -196.2795468 -0.514046E-08  0.196E-04    1.13      49.1  T
     SCC iter.                  ...        0 min,  0.089 sec
     gradient                   ...        0 min,  0.033 sec
 * total energy  :  -193.2376666 Eh     change       -0.1340027E-04 Eh
   gradient norm :     0.0034544 Eh/α   predicted    -0.2265395E-04 (  69.06%)
   displ. norm   :     0.0746874 α      lambda       -0.3740202E-04
   maximum displ.:     0.0247217 α      in ANC's #2, #9, #3, ...

........................................................................
.............................. CYCLE   48 ..............................
........................................................................
   1   -196.2798562 -0.196280E+03  0.177E-02    1.13       0.0  T
   2   -196.2798566 -0.335271E-06  0.988E-03    1.13       1.0  T
   3   -196.2798564  0.170043E-06  0.183E-03    1.13       5.3  T
   4   -196.2798567 -0.303112E-06  0.590E-04    1.13      16.3  T
   5   -196.2798567 -0.477337E-08  0.351E-04    1.13      27.4  T
     SCC iter.                  ...        0 min,  0.075 sec
     gradient                   ...        0 min,  0.033 sec
 * total energy  :  -193.2376967 Eh     change       -0.3013212E-04 Eh
   gradient norm :     0.0019870 Eh/α   predicted    -0.1880618E-04 ( -37.59%)
   displ. norm   :     0.3860938 α      lambda       -0.8259661E-04
   maximum displ.:     0.1313350 α      in ANC's #2, #9, #3, ...

........................................................................
.............................. CYCLE   49 ..............................
........................................................................
   1   -196.2800963 -0.196280E+03  0.659E-02    1.13       0.0  T
   2   -196.2801004 -0.407234E-05  0.371E-02    1.13       1.0  T
   3   -196.2800913  0.902380E-05  0.917E-03    1.13       1.0  T
   4   -196.2801021 -0.107911E-04  0.285E-03    1.13       3.4  T
   5   -196.2801024 -0.310192E-06  0.167E-03    1.13       5.8  T
   6   -196.2801027 -0.216274E-06  0.573E-04    1.13      16.8  T
   7   -196.2801027 -0.292885E-07  0.235E-04    1.13      41.0  T
     SCC iter.                  ...        0 min,  0.104 sec
     gradient                   ...        0 min,  0.032 sec
 * total energy  :  -193.2377537 Eh     change       -0.5700457E-04 Eh
   gradient norm :     0.0049744 Eh/α   predicted    -0.4403547E-04 ( -22.75%)
   displ. norm   :     0.1208180 α      lambda       -0.4431795E-04
   maximum displ.:     0.0464628 α      in ANC's #2, #9, #3, ...

........................................................................
.............................. CYCLE   50 ..............................
........................................................................
   1   -196.2804224 -0.196280E+03  0.206E-02    1.13       0.0  T
   2   -196.2804227 -0.366778E-06  0.116E-02    1.13       1.0  T
   3   -196.2804214  0.132206E-05  0.351E-03    1.13       2.7  T
   4   -196.2804230 -0.154137E-05  0.752E-04    1.13      12.8  T
   5   -196.2804230 -0.690514E-08  0.466E-04    1.13      20.7  T
   6   -196.2804230 -0.174624E-07  0.186E-04    1.13      51.7  T
     SCC iter.                  ...        0 min,  0.089 sec
     gradient                   ...        0 min,  0.033 sec
 * total energy  :  -193.2377821 Eh     change       -0.2836350E-04 Eh
   gradient norm :     0.0032412 Eh/α   predicted    -0.2248348E-04 ( -20.73%)
   displ. norm   :     0.1788587 α      lambda       -0.6713746E-04
   maximum displ.:     0.0722971 α      in ANC's #2, #9, #3, ...

........................................................................
.............................. CYCLE   51 ..............................
........................................................................
   1   -196.2811447 -0.196281E+03  0.290E-02    1.13       0.0  T
   2   -196.2811457 -0.100691E-05  0.163E-02    1.13       1.0  T
   3   -196.2811444  0.137591E-05  0.397E-03    1.13       2.4  T
   4   -196.2811461 -0.178324E-05  0.107E-03    1.13       9.0  T
   5   -196.2811462 -0.402735E-07  0.583E-04    1.13      16.5  T
   6   -196.2811462 -0.161438E-07  0.260E-04    1.13      37.0  T
     SCC iter.                  ...        0 min,  0.089 sec
     gradient                   ...        0 min,  0.033 sec
 * total energy  :  -193.2378188 Eh     change       -0.3671255E-04 Eh
   gradient norm :     0.0026789 Eh/α   predicted    -0.3464407E-04 (  -5.63%)
   displ. norm   :     0.1845633 α      lambda       -0.4676538E-04
   maximum displ.:     0.0749723 α      in ANC's #2, #9, #3, ...

........................................................................
.............................. CYCLE   52 ..............................
........................................................................
   1   -196.2815261 -0.196282E+03  0.239E-02    1.13       0.0  T
   2   -196.2815266 -0.465485E-06  0.136E-02    1.13       1.0  T
   3   -196.2815236  0.290925E-05  0.476E-03    1.13       2.0  T
   4   -196.2815269 -0.322304E-05  0.106E-03    1.13       9.1  T
   5   -196.2815269 -0.599081E-07  0.612E-04    1.13      15.7  T
   6   -196.2815270 -0.242886E-07  0.237E-04    1.13      40.7  T
     SCC iter.                  ...        0 min,  0.089 sec
     gradient                   ...        0 min,  0.033 sec
 * total energy  :  -193.2378509 Eh     change       -0.3216241E-04 Eh
   gradient norm :     0.0026790 Eh/α   predicted    -0.2418097E-04 ( -24.82%)
   displ. norm   :     0.2662760 α      lambda       -0.4410845E-04
   maximum displ.:     0.1083846 α      in ANC's #2, #9, #3, ...

........................................................................
.............................. CYCLE   53 ..............................
........................................................................
   1   -196.2803762 -0.196280E+03  0.288E-02    1.13       0.0  T
   2   -196.2803768 -0.651766E-06  0.165E-02    1.13       1.0  T
   3   -196.2803747  0.210207E-05  0.437E-03    1.13       2.2  T
   4   -196.2803771 -0.235445E-05  0.129E-03    1.13       7.4  T
   5   -196.2803771 -0.815623E-07  0.746E-04    1.13      12.9  T
   6   -196.2803772 -0.449026E-07  0.275E-04    1.13      35.0  T
     SCC iter.                  ...        0 min,  0.090 sec
     gradient                   ...        0 min,  0.033 sec
 * total energy  :  -193.2378846 Eh     change       -0.3369156E-04 Eh
   gradient norm :     0.0024908 Eh/α   predicted    -0.2362545E-04 ( -29.88%)
   displ. norm   :     0.2811112 α      lambda       -0.5365163E-04
   maximum displ.:     0.1200662 α      in ANC's #2, #4, #3, ...

........................................................................
.............................. CYCLE   54 ..............................
........................................................................
   1   -196.2805144 -0.196281E+03  0.308E-02    1.13       0.0  T
   2   -196.2805152 -0.817730E-06  0.176E-02    1.13       1.0  T
   3   -196.2805138  0.135065E-05  0.405E-03    1.13       2.4  T
   4   -196.2805155 -0.163253E-05  0.130E-03    1.13       7.4  T
   5   -196.2805155 -0.742459E-07  0.776E-04    1.13      12.4  T
   6   -196.2805156 -0.499970E-07  0.260E-04    1.13      37.1  T
     SCC iter.                  ...        0 min,  0.091 sec
     gradient                   ...        0 min,  0.033 sec
 * total energy  :  -193.2379263 Eh     change       -0.4166960E-04 Eh
   gradient norm :     0.0026587 Eh/α   predicted    -0.2894983E-04 ( -30.53%)
   displ. norm   :     0.3256591 α      lambda       -0.5631177E-04
   maximum displ.:     0.1416499 α      in ANC's #2, #4, #6, ...

........................................................................
.............................. CYCLE   55 ..............................
........................................................................
   1   -196.2801024 -0.196280E+03  0.341E-02    1.13       0.0  T
   2   -196.2801034 -0.952439E-06  0.194E-02    1.13       1.0  T
   3   -196.2801026  0.801524E-06  0.345E-03    1.13       2.8  T
   4   -196.2801038 -0.116803E-05  0.119E-03    1.13       8.1  T
   5   -196.2801038 -0.332743E-07  0.617E-04    1.13      15.6  T
   6   -196.2801038 -0.239933E-07  0.197E-04    1.13      48.7  T
     SCC iter.                  ...        0 min,  0.089 sec
     gradient                   ...        0 min,  0.033 sec
 * total energy  :  -193.2379723 Eh     change       -0.4597012E-04 Eh
   gradient norm :     0.0028182 Eh/α   predicted    -0.3114235E-04 ( -32.26%)
   displ. norm   :     0.3490010 α      lambda       -0.6783484E-04
   maximum displ.:     0.1549318 α      in ANC's #2, #4, #6, ...

........................................................................
.............................. CYCLE   56 ..............................
........................................................................
   1   -196.2802229 -0.196280E+03  0.379E-02    1.13       0.0  T
   2   -196.2802241 -0.118801E-05  0.216E-02    1.13       1.0  T
   3   -196.2802216  0.248545E-05  0.486E-03    1.13       2.0  T
   4   -196.2802246 -0.298471E-05  0.153E-03    1.13       6.3  T
   5   -196.2802247 -0.592472E-07  0.932E-04    1.13      10.3  T
   6   -196.2802247 -0.710627E-07  0.321E-04    1.13      30.0  T
     SCC iter.                  ...        0 min,  0.089 sec
     gradient                   ...        0 min,  0.033 sec
 * total energy  :  -193.2380247 Eh     change       -0.5238918E-04 Eh
   gradient norm :     0.0027345 Eh/α   predicted    -0.3804910E-04 ( -27.37%)
   displ. norm   :     0.3905033 α      lambda       -0.5856048E-04
   maximum displ.:     0.1762431 α      in ANC's #2, #4, #6, ...

........................................................................
.............................. CYCLE   57 ..............................
........................................................................
   1   -196.2791966 -0.196279E+03  0.386E-02    1.13       0.0  T
   2   -196.2791978 -0.116825E-05  0.222E-02    1.13       1.0  T
   3   -196.2791938  0.398538E-05  0.581E-03    1.13       1.7  T
   4   -196.2791984 -0.454254E-05  0.158E-03    1.13       6.1  T
   5   -196.2791984 -0.798973E-07  0.963E-04    1.13      10.0  T
   6   -196.2791985 -0.700497E-07  0.352E-04    1.13      27.3  T
     SCC iter.                  ...        0 min,  0.089 sec
     gradient                   ...        0 min,  0.033 sec
 * total energy  :  -193.2380684 Eh     change       -0.4374506E-04 Eh
   gradient norm :     0.0025894 Eh/α   predicted    -0.3375114E-04 ( -22.85%)
   displ. norm   :     0.2902219 α      lambda       -0.5446490E-04
   maximum displ.:     0.1349793 α      in ANC's #2, #4, #6, ...

........................................................................
.............................. CYCLE   58 ..............................
........................................................................
   1   -196.2802662 -0.196280E+03  0.352E-02    1.13       0.0  T
   2   -196.2802673 -0.110268E-05  0.201E-02    1.13       1.0  T
   3   -196.2802624  0.495381E-05  0.650E-03    1.13       1.5  T
   4   -196.2802679 -0.552015E-05  0.171E-03    1.13       5.6  T
   5   -196.2802681 -0.160211E-06  0.102E-03    1.13       9.4  T
   6   -196.2802681 -0.721274E-07  0.357E-04    1.13      27.0  T
   7   -196.2802682 -0.879206E-08  0.147E-04    1.13      65.5  T
     SCC iter.                  ...        0 min,  0.116 sec
     gradient                   ...        0 min,  0.033 sec
 * total energy  :  -193.2381042 Eh     change       -0.3583209E-04 Eh
   gradient norm :     0.0023269 Eh/α   predicted    -0.2952740E-04 ( -17.60%)
   displ. norm   :     0.3019302 α      lambda       -0.3760383E-04
   maximum displ.:     0.1431572 α      in ANC's #2, #4, #6, ...

........................................................................
.............................. CYCLE   59 ..............................
........................................................................
   1   -196.2797599 -0.196280E+03  0.300E-02    1.13       0.0  T
   2   -196.2797606 -0.708937E-06  0.172E-02    1.13       1.0  T
   3   -196.2797575  0.316711E-05  0.525E-03    1.13       1.8  T
   4   -196.2797610 -0.356248E-05  0.126E-03    1.13       7.7  T
   5   -196.2797611 -0.778857E-07  0.743E-04    1.13      13.0  T
   6   -196.2797611 -0.356110E-07  0.299E-04    1.13      32.1  T
     SCC iter.                  ...        0 min,  0.090 sec
     gradient                   ...        0 min,  0.033 sec
 * total energy  :  -193.2381332 Eh     change       -0.2896196E-04 Eh
   gradient norm :     0.0019436 Eh/α   predicted    -0.2051872E-04 ( -29.15%)
   displ. norm   :     0.3448092 α      lambda       -0.3624493E-04
   maximum displ.:     0.1707671 α      in ANC's #2, #4, #6, ...

........................................................................
.............................. CYCLE   60 ..............................
........................................................................
   1   -196.2808873 -0.196281E+03  0.387E-02    1.13       0.0  T
   2   -196.2808885 -0.123496E-05  0.222E-02    1.13       1.0  T
   3   -196.2808841  0.436213E-05  0.639E-03    1.13       1.5  T
   4   -196.2808892 -0.502690E-05  0.159E-03    1.13       6.1  T
   5   -196.2808893 -0.107838E-06  0.942E-04    1.13      10.2  T
   6   -196.2808893 -0.637335E-07  0.358E-04    1.13      26.9  T
     SCC iter.                  ...        0 min,  0.089 sec
     gradient                   ...        0 min,  0.033 sec
 * total energy  :  -193.2381714 Eh     change       -0.3822056E-04 Eh
   gradient norm :     0.0022887 Eh/α   predicted    -0.1908458E-04 ( -50.07%)
   displ. norm   :     0.1930413 α      lambda       -0.2621562E-04
   maximum displ.:     0.0978616 α      in ANC's #2, #4, #6, ...

........................................................................
.............................. CYCLE   61 ..............................
........................................................................
   1   -196.2808198 -0.196281E+03  0.208E-02    1.13       0.0  T
   2   -196.2808201 -0.311073E-06  0.119E-02    1.13       1.0  T
   3   -196.2808192  0.833820E-06  0.288E-03    1.13       3.3  T
   4   -196.2808202 -0.100471E-05  0.774E-04    1.13      12.4  T
   5   -196.2808203 -0.702670E-08  0.404E-04    1.13      23.8  T
   6   -196.2808203 -0.142754E-07  0.153E-04    1.13      62.7  T
     SCC iter.                  ...        0 min,  0.089 sec
     gradient                   ...        0 min,  0.033 sec
 * total energy  :  -193.2381946 Eh     change       -0.2316568E-04 Eh
   gradient norm :     0.0022044 Eh/α   predicted    -0.1360004E-04 ( -41.29%)
[...]
    84   1 H        0.925     0.038     2.479     2.462
    85   1 H        0.925     0.043     2.415     2.430
    86   1 H        0.924     0.041     2.435     2.441
    87   1 H        0.924     0.078     2.000     2.212
    88   1 H        0.925     0.044     2.394     2.419
    89   1 H        0.925     0.040     2.452     2.449
    90   1 H        0.925     0.053     2.278     2.360
    91   1 H        0.926     0.063     2.161     2.299
    92   1 H        0.924     0.067     2.116     2.275
    93   1 H        0.925     0.060     2.204     2.322
    94   1 H        0.925     0.049     2.338     2.391
    95   1 H        0.925     0.054     2.268     2.355
    96   1 H        0.925     0.055     2.254     2.348
    97   1 H        0.925     0.060     2.196     2.317
    98   1 H        0.924     0.071     2.073     2.252
    99   1 H        0.925     0.053     2.288     2.366
   100   1 H        0.925     0.048     2.343     2.394
   101   1 H        0.925     0.053     2.287     2.365
   102   1 H        0.925     0.079     1.986     2.204
   103   1 H        0.926     0.063     2.165     2.301
   104   1 H        0.926     0.050     2.320     2.382
   105   1 H        0.924     0.048     2.348     2.396
   106   1 H        0.925     0.072     2.059     2.244
   107   1 H        0.924     0.049     2.335     2.390
   108   1 H        0.926     0.069     2.096     2.264

 Mol. C6AA /au·bohr⁶  :     211843.990081
 Mol. C8AA /au·bohr⁸  :    5923962.844167
 Mol. α(0) /au        :        730.013517


Wiberg/Mayer (AO) data.
largest (>0.10) Wiberg bond orders for each atom

 ---------------------------------------------------------------------------
     #   Z sym  total        # sym  WBO       # sym  WBO       # sym  WBO
 ---------------------------------------------------------------------------
     1   6 C    3.949 --     2 C    1.543    24 C    1.244    75 H    0.945
     2   6 C    3.957 --     1 C    1.543    11 C    1.135     3 C    1.026
     3   6 C    3.927 --     4 O    1.753     2 C    1.026     5 C    1.025
     4   8 O    2.048 --     3 C    1.753
     5   6 C    3.974 --     6 C    1.381    10 C    1.310     3 C    1.025
     6   6 C    3.983 --     7 C    1.444     5 C    1.381    76 H    0.964
     7   6 C    3.957 --     6 C    1.444     8 C    1.326    23 C    0.996
     8   6 C    3.967 --     9 C    1.452     7 C    1.326    17 C    0.996
     9   6 C    3.979 --     8 C    1.452    10 C    1.363    77 H    0.959
    10   6 C    3.979 --     9 C    1.363     5 C    1.310    11 C    1.091
    11   6 C    3.974 --    12 C    1.484     2 C    1.135    10 C    1.091
    12   6 C    3.952 --    11 C    1.484    15 C    1.098    13 C    1.097
    13   6 C    3.946 --    14 N    2.760    12 C    1.097
    14   7 N    2.963 --    13 C    2.760
    15   6 C    3.945 --    16 N    2.762    12 C    1.098
    16   7 N    2.967 --    15 C    2.762
    17   6 C    3.985 --     8 C    0.996    23 C    0.978    78 H    0.960
                            18 C    0.947
    18   6 C    3.990 --    19 C    1.010    22 C    0.985    79 H    0.972
                            17 C    0.947
    19   6 C    3.987 --    20 C    1.924    18 C    1.010    80 H    0.971
    20   6 C    3.987 --    19 C    1.924    21 C    1.010    81 H    0.972
    21   6 C    3.989 --    20 C    1.010    22 C    0.985    82 H    0.972
                            23 C    0.947
    22   6 C    3.993 --    21 C    0.985    18 C    0.985    84 H    0.978
                            83 H    0.977
    23   6 C    3.984 --     7 C    0.996    17 C    0.978    85 H    0.960
                            21 C    0.947
    24   6 C    3.923 --    25 C    1.412     1 C    1.244    30 S    1.060
    25   6 C    3.957 --    24 C    1.412    28 C    1.297    26 C    1.021
    26   6 C    3.993 --    25 C    1.021    27 C    1.003    86 H    0.970
                            87 H    0.941
    27   6 C    3.993 --    26 C    1.003    89 H    0.988    88 H    0.985
                            90 H    0.979
    28   6 C    3.928 --    29 C    1.329    25 C    1.297    33 S    1.093
    29   6 C    3.933 --    28 C    1.329    31 C    1.248    30 S    1.128
    30  16 S    2.534 --    29 C    1.128    24 C    1.060
    31   6 C    3.936 --    32 C    1.305    29 C    1.248    54 N    1.157
    32   6 C    3.922 --    31 C    1.305    34 C    1.273    33 S    1.115
    33  16 S    2.528 --    32 C    1.115    28 C    1.093
    34   6 C    3.954 --    32 C    1.273    53 C    1.270    35 C    1.172
    35   6 C    3.974 --    36 N    1.425    34 C    1.172    39 C    1.169
                            37 S    0.101
    36   7 N    3.074 --    35 C    1.425    37 S    1.394    38 N    0.149
    37  16 S    3.110 --    36 N    1.394    38 N    1.393    39 C    0.101
                            35 C    0.101
    38   7 N    3.074 --    39 C    1.426    37 S    1.393    36 N    0.149
    39   6 C    3.973 --    38 N    1.426    40 C    1.171    35 C    1.169
                            37 S    0.101
    40   6 C    3.956 --    41 C    1.276    52 C    1.270    39 C    1.171
    41   6 C    3.918 --    48 C    1.298    40 C    1.276    42 S    1.117
    42  16 S    2.516 --    41 C    1.117    43 C    1.093
    43   6 C    3.932 --    44 C    1.349    47 C    1.307    42 S    1.093
    44   6 C    3.969 --    45 C    1.432    43 C    1.349    91 H    0.960
    45   6 C    3.926 --    44 C    1.432    57 C    1.238    46 S    1.077
    46  16 S    2.562 --    47 C    1.129    45 C    1.077
    47   6 C    3.934 --    43 C    1.307    48 C    1.259    46 S    1.129
    48   6 C    3.939 --    41 C    1.298    47 C    1.259    49 N    1.155
    49   7 N    3.550 --    52 C    1.164    48 C    1.155    50 C    0.981
    50   6 C    3.963 --    51 C    1.007    49 N    0.981    92 H    0.963
                            93 H    0.955
    51   6 C    3.988 --    50 C    1.007    96 H    0.986    94 H    0.983
                            95 H    0.983
    52   6 C    3.925 --    40 C    1.270    53 C    1.227    49 N    1.164
    53   6 C    3.928 --    34 C    1.270    52 C    1.227    54 N    1.164
    54   7 N    3.554 --    53 C    1.164    31 C    1.157    55 C    0.983
    55   6 C    3.963 --    56 C    1.007    54 N    0.983    98 H    0.962
                            97 H    0.955
    56   6 C    3.988 --    55 C    1.007    99 H    0.986   101 H    0.983
                           100 H    0.983
    57   6 C    3.947 --    58 C    1.562    45 C    1.238   102 H    0.945
    58   6 C    3.953 --    57 C    1.562    69 C    1.136    59 C    1.001
    59   6 C    3.924 --    60 O    1.770    61 C    1.034    58 C    1.001
    60   8 O    2.049 --    59 C    1.770
    61   6 C    3.972 --    62 C    1.412    68 C    1.266    59 C    1.034
    62   6 C    3.983 --    63 C    1.438    61 C    1.412   103 H    0.966
    63   6 C    3.968 --    62 C    1.438    64 C    1.356   104 H    0.965
    64   6 C    3.929 --    63 C    1.356    67 C    1.320    65 O    1.099
    65   8 O    2.262 --    64 C    1.099    66 C    0.978
    66   6 C    3.938 --   106 H    0.979    65 O    0.978   105 H    0.976
                           107 H    0.976
    67   6 C    3.975 --    68 C    1.449    64 C    1.320   108 H    0.960
    68   6 C    3.982 --    67 C    1.449    61 C    1.266    69 C    1.074
    69   6 C    3.973 --    70 C    1.487    58 C    1.136    68 C    1.074
    70   6 C    3.972 --    69 C    1.487    73 C    1.100    71 C    1.095
    71   6 C    3.947 --    72 N    2.766    70 C    1.095
    72   7 N    2.978 --    71 C    2.766
    73   6 C    3.946 --    74 N    2.766    70 C    1.100
    74   7 N    2.970 --    73 C    2.766
    75   1 H    0.993 --     1 C    0.945
    76   1 H    0.996 --     6 C    0.964
    77   1 H    0.996 --     9 C    0.959
    78   1 H    0.997 --    17 C    0.960
    79   1 H    0.998 --    18 C    0.972
    80   1 H    0.999 --    19 C    0.971
    81   1 H    0.999 --    20 C    0.972
    82   1 H    0.999 --    21 C    0.972
    83   1 H    0.996 --    22 C    0.977
    84   1 H    0.998 --    22 C    0.978
    85   1 H    0.996 --    23 C    0.960
    86   1 H    0.998 --    26 C    0.970
    87   1 H    0.992 --    26 C    0.941
    88   1 H    0.997 --    27 C    0.985
    89   1 H    0.998 --    27 C    0.988
    90   1 H    0.997 --    27 C    0.979
    91   1 H    0.995 --    44 C    0.960
    92   1 H    0.995 --    50 C    0.963
    93   1 H    0.994 --    50 C    0.955
    94   1 H    0.997 --    51 C    0.983
    95   1 H    0.996 --    51 C    0.983
    96   1 H    0.997 --    51 C    0.986
    97   1 H    0.994 --    55 C    0.955
    98   1 H    0.994 --    55 C    0.962
    99   1 H    0.997 --    56 C    0.986
   100   1 H    0.997 --    56 C    0.983
   101   1 H    0.996 --    56 C    0.983
   102   1 H    0.991 --    57 C    0.945
   103   1 H    0.995 --    62 C    0.966
   104   1 H    0.997 --    63 C    0.965
   105   1 H    0.997 --    66 C    0.976
   106   1 H    0.994 --    66 C    0.979
   107   1 H    0.997 --    66 C    0.976
   108   1 H    0.995 --    67 C    0.960
 ---------------------------------------------------------------------------

Topologies differ in bond orders
Writing corrected topology to xtbtopo.mol

molecular dipole:
                 x           y           z       tot (Debye)
 q only:        0.195       0.723      -0.305
   full:       -0.384       0.984      -0.374       2.848
molecular quadrupole (traceless):
                xx          xy          yy          xz          yz          zz
 q only:      -12.059    -107.862      -3.351     -19.490      29.660      15.410
  q+dip:       -1.017    -119.359     -17.417     -38.951      40.755      18.434
   full:        2.356    -119.538     -20.871     -30.860      43.616      18.516

           -------------------------------------------------
          |                Geometry Summary                 |
           -------------------------------------------------

      molecular mass/u    :     1051.2684452
   center of mass at/Å    :       -0.2694354       0.1230529       0.5428401
  moments of inertia/u·Å² :        0.1124623E+05   0.6664537E+05   0.7336280E+05
rotational constants/cm⁻¹ :        0.1498958E-02   0.2529453E-03   0.2297845E-03

 * 106 selected distances

     #   Z          #   Z                                           value/Å
     1   6 C        2   6 C                                       1.3662444
     3   6 C        4   8 O                                       1.2137231
     5   6 C        6   6 C                                       1.3926103
     6   6 C        7   6 C                                       1.3740525
     7   6 C        8   6 C                                       1.4015177
     8   6 C        9   6 C                                       1.3744837
     5   6 C       10   6 C                                       1.4095224
     9   6 C       10   6 C                                       1.3980121
    11   6 C       12   6 C                                       1.3710136
    13   6 C       14   7 N                                       1.1486089
    15   6 C       16   7 N                                       1.1482986
     8   6 C       17   6 C                                       1.5082255
    17   6 C       18   6 C                                       1.5487011
    19   6 C       20   6 C                                       1.3263273
    18   6 C       22   6 C                                       1.5371091
    21   6 C       22   6 C                                       1.5369931
     7   6 C       23   6 C                                       1.5077637
    17   6 C       23   6 C                                       1.5613135
    21   6 C       23   6 C                                       1.5490327
     1   6 C       24   6 C                                       1.4129838
    24   6 C       25   6 C                                       1.3889805
    25   6 C       26   6 C                                       1.4915543
    26   6 C       27   6 C                                       1.5276831
    25   6 C       28   6 C                                       1.4037046
    28   6 C       29   6 C                                       1.4015882
    29   6 C       30  16 S                                       1.7224098
    29   6 C       31   6 C                                       1.3990944
    31   6 C       32   6 C                                       1.3976370
    28   6 C       33  16 S                                       1.7503816 (max)
    32   6 C       33  16 S                                       1.7268571
    32   6 C       34   6 C                                       1.4009946
    34   6 C       35   6 C                                       1.4115097
    35   6 C       36   7 N                                       1.3240922
    36   7 N       37  16 S                                       1.6182578
    37  16 S       38   7 N                                       1.6186434
    35   6 C       39   6 C                                       1.4314183
    38   7 N       39   6 C                                       1.3239098
    39   6 C       40   6 C                                       1.4117660
    40   6 C       41   6 C                                       1.4005646
    41   6 C       42  16 S                                       1.7288226
    42  16 S       43   6 C                                       1.7477531
    43   6 C       44   6 C                                       1.3902006
    44   6 C       45   6 C                                       1.3840034
    43   6 C       47   6 C                                       1.4049025
    46  16 S       47   6 C                                       1.7235440
    41   6 C       48   6 C                                       1.3995204
    47   6 C       48   6 C                                       1.3965587
    48   6 C       49   7 N                                       1.3693939
    49   7 N       50   6 C                                       1.4466716
    50   6 C       51   6 C                                       1.5265163
    40   6 C       52   6 C                                       1.4267539
    49   7 N       52   6 C                                       1.3867741
    34   6 C       53   6 C                                       1.4265612
    52   6 C       53   6 C                                       1.4219360
    31   6 C       54   7 N                                       1.3687443
    53   6 C       54   7 N                                       1.3863583
    54   7 N       55   6 C                                       1.4453039
    55   6 C       56   6 C                                       1.5269557
    45   6 C       57   6 C                                       1.4117271
    57   6 C       58   6 C                                       1.3609855
    59   6 C       60   8 O                                       1.2105583
    61   6 C       62   6 C                                       1.3808368
    62   6 C       63   6 C                                       1.3857578
    63   6 C       64   6 C                                       1.3969574
    64   6 C       65   8 O                                       1.3492860
    65   8 O       66   6 C                                       1.4093792
    64   6 C       67   6 C                                       1.4039003
    61   6 C       68   6 C                                       1.4104972
    67   6 C       68   6 C                                       1.3765924
    69   6 C       70   6 C                                       1.3700885
    71   6 C       72   7 N                                       1.1480741
    73   6 C       74   7 N                                       1.1481228
     1   6 C       75   1 H                                       1.0841899
     6   6 C       76   1 H                                       1.0788104
     9   6 C       77   1 H                                       1.0773292
    17   6 C       78   1 H                                       1.0881426
    18   6 C       79   1 H                                       1.0866120
    19   6 C       80   1 H                                       1.0742824 (min)
    20   6 C       81   1 H                                       1.0743546
    21   6 C       82   1 H                                       1.0868799
    22   6 C       83   1 H                                       1.0889290
    22   6 C       84   1 H                                       1.0891427
    23   6 C       85   1 H                                       1.0883306
    26   6 C       86   1 H                                       1.0914037
    26   6 C       87   1 H                                       1.0934382
    27   6 C       88   1 H                                       1.0870254
    27   6 C       89   1 H                                       1.0880332
    27   6 C       90   1 H                                       1.0860596
    44   6 C       91   1 H                                       1.0744394
    50   6 C       92   1 H                                       1.0927871
    50   6 C       93   1 H                                       1.0893041
    51   6 C       94   1 H                                       1.0877900
    51   6 C       95   1 H                                       1.0865799
    51   6 C       96   1 H                                       1.0875593
    55   6 C       97   1 H                                       1.0897360
    55   6 C       98   1 H                                       1.0927820
    56   6 C       99   1 H                                       1.0874901
    56   6 C      100   1 H                                       1.0877071
    56   6 C      101   1 H                                       1.0865871
    57   6 C      102   1 H                                       1.0862929
    62   6 C      103   1 H                                       1.0790758
    63   6 C      104   1 H                                       1.0782236
    66   6 C      105   1 H                                       1.0943017
    66   6 C      106   1 H                                       1.0885183
    66   6 C      107   1 H                                       1.0940915
    67   6 C      108   1 H                                       1.0775634

 * 6 distinct bonds (by element types)

   Z      Z             #   av. dist./Å        max./Å        min./Å
   1 H    6 C          34     1.0859939     1.0943017     1.0742824
   6 C    6 C          48     1.4259094     1.5613135     1.3263273
   6 C    7 N          12     1.3036960     1.4466716     1.1480741
   6 C    8 O           4     1.2957366     1.4093792     1.2105583
   6 C   16 S           6     1.7332947     1.7503816     1.7224098
   7 N   16 S           2     1.6184506     1.6186434     1.6182578


optimized geometry written to: xtbopt.mol


           -------------------------------------------------
          | TOTAL ENERGY             -193.238726758879 Eh   |
          | GRADIENT NORM               0.000437144221 Eh/α |
          | HOMO-LUMO GAP               1.120781438738 eV   |
           -------------------------------------------------

------------------------------------------------------------------------
 * finished run on 2022/02/02 at 06:37:42.366     
------------------------------------------------------------------------
 total:
 * wall-time:     0 d,  0 h,  0 min, 15.297 sec
 *  cpu-time:     0 d,  0 h,  2 min,  2.180 sec
 * ratio c/w:     7.987 speedup
 SCF:
 * wall-time:     0 d,  0 h,  0 min,  0.266 sec
 *  cpu-time:     0 d,  0 h,  0 min,  2.111 sec
 * ratio c/w:     7.931 speedup
 ANC optimizer:
 * wall-time:     0 d,  0 h,  0 min, 14.958 sec
 *  cpu-time:     0 d,  0 h,  1 min, 59.564 sec
 * ratio c/w:     7.993 speedup

