      -----------------------------------------------------------      
     |                   =====================                   |     
     |                           x T B                           |     
     |                   =====================                   |     
     |                         S. Grimme                         |     
     |          Mulliken Center for Theoretical Chemistry        |     
     |                    University of Bonn                     |     
      -----------------------------------------------------------      

   * xtb version 6.4.1 (unknown) compiled by 'oda6@login1.crc.pitt.edu' on 2021-06-25

   xtb is free software: you can redistribute it and/or modify it under
   the terms of the GNU Lesser General Public License as published by
   the Free Software Foundation, either version 3 of the License, or
   (at your option) any later version.
   
   xtb is distributed in the hope that it will be useful,
   but WITHOUT ANY WARRANTY; without even the implied warranty of
   MERCHANTABILITY or FITNESS FOR A PARTICULAR PURPOSE.  See the
   GNU Lesser General Public License for more details.
   
   Cite this work as:
   * C. Bannwarth, E. Caldeweyher, S. Ehlert, A. Hansen, P. Pracht,
     J. Seibert, S. Spicher, S. Grimme, WIREs Comput. Mol. Sci., 2020, 11,
     e01493. DOI: 10.1002/wcms.1493
   
   for GFN2-xTB:
   * C. Bannwarth, S. Ehlert and S. Grimme., J. Chem. Theory Comput., 2019,
     15, 1652-1671. DOI: 10.1021/acs.jctc.8b01176
   for GFN1-xTB:
   * S. Grimme, C. Bannwarth, P. Shushkov, J. Chem. Theory Comput., 2017,
     13, 1989-2009. DOI: 10.1021/acs.jctc.7b00118
   for GFN0-xTB:
   * P. Pracht, E. Caldeweyher, S. Ehlert, S. Grimme, ChemRxiv, 2019, preprint.
     DOI: 10.26434/chemrxiv.8326202.v1
   for GFN-FF:
   * S. Spicher and S. Grimme, Angew. Chem. Int. Ed., 2020, 59, 15665-15673.
     DOI: 10.1002/anie.202004239
   
   for DFT-D4:
   * E. Caldeweyher, C. Bannwarth and S. Grimme, J. Chem. Phys., 2017,
     147, 034112. DOI: 10.1063/1.4993215
   * E. Caldeweyher, S. Ehlert, A. Hansen, H. Neugebauer, S. Spicher,
     C. Bannwarth and S. Grimme, J. Chem. Phys., 2019, 150, 154122.
     DOI: 10.1063/1.5090222
   * E. Caldeweyher, J.-M. Mewes, S. Ehlert and S. Grimme, Phys. Chem. Chem. Phys.
     2020, 22, 8499-8512. DOI: 10.1039/D0CP00502A
   
   for sTDA-xTB:
   * S. Grimme and C. Bannwarth, J. Chem. Phys., 2016, 145, 054103.
     DOI: 10.1063/1.4959605
   
   in the mass-spec context:
   * V. Asgeirsson, C. Bauer and S. Grimme, Chem. Sci., 2017, 8, 4879.
     DOI: 10.1039/c7sc00601b
   * J. Koopman and S. Grimme, ACS Omega 2019, 4, 12, 15120-15133.
     DOI: 10.1021/acsomega.9b02011
   
   for metadynamics refer to:
   * S. Grimme, J. Chem. Theory Comput., 2019, 155, 2847-2862
     DOI: 10.1021/acs.jctc.9b00143
   
   for SPH calculations refer to:
   * S. Spicher and S. Grimme, J. Chem. Theory Comput., 2021, 17, 1701-1714
     DOI: 10.1021/acs.jctc.0c01306
   
   with help from (in alphabetical order)
   P. Atkinson, C. Bannwarth, F. Bohle, G. Brandenburg, E. Caldeweyher
   M. Checinski, S. Dohm, S. Ehlert, S. Ehrlich, I. Gerasimov, J. Koopman
   C. Lavigne, S. Lehtola, F. März, M. Müller, F. Musil, H. Neugebauer
   J. Pisarek, C. Plett, P. Pracht, J. Seibert, P. Shushkov, S. Spicher
   M. Stahn, M. Steiner, T. Strunk, J. Stückrath, T. Rose, and J. Unsleber
   
 * started run on 2022/02/02 at 16:01:07.488     

           -------------------------------------------------
          |                Calculation Setup                |
           -------------------------------------------------

          program call               : /ihome/ghutchison/oda6/xtb/xtb-641/bin/xtb ../../FF_optimized/39_133_19.mol -opt
          hostname                   : smp-n39
          coordinate file            : ../../FF_optimized/39_133_19.mol
          omp threads                :                     8
          number of atoms            :                   109
          number of electrons        :                   348
          charge                     :                     0
          spin                       :                   0.0
          first test random number   :      0.52175040000527

   ID    Z sym.   atoms
    1    6 C      1-3, 5-13, 15, 17-28, 30-33, 37, 38, 40-44, 46, 47, 49, 50,
                  52, 53, 55-61, 63-65, 67, 70-72
    2    8 O      4, 69
    3    7 N      14, 16, 34, 36, 48, 51, 62, 66, 68
    4   16 S      29, 39, 45, 54
    5   34 Se     35
    6    1 H      73-109
########################################################################
[WARNING] Please study the warnings concerning your input carefully
-1- prog_main_parseArguments: the use of '-opt' is discouraged, please use '--opt' next time
########################################################################

           -------------------------------------------------
          |                 G F N 2 - x T B                 |
           -------------------------------------------------

        Reference                      10.1021/acs.jctc.8b01176
      * Hamiltonian:
        H0-scaling (s, p, d)           1.850000    2.230000    2.230000
        zeta-weighting                 0.500000
      * Dispersion:
        s8                             2.700000
        a1                             0.520000
        a2                             5.000000
        s9                             5.000000
      * Repulsion:
        kExp                           1.500000    1.000000
        rExp                           1.000000
      * Coulomb:
        alpha                          2.000000
        third order                    shell-resolved
        anisotropic                    true
        a3                             3.000000
        a5                             4.000000
        cn-shift                       1.200000
        cn-exp                         4.000000
        max-rad                        5.000000


          ...................................................
          :                      SETUP                      :
          :.................................................:
          :  # basis functions                 355          :
          :  # atomic orbitals                 350          :
          :  # shells                          186          :
          :  # electrons                       348          :
          :  max. iterations                   250          :
          :  Hamiltonian                  GFN2-xTB          :
          :  restarted?                      false          :
          :  GBSA solvation                  false          :
          :  PC potential                    false          :
          :  electronic temp.          300.0000000     K    :
          :  accuracy                    1.0000000          :
          :  -> integral cutoff          0.2500000E+02      :
          :  -> integral neglect         0.1000000E-07      :
          :  -> SCF convergence          0.1000000E-05 Eh   :
          :  -> wf. convergence          0.1000000E-03 e    :
          :  Broyden damping             0.4000000          :
          ...................................................

 iter      E             dE          RMSdq      gap      omega  full diag
   1   -191.5382015 -0.191538E+03  0.504E+00    1.26       0.0  T
   2   -191.6619906 -0.123789E+00  0.313E+00    0.84       1.0  T
   3   -191.3795760  0.282415E+00  0.249E+00    0.90       1.0  T
   4   -191.7835595 -0.403983E+00  0.119E+00    0.84       1.0  T
   5   -191.9130610 -0.129501E+00  0.388E-01    0.77       1.0  T
   6   -191.9217652 -0.870422E-02  0.184E-01    0.87       1.0  T
   7   -191.9224328 -0.667655E-03  0.972E-02    0.87       1.0  T
   8   -191.9231302 -0.697375E-03  0.467E-02    0.88       1.0  T
   9   -191.9232213 -0.910785E-04  0.262E-02    0.88       1.0  T
  10   -191.9232560 -0.347267E-04  0.147E-02    0.88       1.0  T
  11   -191.9232685 -0.124525E-04  0.676E-03    0.88       1.4  T
  12   -191.9232708 -0.234771E-05  0.343E-03    0.88       2.8  T
  13   -191.9232713 -0.466349E-06  0.184E-03    0.88       5.2  T
  14   -191.9232714 -0.102044E-06  0.979E-04    0.88       9.8  T
  15   -191.9232714 -0.392704E-07  0.421E-04    0.88      22.7  T

   *** convergence criteria satisfied after 15 iterations ***

         #    Occupation            Energy/Eh            Energy/eV
      -------------------------------------------------------------
         1        2.0000           -0.7622106             -20.7408
       ...           ...                  ...                  ...
       168        2.0000           -0.4073366             -11.0842
       169        2.0000           -0.4036975             -10.9852
       170        2.0000           -0.4014829             -10.9249
       171        2.0000           -0.3944626             -10.7339
       172        2.0000           -0.3896861             -10.6039
       173        2.0000           -0.3809180             -10.3653
       174        2.0000           -0.3769220             -10.2566 (HOMO)
       175                         -0.3445314              -9.3752 (LUMO)
       176                         -0.3414732              -9.2920
       177                         -0.3283316              -8.9344
       178                         -0.3162351              -8.6052
       179                         -0.2994190              -8.1476
       ...                                ...                  ...
       350                          1.8867352              51.3407
      -------------------------------------------------------------
                  HL-Gap            0.0323905 Eh            0.8814 eV
             Fermi-level           -0.3607383 Eh           -9.8162 eV

 SCC (total)                   0 d,  0 h,  0 min,  0.387 sec
 SCC setup                      ...        0 min,  0.001 sec (  0.197%)
 Dispersion                     ...        0 min,  0.004 sec (  0.957%)
 classical contributions        ...        0 min,  0.000 sec (  0.066%)
 integral evaluation            ...        0 min,  0.016 sec (  4.144%)
 iterations                     ...        0 min,  0.332 sec ( 85.735%)
 molecular gradient             ...        0 min,  0.033 sec (  8.579%)
 printout                       ...        0 min,  0.001 sec (  0.294%)

         :::::::::::::::::::::::::::::::::::::::::::::::::::::
         ::                     SUMMARY                     ::
         :::::::::::::::::::::::::::::::::::::::::::::::::::::
         :: total energy            -188.690186536257 Eh    ::
         :: gradient norm              0.939945301895 Eh/a0 ::
         :: HOMO-LUMO gap              0.881391289881 eV    ::
         ::.................................................::
         :: SCC energy              -191.923271438332 Eh    ::
         :: -> isotropic ES            0.115363378042 Eh    ::
         :: -> anisotropic ES          0.020434610330 Eh    ::
         :: -> anisotropic XC          0.146206886951 Eh    ::
         :: -> dispersion             -0.172706356171 Eh    ::
         :: repulsion energy           3.232566267191 Eh    ::
         :: add. restraining           0.000000000000 Eh    ::
         :: total charge              -0.000000001458 e     ::
         :::::::::::::::::::::::::::::::::::::::::::::::::::::

      ----------------------------------------------------------- 
     |                   =====================                   |
     |                        A N C O P T                        |
     |                   =====================                   |
     |               Approximate Normal Coordinate               |
     |                Rational Function Optimizer                |
      ----------------------------------------------------------- 

          ...................................................
          :                      SETUP                      :
          :.................................................:
          :   optimization level            normal          :
          :   max. optcycles                   327          :
          :   ANC micro-cycles                  20          :
          :   degrees of freedom               321          :
          :.................................................:
          :   RF solver                   davidson          :
          :   write xtbopt.log                true          :
          :   linear?                        false          :
          :   energy convergence         0.5000000E-05 Eh   :
          :   grad. convergence          0.1000000E-02 Eh/α :
          :   maximium RF displ.         1.0000000          :
          :   Hlow (freq-cutoff)         0.1000000E-01      :
          :   Hmax (freq-cutoff)         5.0000000          :
          :   S6 in model hess.         20.0000000          :
          ...................................................

generating ANC from model Hessian ...
Using Lindh-Hessian (1995)
 Shifting diagonal of input Hessian by   1.036422889772379E-002
 Lowest  eigenvalues of input Hessian
    0.010000    0.000000    0.000000    0.000000    0.000000    0.000000
    0.000000    0.010393    0.010395    0.010452    0.010516    0.010552
    0.010608    0.010665    0.010730    0.010777    0.010951    0.011166
 Highest eigenvalues
    2.409492    2.437484    2.615242    2.708140    2.782274    3.091534
 

........................................................................
.............................. CYCLE    1 ..............................
........................................................................
   1   -191.9232714 -0.191923E+03  0.191E-04    0.88       0.0  T
   2   -191.9232714  0.834433E-09  0.173E-04    0.88      55.2  T
   3   -191.9232714 -0.348751E-08  0.768E-05    0.88     124.8  T
     SCC iter.                  ...        0 min,  0.054 sec
     gradient                   ...        0 min,  0.032 sec
 * total energy  :  -188.6901865 Eh     change       -0.1084601E-07 Eh
   gradient norm :     0.9399491 Eh/α   predicted     0.0000000E+00 (-100.00%)
   displ. norm   :     0.5313959 α      lambda       -0.4109785E+00
   maximum displ.:     0.1766620 α      in ANC's #321, #189, #185, ...

........................................................................
.............................. CYCLE    2 ..............................
........................................................................
   1   -191.9989403 -0.191999E+03  0.489E-01    0.94       0.0  T
   2   -192.0018902 -0.294988E-02  0.301E-01    0.85       1.0  T
   3   -191.9997004  0.218985E-02  0.203E-01    0.97       1.0  T
   4   -192.0024258 -0.272540E-02  0.986E-02    0.89       1.0  T
   5   -192.0032932 -0.867476E-03  0.314E-02    0.90       1.0  T
   6   -192.0033351 -0.418717E-04  0.152E-02    0.90       1.0  T
   7   -192.0033530 -0.178456E-04  0.611E-03    0.90       1.6  T
   8   -192.0033555 -0.251787E-05  0.256E-03    0.90       3.7  T
   9   -192.0033558 -0.340688E-06  0.140E-03    0.90       6.9  T
  10   -192.0033559 -0.588422E-07  0.777E-04    0.90      12.3  T
  11   -192.0033559 -0.161984E-07  0.403E-04    0.90      23.8  T
     SCC iter.                  ...        0 min,  0.173 sec
     gradient                   ...        0 min,  0.032 sec
 * total energy  :  -188.9615468 Eh     change       -0.2713603E+00 Eh
   gradient norm :     0.3546911 Eh/α   predicted    -0.2635855E+00 (  -2.87%)
   displ. norm   :     0.5933229 α      lambda       -0.1725861E+00
   maximum displ.:     0.1482827 α      in ANC's #189, #185, #149, ...

........................................................................
.............................. CYCLE    3 ..............................
........................................................................
   1   -192.1011502 -0.192101E+03  0.494E-01    0.90       0.0  T
   2   -192.1025397 -0.138947E-02  0.297E-01    0.83       1.0  T
   3   -192.1009483  0.159139E-02  0.190E-01    0.88       1.0  T
   4   -192.1031518 -0.220350E-02  0.728E-02    0.84       1.0  T
   5   -192.1036448 -0.492985E-03  0.305E-02    0.84       1.0  T
   6   -192.1036953 -0.505079E-04  0.128E-02    0.84       1.0  T
   7   -192.1037058 -0.104899E-04  0.476E-03    0.84       2.0  T
   8   -192.1037073 -0.143960E-05  0.252E-03    0.84       3.8  T
   9   -192.1037076 -0.353684E-06  0.147E-03    0.84       6.5  T
  10   -192.1037077 -0.873456E-07  0.726E-04    0.84      13.2  T
  11   -192.1037077 -0.201703E-07  0.378E-04    0.84      25.4  T
     SCC iter.                  ...        0 min,  0.185 sec
     gradient                   ...        0 min,  0.032 sec
 * total energy  :  -189.0815534 Eh     change       -0.1200066E+00 Eh
   gradient norm :     0.1739963 Eh/α   predicted    -0.1166731E+00 (  -2.78%)
   displ. norm   :     0.6041426 α      lambda       -0.7050942E-01
   maximum displ.:     0.1292124 α      in ANC's #27, #149, #37, ...

........................................................................
.............................. CYCLE    4 ..............................
........................................................................
   1   -192.0707571 -0.192071E+03  0.388E-01    0.80       0.0  T
   2   -192.0714113 -0.654194E-03  0.238E-01    0.72       1.0  T
   3   -192.0703253  0.108599E-02  0.154E-01    0.80       1.0  T
   4   -192.0718869 -0.156167E-02  0.605E-02    0.75       1.0  T
   5   -192.0722648 -0.377821E-03  0.237E-02    0.76       1.0  T
   6   -192.0723026 -0.378371E-04  0.105E-02    0.76       1.0  T
   7   -192.0723080 -0.538778E-05  0.525E-03    0.76       1.8  T
   8   -192.0723102 -0.216862E-05  0.251E-03    0.76       3.8  T
   9   -192.0723106 -0.415434E-06  0.127E-03    0.76       7.5  T
  10   -192.0723106 -0.475037E-07  0.607E-04    0.76      15.8  T
  11   -192.0723106 -0.114102E-07  0.302E-04    0.76      31.7  T
     SCC iter.                  ...        0 min,  0.175 sec
     gradient                   ...        0 min,  0.032 sec
 * total energy  :  -189.1275917 Eh     change       -0.4603832E-01 Eh
   gradient norm :     0.0933280 Eh/α   predicted    -0.4812256E-01 (   4.53%)
   displ. norm   :     0.6412271 α      lambda       -0.3044200E-01
   maximum displ.:     0.1774174 α      in ANC's #27, #51, #71, ...

........................................................................
.............................. CYCLE    5 ..............................
........................................................................
   1   -192.0929988 -0.192093E+03  0.272E-01    0.77       0.0  T
   2   -192.0931666 -0.167837E-03  0.160E-01    0.74       1.0  T
   3   -192.0924826  0.683975E-03  0.102E-01    0.77       1.0  T
   4   -192.0933483 -0.865671E-03  0.238E-02    0.75       1.0  T
   5   -192.0933923 -0.440272E-04  0.102E-02    0.75       1.0  T
   6   -192.0933965 -0.411705E-05  0.533E-03    0.75       1.8  T
   7   -192.0933977 -0.124262E-05  0.290E-03    0.75       3.3  T
   8   -192.0933984 -0.692025E-06  0.134E-03    0.75       7.2  T
   9   -192.0933985 -0.105935E-06  0.686E-04    0.75      14.0  T
  10   -192.0933985 -0.188495E-07  0.265E-04    0.75      36.2  T
     SCC iter.                  ...        0 min,  0.167 sec
     gradient                   ...        0 min,  0.032 sec
 * total energy  :  -189.1500901 Eh     change       -0.2249839E-01 Eh
   gradient norm :     0.0584931 Eh/α   predicted    -0.2147952E-01 (  -4.53%)
   displ. norm   :     0.7086530 α      lambda       -0.1948088E-01
   maximum displ.:     0.2150710 α      in ANC's #27, #24, #51, ...

........................................................................
.............................. CYCLE    6 ..............................
........................................................................
   1   -192.0831708 -0.192083E+03  0.309E-01    0.78       0.0  T
   2   -192.0832365 -0.656603E-04  0.176E-01    0.78       1.0  T
   3   -192.0816435  0.159294E-02  0.136E-01    0.79       1.0  T
   4   -192.0834836 -0.184007E-02  0.153E-02    0.78       1.0  T
   5   -192.0834959 -0.123163E-04  0.932E-03    0.78       1.0  T
   6   -192.0835001 -0.413521E-05  0.492E-03    0.78       1.9  T
   7   -192.0835019 -0.182607E-05  0.206E-03    0.78       4.6  T
   8   -192.0835022 -0.365542E-06  0.867E-04    0.78      11.1  T
   9   -192.0835023 -0.445110E-07  0.400E-04    0.78      24.0  T
     SCC iter.                  ...        0 min,  0.145 sec
     gradient                   ...        0 min,  0.031 sec
 * total energy  :  -189.1639860 Eh     change       -0.1389590E-01 Eh
   gradient norm :     0.0533276 Eh/α   predicted    -0.1463198E-01 (   5.30%)
   displ. norm   :     0.8255834 α      lambda       -0.1954377E-01
   maximum displ.:     0.2516896 α      in ANC's #9, #10, #20, ...

........................................................................
.............................. CYCLE    7 ..............................
........................................................................
   1   -192.1106634 -0.192111E+03  0.485E-01    0.81       0.0  T
   2   -192.1109586 -0.295173E-03  0.272E-01    0.83       1.0  T
   3   -192.1086555  0.230307E-02  0.147E-01    0.80       1.0  T
   4   -192.1112561 -0.260060E-02  0.256E-02    0.82       1.0  T
   5   -192.1113117 -0.556016E-04  0.113E-02    0.83       1.0  T
   6   -192.1113142 -0.249775E-05  0.681E-03    0.83       1.4  T
   7   -192.1113182 -0.393081E-05  0.244E-03    0.83       3.9  T
   8   -192.1113187 -0.549613E-06  0.105E-03    0.83       9.1  T
   9   -192.1113188 -0.831240E-07  0.423E-04    0.83      22.7  T
  10   -192.1113188 -0.247286E-08  0.217E-04    0.83      44.2  T
     SCC iter.                  ...        0 min,  0.160 sec
     gradient                   ...        0 min,  0.031 sec
 * total energy  :  -189.1729629 Eh     change       -0.8976862E-02 Eh
   gradient norm :     0.0547151 Eh/α   predicted    -0.1643230E-01 (  83.05%)
   displ. norm   :     0.6625852 α      lambda       -0.1321177E-01
   maximum displ.:     0.2950809 α      in ANC's #20, #24, #9, ...

........................................................................
.............................. CYCLE    8 ..............................
........................................................................
   1   -192.1457226 -0.192146E+03  0.264E-01    0.86       0.0  T
   2   -192.1458106 -0.879757E-04  0.149E-01    0.85       1.0  T
   3   -192.1448202  0.990379E-03  0.109E-01    0.89       1.0  T
   4   -192.1459741 -0.115386E-02  0.150E-02    0.86       1.0  T
   5   -192.1459919 -0.177921E-04  0.772E-03    0.87       1.2  T
   6   -192.1459953 -0.336136E-05  0.377E-03    0.87       2.5  T
   7   -192.1459961 -0.871554E-06  0.177E-03    0.87       5.4  T
   8   -192.1459964 -0.300945E-06  0.570E-04    0.87      16.8  T
   9   -192.1459964 -0.188166E-07  0.279E-04    0.87      34.4  T
     SCC iter.                  ...        0 min,  0.151 sec
     gradient                   ...        0 min,  0.033 sec
 * total energy  :  -189.1823798 Eh     change       -0.9416931E-02 Eh
   gradient norm :     0.0529275 Eh/α   predicted    -0.9505997E-02 (   0.95%)
   displ. norm   :     0.7238986 α      lambda       -0.1146136E-01
   maximum displ.:     0.2413301 α      in ANC's #20, #24, #9, ...

........................................................................
.............................. CYCLE    9 ..............................
........................................................................
   1   -192.1499003 -0.192150E+03  0.239E-01    0.90       0.0  T
   2   -192.1499595 -0.591589E-04  0.138E-01    0.92       1.0  T
   3   -192.1491048  0.854732E-03  0.861E-02    0.89       1.0  T
   4   -192.1500570 -0.952228E-03  0.104E-02    0.91       1.0  T
   5   -192.1500611 -0.407841E-05  0.586E-03    0.92       1.6  T
   6   -192.1500627 -0.161416E-05  0.313E-03    0.91       3.1  T
   7   -192.1500633 -0.576284E-06  0.140E-03    0.92       6.9  T
   8   -192.1500634 -0.155272E-06  0.607E-04    0.91      15.8  T
   9   -192.1500635 -0.279583E-07  0.263E-04    0.91      36.4  T
     SCC iter.                  ...        0 min,  0.147 sec
     gradient                   ...        0 min,  0.032 sec
 * total energy  :  -189.1900661 Eh     change       -0.7686320E-02 Eh
   gradient norm :     0.0682989 Eh/α   predicted    -0.8733731E-02 (  13.63%)
   displ. norm   :     0.7064907 α      lambda       -0.1080080E-01
   maximum displ.:     0.2410209 α      in ANC's #20, #24, #17, ...

........................................................................
.............................. CYCLE   10 ..............................
........................................................................
   1   -192.1622374 -0.192162E+03  0.232E-01    0.94       0.0  T
   2   -192.1623384 -0.100974E-03  0.132E-01    0.96       1.0  T
   3   -192.1619025  0.435849E-03  0.700E-02    0.94       1.0  T
   4   -192.1624121 -0.509606E-03  0.970E-03    0.96       1.0  T
   5   -192.1624139 -0.181530E-05  0.597E-03    0.96       1.6  T
   6   -192.1624161 -0.216258E-05  0.249E-03    0.96       3.9  T
   7   -192.1624164 -0.274004E-06  0.980E-04    0.96       9.8  T
   8   -192.1624164 -0.581352E-07  0.495E-04    0.96      19.3  T
     SCC iter.                  ...        0 min,  0.126 sec
     gradient                   ...        0 min,  0.032 sec
 * total energy  :  -189.1967540 Eh     change       -0.6687925E-02 Eh
   gradient norm :     0.0545270 Eh/α   predicted    -0.8095847E-02 (  21.05%)
   displ. norm   :     0.6929584 α      lambda       -0.9006769E-02
   maximum displ.:     0.3211962 α      in ANC's #20, #17, #24, ...

........................................................................
.............................. CYCLE   11 ..............................
........................................................................
   1   -192.1547436 -0.192155E+03  0.272E-01    0.97       0.0  T
   2   -192.1548417 -0.980580E-04  0.154E-01    0.97       1.0  T
   3   -192.1539194  0.922245E-03  0.951E-02    0.99       1.0  T
   4   -192.1549772 -0.105781E-02  0.149E-02    0.97       1.0  T
   5   -192.1549965 -0.192972E-04  0.724E-03    0.98       1.3  T
   6   -192.1549995 -0.297327E-05  0.282E-03    0.97       3.4  T
   7   -192.1549999 -0.425956E-06  0.135E-03    0.97       7.1  T
   8   -192.1550001 -0.141441E-06  0.488E-04    0.97      19.6  T
   9   -192.1550001 -0.107923E-07  0.249E-04    0.97      38.5  T
     SCC iter.                  ...        0 min,  0.139 sec
     gradient                   ...        0 min,  0.032 sec
 * total energy  :  -189.2033098 Eh     change       -0.6555782E-02 Eh
   gradient norm :     0.0629863 Eh/α   predicted    -0.6665824E-02 (   1.68%)
   displ. norm   :     0.7036544 α      lambda       -0.8841768E-02
   maximum displ.:     0.2163431 α      in ANC's #28, #17, #20, ...

........................................................................
.............................. CYCLE   12 ..............................
........................................................................
   1   -192.1676069 -0.192168E+03  0.232E-01    0.99       0.0  T
   2   -192.1676872 -0.803264E-04  0.132E-01    1.01       1.0  T
   3   -192.1671793  0.507922E-03  0.720E-02    0.99       1.0  T
   4   -192.1677681 -0.588844E-03  0.103E-02    1.00       1.0  T
   5   -192.1677716 -0.345748E-05  0.601E-03    1.00       1.6  T
   6   -192.1677731 -0.150557E-05  0.254E-03    1.00       3.8  T
   7   -192.1677735 -0.426814E-06  0.874E-04    1.00      11.0  T
   8   -192.1677736 -0.351161E-07  0.466E-04    1.00      20.5  T
     SCC iter.                  ...        0 min,  0.124 sec
     gradient                   ...        0 min,  0.031 sec
 * total energy  :  -189.2091881 Eh     change       -0.5878272E-02 Eh
   gradient norm :     0.0477394 Eh/α   predicted    -0.6609772E-02 (  12.44%)
   displ. norm   :     0.7283930 α      lambda       -0.7376775E-02
   maximum displ.:     0.3037822 α      in ANC's #20, #9, #17, ...

........................................................................
.............................. CYCLE   13 ..............................
........................................................................
   1   -192.1703425 -0.192170E+03  0.283E-01    1.00       0.0  T
   2   -192.1704475 -0.105043E-03  0.159E-01    1.01       1.0  T
   3   -192.1699856  0.461936E-03  0.656E-02    1.01       1.0  T
   4   -192.1705238 -0.538195E-03  0.114E-02    1.01       1.0  T
   5   -192.1705282 -0.444886E-05  0.716E-03    1.01       1.3  T
   6   -192.1705307 -0.254360E-05  0.271E-03    1.01       3.5  T
   7   -192.1705314 -0.669234E-06  0.109E-03    1.01       8.8  T
   8   -192.1705315 -0.891328E-07  0.494E-04    1.01      19.4  T
   9   -192.1705315 -0.134693E-07  0.215E-04    1.01      44.5  T
     SCC iter.                  ...        0 min,  0.136 sec
     gradient                   ...        0 min,  0.032 sec
 * total energy  :  -189.2152730 Eh     change       -0.6084942E-02 Eh
   gradient norm :     0.0355572 Eh/α   predicted    -0.5645275E-02 (  -7.23%)
   displ. norm   :     0.7670941 α      lambda       -0.7214285E-02
   maximum displ.:     0.3496937 α      in ANC's #20, #24, #9, ...

........................................................................
.............................. CYCLE   14 ..............................
........................................................................
   1   -192.1840585 -0.192184E+03  0.271E-01    1.02       0.0  T
   2   -192.1841712 -0.112717E-03  0.152E-01    1.03       1.0  T
   3   -192.1839173  0.253900E-03  0.513E-02    1.03       1.0  T
   4   -192.1842287 -0.311427E-03  0.106E-02    1.03       1.0  T
   5   -192.1842314 -0.265977E-05  0.674E-03    1.03       1.4  T
   6   -192.1842346 -0.322523E-05  0.264E-03    1.03       3.6  T
   7   -192.1842350 -0.434198E-06  0.116E-03    1.03       8.3  T
   8   -192.1842352 -0.124971E-06  0.453E-04    1.03      21.1  T
   9   -192.1842352 -0.126871E-07  0.220E-04    1.03      43.5  T
     SCC iter.                  ...        0 min,  0.146 sec
     gradient                   ...        0 min,  0.032 sec
 * total energy  :  -189.2203647 Eh     change       -0.5091638E-02 Eh
   gradient norm :     0.0526731 Eh/α   predicted    -0.5729698E-02 (  12.53%)
   displ. norm   :     0.7342547 α      lambda       -0.6488459E-02
   maximum displ.:     0.2422652 α      in ANC's #20, #17, #28, ...

........................................................................
.............................. CYCLE   15 ..............................
........................................................................
   1   -192.1890224 -0.192189E+03  0.279E-01    1.05       0.0  T
   2   -192.1891239 -0.101547E-03  0.158E-01    1.04       1.0  T
   3   -192.1884276  0.696308E-03  0.822E-02    1.07       1.0  T
   4   -192.1892151 -0.787504E-03  0.133E-02    1.05       1.0  T
   5   -192.1892266 -0.114358E-04  0.721E-03    1.05       1.3  T
   6   -192.1892292 -0.261953E-05  0.264E-03    1.05       3.6  T
   7   -192.1892296 -0.382655E-06  0.148E-03    1.05       6.5  T
   8   -192.1892298 -0.242534E-06  0.437E-04    1.05      21.9  T
   9   -192.1892298 -0.101917E-07  0.214E-04    1.05      44.8  T
     SCC iter.                  ...        0 min,  0.141 sec
     gradient                   ...        0 min,  0.032 sec
 * total energy  :  -189.2249389 Eh     change       -0.4574211E-02 Eh
   gradient norm :     0.0549640 Eh/α   predicted    -0.4993282E-02 (   9.16%)
   displ. norm   :     0.6420330 α      lambda       -0.7183136E-02
   maximum displ.:     0.2287899 α      in ANC's #20, #28, #17, ...

........................................................................
.............................. CYCLE   16 ..............................
........................................................................
   1   -192.2229253 -0.192223E+03  0.248E-01    1.05       0.0  T
   2   -192.2230645 -0.139231E-03  0.142E-01    1.06       1.0  T
   3   -192.2225923  0.472214E-03  0.936E-02    1.06       1.0  T
   4   -192.2232185 -0.626129E-03  0.157E-02    1.05       1.0  T
   5   -192.2232427 -0.242711E-04  0.746E-03    1.06       1.3  T
   6   -192.2232453 -0.258186E-05  0.359E-03    1.06       2.7  T
   7   -192.2232462 -0.876582E-06  0.128E-03    1.06       7.5  T
   8   -192.2232463 -0.139789E-06  0.683E-04    1.06      14.0  T
   9   -192.2232464 -0.433546E-07  0.202E-04    1.06      47.5  T
     SCC iter.                  ...        0 min,  0.153 sec
     gradient                   ...        0 min,  0.031 sec
 * total energy  :  -189.2271924 Eh     change       -0.2253563E-02 Eh
   gradient norm :     0.0649906 Eh/α   predicted    -0.5072027E-02 ( 125.07%)
   displ. norm   :     0.5773517 α      lambda       -0.7887117E-02
   maximum displ.:     0.1998299 α      in ANC's #20, #9, #10, ...

........................................................................
.............................. CYCLE   17 ..............................
........................................................................
   1   -192.1941759 -0.192194E+03  0.242E-01    1.06       0.0  T
   2   -192.1942120 -0.360623E-04  0.144E-01    1.10       1.0  T
   3   -192.1932044  0.100759E-02  0.116E-01    1.05       1.0  T
   4   -192.1944816 -0.127722E-02  0.147E-02    1.09       1.0  T
   5   -192.1944997 -0.180680E-04  0.693E-03    1.08       1.4  T
   6   -192.1945015 -0.181643E-05  0.311E-03    1.08       3.1  T
   7   -192.1945021 -0.592238E-06  0.190E-03    1.08       5.0  T
   8   -192.1945025 -0.344860E-06  0.486E-04    1.08      19.7  T
   9   -192.1945025 -0.100175E-07  0.243E-04    1.08      39.3  T
     SCC iter.                  ...        0 min,  0.137 sec
     gradient                   ...        0 min,  0.033 sec
 * total energy  :  -189.2308886 Eh     change       -0.3696144E-02 Eh
   gradient norm :     0.0625013 Eh/α   predicted    -0.5258083E-02 (  42.26%)
   displ. norm   :     0.4920845 α      lambda       -0.7845083E-02
   maximum displ.:     0.1930364 α      in ANC's #20, #17, #24, ...

........................................................................
.............................. CYCLE   18 ..............................
........................................................................
   1   -192.2054090 -0.192205E+03  0.265E-01    1.09       0.0  T
   2   -192.2056788 -0.269843E-03  0.154E-01    1.07       1.0  T
   3   -192.2050173  0.661564E-03  0.104E-01    1.11       1.0  T
   4   -192.2059080 -0.890751E-03  0.223E-02    1.08       1.0  T
   5   -192.2059531 -0.450988E-04  0.114E-02    1.09       1.0  T
   6   -192.2059650 -0.119132E-04  0.363E-03    1.08       2.6  T
   7   -192.2059654 -0.353624E-06  0.201E-03    1.09       4.8  T
   8   -192.2059657 -0.273567E-06  0.711E-04    1.09      13.5  T
   9   -192.2059657 -0.380365E-07  0.299E-04    1.09      32.0  T
     SCC iter.                  ...        0 min,  0.148 sec
     gradient                   ...        0 min,  0.032 sec
 * total energy  :  -189.2309164 Eh     change       -0.2782255E-04 Eh
   gradient norm :     0.1013631 Eh/α   predicted    -0.4872369E-02 (*******%)
   displ. norm   :     0.3493008 α      lambda       -0.8259751E-02
   maximum displ.:     0.1094659 α      in ANC's #28, #10, #6, ...

........................................................................
.............................. CYCLE   19 ..............................
........................................................................
   1   -192.2143211 -0.192214E+03  0.146E-01    1.09       0.0  T
   2   -192.2144220 -0.100858E-03  0.873E-02    1.10       1.0  T
   3   -192.2142821  0.139832E-03  0.610E-02    1.09       1.0  T
   4   -192.2145242 -0.242083E-03  0.124E-02    1.10       1.0  T
   5   -192.2145376 -0.133653E-04  0.601E-03    1.10       1.6  T
   6   -192.2145413 -0.376784E-05  0.218E-03    1.10       4.4  T
   7   -192.2145415 -0.133479E-06  0.120E-03    1.10       8.0  T
   8   -192.2145416 -0.816873E-07  0.584E-04    1.10      16.4  T
   9   -192.2145416 -0.339454E-07  0.176E-04    1.10      54.5  T
     SCC iter.                  ...        0 min,  0.144 sec
     gradient                   ...        0 min,  0.032 sec
 * total energy  :  -189.2358440 Eh     change       -0.4927612E-02 Eh
   gradient norm :     0.0352503 Eh/α   predicted    -0.4633766E-02 (  -5.96%)
   displ. norm   :     0.6549154 α      lambda       -0.4240594E-02
   maximum displ.:     0.2256550 α      in ANC's #20, #17, #28, ...

........................................................................
.............................. CYCLE   20 ..............................
........................................................................
   1   -192.1824586 -0.192182E+03  0.233E-01    1.07       0.0  T
   2   -192.1825564 -0.977314E-04  0.138E-01    1.09       1.0  T
   3   -192.1817425  0.813916E-03  0.104E-01    1.05       1.0  T
   4   -192.1827685 -0.102604E-02  0.168E-02    1.09       1.0  T
   5   -192.1827929 -0.244435E-04  0.736E-03    1.08       1.3  T
   6   -192.1827957 -0.273449E-05  0.314E-03    1.08       3.0  T
   7   -192.1827959 -0.267571E-06  0.184E-03    1.08       5.2  T
   8   -192.1827962 -0.282182E-06  0.641E-04    1.08      14.9  T
   9   -192.1827963 -0.379919E-07  0.285E-04    1.08      33.6  T
     SCC iter.                  ...        0 min,  0.142 sec
     gradient                   ...        0 min,  0.032 sec
 * total energy  :  -189.2365284 Eh     change       -0.6843731E-03 Eh
   gradient norm :     0.0817661 Eh/α   predicted    -0.3029727E-02 ( 342.70%)
   displ. norm   :     0.4038133 α      lambda       -0.6751338E-02
   maximum displ.:     0.1048014 α      in ANC's #28, #14, #19, ...
 * RMSD in coord.:     0.9646175 α      energy gain  -0.5463419E+00 Eh

generating ANC from model Hessian ...
Using Lindh-Hessian (1995)
 Shifting diagonal of input Hessian by   1.039629303207286E-002
 Lowest  eigenvalues of input Hessian
    0.010000    0.000000    0.000000    0.000000    0.000000    0.000000
    0.000000    0.010413    0.010427    0.010480    0.010512    0.010568
    0.010606    0.010753    0.010760    0.011020    0.011077    0.011376
 Highest eigenvalues
    2.274750    2.558794    2.614515    2.673137    2.693418    2.745573
 

........................................................................
.............................. CYCLE   21 ..............................
........................................................................
   1   -192.2529069 -0.192253E+03  0.174E-01    1.13       0.0  T
   2   -192.2529540 -0.470893E-04  0.101E-01    1.14       1.0  T
   3   -192.2524142  0.539804E-03  0.702E-02    1.13       1.0  T
   4   -192.2530290 -0.614751E-03  0.990E-03    1.13       1.0  T
   5   -192.2530351 -0.616356E-05  0.498E-03    1.13       1.9  T
   6   -192.2530360 -0.884891E-06  0.287E-03    1.14       3.3  T
   7   -192.2530366 -0.624242E-06  0.912E-04    1.13      10.5  T
   8   -192.2530367 -0.594797E-07  0.411E-04    1.13      23.3  T
     SCC iter.                  ...        0 min,  0.125 sec
     gradient                   ...        0 min,  0.031 sec
 * total energy  :  -189.2384931 Eh     change       -0.1964666E-02 Eh
   gradient norm :     0.0854849 Eh/α   predicted     0.0000000E+00 (-100.00%)
   displ. norm   :     0.2844309 α      lambda       -0.6162469E-02
   maximum displ.:     0.1098575 α      in ANC's #15, #18, #9, ...

........................................................................
.............................. CYCLE   22 ..............................
........................................................................
   1   -192.2221064 -0.192222E+03  0.182E-01    1.11       0.0  T
   2   -192.2221556 -0.492065E-04  0.105E-01    1.09       1.0  T
   3   -192.2215438  0.611787E-03  0.730E-02    1.13       1.0  T
   4   -192.2222381 -0.694234E-03  0.117E-02    1.11       1.0  T
   5   -192.2222504 -0.123403E-04  0.497E-03    1.11       1.9  T
   6   -192.2222517 -0.126466E-05  0.219E-03    1.11       4.4  T
   7   -192.2222518 -0.123477E-06  0.125E-03    1.11       7.7  T
   8   -192.2222519 -0.147433E-06  0.329E-04    1.11      29.1  T
   9   -192.2222519 -0.440082E-08  0.175E-04    1.11      54.6  T
     SCC iter.                  ...        0 min,  0.140 sec
     gradient                   ...        0 min,  0.032 sec
 * total energy  :  -189.2416681 Eh     change       -0.3174992E-02 Eh
   gradient norm :     0.0299040 Eh/α   predicted    -0.3341062E-02 (   5.23%)
   displ. norm   :     0.3553670 α      lambda       -0.2065191E-02
   maximum displ.:     0.1760724 α      in ANC's #15, #18, #9, ...

........................................................................
.............................. CYCLE   23 ..............................
........................................................................
   1   -192.2228218 -0.192223E+03  0.162E-01    1.12       0.0  T
   2   -192.2228656 -0.438341E-04  0.903E-02    1.12       1.0  T
   3   -192.2228063  0.592987E-04  0.276E-02    1.11       1.0  T
   4   -192.2228880 -0.817182E-04  0.465E-03    1.12       2.1  T
   5   -192.2228881 -0.522406E-07  0.317E-03    1.12       3.0  T
   6   -192.2228887 -0.618182E-06  0.121E-03    1.12       7.9  T
   7   -192.2228888 -0.119287E-06  0.485E-04    1.12      19.7  T
   8   -192.2228889 -0.188373E-07  0.191E-04    1.12      50.2  T
     SCC iter.                  ...        0 min,  0.129 sec
     gradient                   ...        0 min,  0.032 sec
 * total energy  :  -189.2432673 Eh     change       -0.1599229E-02 Eh
   gradient norm :     0.0280541 Eh/α   predicted    -0.1163181E-02 ( -27.27%)
   displ. norm   :     0.6824223 α      lambda       -0.3251719E-02
   maximum displ.:     0.3120323 α      in ANC's #15, #18, #9, ...

........................................................................
.............................. CYCLE   24 ..............................
........................................................................
   1   -192.2228618 -0.192223E+03  0.227E-01    1.13       0.0  T
   2   -192.2229434 -0.816446E-04  0.127E-01    1.13       1.0  T
   3   -192.2227936  0.149891E-03  0.401E-02    1.14       1.0  T
   4   -192.2229832 -0.189666E-03  0.891E-03    1.13       1.1  T
   5   -192.2229857 -0.249389E-05  0.580E-03    1.14       1.7  T
   6   -192.2229884 -0.263358E-05  0.164E-03    1.13       5.8  T
   7   -192.2229885 -0.123918E-06  0.771E-04    1.13      12.4  T
   8   -192.2229885 -0.509357E-07  0.292E-04    1.13      32.8  T
     SCC iter.                  ...        0 min,  0.133 sec
     gradient                   ...        0 min,  0.032 sec
 * total energy  :  -189.2459181 Eh     change       -0.2650784E-02 Eh
   gradient norm :     0.0273663 Eh/α   predicted    -0.2383086E-02 ( -10.10%)
   displ. norm   :     0.7352104 α      lambda       -0.3127385E-02
   maximum displ.:     0.3620397 α      in ANC's #15, #9, #8, ...

........................................................................
.............................. CYCLE   25 ..............................
........................................................................
   1   -192.2210559 -0.192221E+03  0.261E-01    1.13       0.0  T
   2   -192.2211461 -0.902359E-04  0.146E-01    1.14       1.0  T
   3   -192.2210151  0.131008E-03  0.380E-02    1.14       1.0  T
   4   -192.2211902 -0.175155E-03  0.816E-03    1.14       1.2  T
   5   -192.2211902  0.224294E-07  0.527E-03    1.14       1.8  T
   6   -192.2211925 -0.227162E-05  0.156E-03    1.14       6.1  T
   7   -192.2211927 -0.176695E-06  0.677E-04    1.14      14.1  T
   8   -192.2211927 -0.292563E-07  0.319E-04    1.14      30.1  T
     SCC iter.                  ...        0 min,  0.131 sec
     gradient                   ...        0 min,  0.031 sec
 * total energy  :  -189.2484249 Eh     change       -0.2506809E-02 Eh
   gradient norm :     0.0345450 Eh/α   predicted    -0.2408924E-02 (  -3.90%)
   displ. norm   :     0.6978560 α      lambda       -0.3257422E-02
   maximum displ.:     0.3082363 α      in ANC's #15, #9, #8, ...

........................................................................
.............................. CYCLE   26 ..............................
........................................................................
   1   -192.2357648 -0.192236E+03  0.219E-01    1.14       0.0  T
   2   -192.2358413 -0.764593E-04  0.123E-01    1.16       1.0  T
   3   -192.2357132  0.128102E-03  0.385E-02    1.14       1.0  T
   4   -192.2358761 -0.162917E-03  0.798E-03    1.16       1.2  T
   5   -192.2358772 -0.109931E-05  0.547E-03    1.15       1.8  T
   6   -192.2358793 -0.215511E-05  0.199E-03    1.15       4.8  T
   7   -192.2358796 -0.261377E-06  0.787E-04    1.15      12.2  T
   8   -192.2358796 -0.465926E-07  0.321E-04    1.15      29.8  T
     SCC iter.                  ...        0 min,  0.134 sec
     gradient                   ...        0 min,  0.032 sec
 * total energy  :  -189.2507855 Eh     change       -0.2360652E-02 Eh
   gradient norm :     0.0271897 Eh/α   predicted    -0.2421924E-02 (   2.60%)
   displ. norm   :     0.7564586 α      lambda       -0.2885709E-02
   maximum displ.:     0.3865642 α      in ANC's #15, #9, #8, ...

........................................................................
.............................. CYCLE   27 ..............................
........................................................................
   1   -192.2224780 -0.192222E+03  0.274E-01    1.15       0.0  T
   2   -192.2225698 -0.917392E-04  0.154E-01    1.16       1.0  T
   3   -192.2222366  0.333190E-03  0.605E-02    1.15       1.0  T
   4   -192.2226349 -0.398279E-03  0.920E-03    1.16       1.0  T
   5   -192.2226354 -0.552695E-06  0.619E-03    1.16       1.5  T
   6   -192.2226381 -0.269388E-05  0.138E-03    1.16       6.9  T
   7   -192.2226382 -0.105661E-06  0.619E-04    1.16      15.5  T
   8   -192.2226382 -0.178192E-07  0.321E-04    1.16      29.8  T
     SCC iter.                  ...        0 min,  0.135 sec
     gradient                   ...        0 min,  0.032 sec
 * total energy  :  -189.2526909 Eh     change       -0.1905338E-02 Eh
   gradient norm :     0.0323132 Eh/α   predicted    -0.2268505E-02 (  19.06%)
   displ. norm   :     0.5658375 α      lambda       -0.2119336E-02
   maximum displ.:     0.2538706 α      in ANC's #9, #15, #8, ...

........................................................................
.............................. CYCLE   28 ..............................
........................................................................
   1   -192.2365527 -0.192237E+03  0.157E-01    1.16       0.0  T
   2   -192.2365903 -0.376606E-04  0.886E-02    1.16       1.0  T
   3   -192.2365078  0.825352E-04  0.325E-02    1.16       1.0  T
   4   -192.2366112 -0.103441E-03  0.578E-03    1.16       1.7  T
   5   -192.2366114 -0.180653E-06  0.382E-03    1.16       2.5  T
   6   -192.2366125 -0.107174E-05  0.133E-03    1.16       7.2  T
   7   -192.2366126 -0.107264E-06  0.531E-04    1.16      18.0  T
   8   -192.2366126 -0.172059E-07  0.241E-04    1.16      39.8  T
     SCC iter.                  ...        0 min,  0.132 sec
     gradient                   ...        0 min,  0.032 sec
 * total energy  :  -189.2541544 Eh     change       -0.1463541E-02 Eh
   gradient norm :     0.0323823 Eh/α   predicted    -0.1398945E-02 (  -4.41%)
   displ. norm   :     0.6800521 α      lambda       -0.2713191E-02
   maximum displ.:     0.2869585 α      in ANC's #9, #15, #8, ...

........................................................................
.............................. CYCLE   29 ..............................
........................................................................
   1   -192.2394117 -0.192239E+03  0.216E-01    1.16       0.0  T
   2   -192.2394885 -0.767553E-04  0.122E-01    1.16       1.0  T
   3   -192.2392460  0.242481E-03  0.531E-02    1.17       1.0  T
   4   -192.2395362 -0.290181E-03  0.808E-03    1.16       1.2  T
   5   -192.2395363 -0.166836E-06  0.598E-03    1.16       1.6  T
   6   -192.2395392 -0.284041E-05  0.188E-03    1.16       5.1  T
   7   -192.2395393 -0.169149E-06  0.808E-04    1.16      11.9  T
   8   -192.2395394 -0.480080E-07  0.353E-04    1.16      27.1  T
     SCC iter.                  ...        0 min,  0.138 sec
     gradient                   ...        0 min,  0.032 sec
 * total energy  :  -189.2552903 Eh     change       -0.1135856E-02 Eh
   gradient norm :     0.0456891 Eh/α   predicted    -0.1983986E-02 (  74.67%)
   displ. norm   :     0.5328682 α      lambda       -0.2392220E-02
   maximum displ.:     0.2247204 α      in ANC's #15, #9, #8, ...

........................................................................
.............................. CYCLE   30 ..............................
........................................................................
   1   -192.2356796 -0.192236E+03  0.157E-01    1.17       0.0  T
   2   -192.2357119 -0.322889E-04  0.889E-02    1.18       1.0  T
   3   -192.2355338  0.178062E-03  0.440E-02    1.16       1.0  T
   4   -192.2357407 -0.206871E-03  0.652E-03    1.18       1.5  T
   5   -192.2357417 -0.103850E-05  0.450E-03    1.17       2.1  T
   6   -192.2357429 -0.123268E-05  0.130E-03    1.18       7.3  T
   7   -192.2357431 -0.110389E-06  0.467E-04    1.17      20.5  T
   8   -192.2357431 -0.105685E-07  0.268E-04    1.18      35.7  T
     SCC iter.                  ...        0 min,  0.130 sec
     gradient                   ...        0 min,  0.032 sec
 * total energy  :  -189.2567429 Eh     change       -0.1452609E-02 Eh
   gradient norm :     0.0242232 Eh/α   predicted    -0.1535747E-02 (   5.72%)
   displ. norm   :     0.5142042 α      lambda       -0.2144733E-02
   maximum displ.:     0.2595344 α      in ANC's #15, #9, #8, ...

........................................................................
.............................. CYCLE   31 ..............................
........................................................................
   1   -192.2572124 -0.192257E+03  0.158E-01    1.17       0.0  T
   2   -192.2572465 -0.340666E-04  0.916E-02    1.17       1.0  T
   3   -192.2569199  0.326540E-03  0.602E-02    1.17       1.0  T
   4   -192.2573042 -0.384237E-03  0.797E-03    1.17       1.2  T
   5   -192.2573073 -0.315916E-05  0.460E-03    1.17       2.1  T
   6   -192.2573085 -0.119596E-05  0.191E-03    1.17       5.0  T
   7   -192.2573086 -0.141180E-06  0.768E-04    1.17      12.5  T
   8   -192.2573087 -0.506012E-07  0.332E-04    1.17      28.9  T
     SCC iter.                  ...        0 min,  0.135 sec
     gradient                   ...        0 min,  0.032 sec
 * total energy  :  -189.2567389 Eh     change        0.3983800E-05 Eh
   gradient norm :     0.0632525 Eh/α   predicted    -0.1355910E-02 (*******%)
   displ. norm   :     0.4176266 α      lambda       -0.3357777E-02
   maximum displ.:     0.1900729 α      in ANC's #9, #15, #8, ...

........................................................................
.............................. CYCLE   32 ..............................
........................................................................
   1   -192.2315699 -0.192232E+03  0.166E-01    1.16       0.0  T
   2   -192.2316099 -0.400415E-04  0.948E-02    1.17       1.0  T
   3   -192.2312565  0.353352E-03  0.641E-02    1.16       1.0  T
   4   -192.2316722 -0.415704E-03  0.730E-03    1.17       1.3  T
   5   -192.2316744 -0.217329E-05  0.497E-03    1.17       1.9  T
   6   -192.2316762 -0.175736E-05  0.140E-03    1.17       6.9  T
   7   -192.2316762 -0.347965E-07  0.666E-04    1.17      14.4  T
   8   -192.2316762 -0.267405E-07  0.301E-04    1.17      31.8  T
     SCC iter.                  ...        0 min,  0.135 sec
     gradient                   ...        0 min,  0.032 sec
 * total energy  :  -189.2580533 Eh     change       -0.1314401E-02 Eh
   gradient norm :     0.0452025 Eh/α   predicted    -0.1971707E-02 (  50.01%)
   displ. norm   :     0.3444448 α      lambda       -0.2697262E-02
   maximum displ.:     0.1289486 α      in ANC's #13, #9, #4, ...

........................................................................
.............................. CYCLE   33 ..............................
........................................................................
   1   -192.2561748 -0.192256E+03  0.130E-01    1.18       0.0  T
   2   -192.2562070 -0.321719E-04  0.762E-02    1.18       1.0  T
   3   -192.2559645  0.242457E-03  0.564E-02    1.19       1.0  T
   4   -192.2562713 -0.306771E-03  0.673E-03    1.18       1.4  T
   5   -192.2562734 -0.212695E-05  0.343E-03    1.18       2.8  T
   6   -192.2562740 -0.599108E-06  0.178E-03    1.18       5.4  T
   7   -192.2562741 -0.107905E-06  0.648E-04    1.18      14.8  T
   8   -192.2562742 -0.260547E-07  0.325E-04    1.18      29.5  T
     SCC iter.                  ...        0 min,  0.133 sec
     gradient                   ...        0 min,  0.031 sec
 * total energy  :  -189.2580857 Eh     change       -0.3238851E-04 Eh
   gradient norm :     0.0561862 Eh/α   predicted    -0.1508638E-02 (4557.94%)
   displ. norm   :     0.4377231 α      lambda       -0.2829207E-02
   maximum displ.:     0.2644988 α      in ANC's #15, #9, #8, ...

........................................................................
.............................. CYCLE   34 ..............................
........................................................................
   1   -192.2320145 -0.192232E+03  0.163E-01    1.17       0.0  T
   2   -192.2320328 -0.182479E-04  0.944E-02    1.18       1.0  T
   3   -192.2315977  0.435052E-03  0.691E-02    1.16       1.0  T
   4   -192.2321073 -0.509599E-03  0.671E-03    1.18       1.4  T
   5   -192.2321091 -0.176399E-05  0.367E-03    1.18       2.6  T
   6   -192.2321096 -0.526365E-06  0.142E-03    1.18       6.7  T
   7   -192.2321097 -0.129045E-06  0.469E-04    1.18      20.4  T
   8   -192.2321097 -0.113342E-07  0.270E-04    1.18      35.4  T
     SCC iter.                  ...        0 min,  0.129 sec
     gradient                   ...        0 min,  0.032 sec
 * total energy  :  -189.2592566 Eh     change       -0.1170913E-02 Eh
   gradient norm :     0.0296194 Eh/α   predicted    -0.1685647E-02 (  43.96%)
   displ. norm   :     0.3563718 α      lambda       -0.2473136E-02
   maximum displ.:     0.1553937 α      in ANC's #9, #8, #6, ...

........................................................................
.............................. CYCLE   35 ..............................
........................................................................
   1   -192.2592151 -0.192259E+03  0.115E-01    1.18       0.0  T
   2   -192.2592845 -0.694120E-04  0.643E-02    1.18       1.0  T
   3   -192.2592497  0.348380E-04  0.247E-02    1.18       1.0  T
   4   -192.2592921 -0.423552E-04  0.943E-03    1.18       1.0  T
   5   -192.2592986 -0.652707E-05  0.318E-03    1.18       3.0  T
   6   -192.2592986 -0.164473E-07  0.220E-03    1.18       4.4  T
   7   -192.2592990 -0.349105E-06  0.644E-04    1.18      14.9  T
   8   -192.2592990 -0.205253E-07  0.277E-04    1.18      34.6  T
     SCC iter.                  ...        0 min,  0.132 sec
     gradient                   ...        0 min,  0.032 sec
 * total energy  :  -189.2589021 Eh     change        0.3544854E-03 Eh
   gradient norm :     0.0475013 Eh/α   predicted    -0.1393612E-02 (-493.14%)
   displ. norm   :     0.3509372 α      lambda       -0.2869000E-02
   maximum displ.:     0.1309471 α      in ANC's #9, #15, #8, ...

........................................................................
.............................. CYCLE   36 ..............................
........................................................................
   1   -192.2445526 -0.192245E+03  0.101E-01    1.17       0.0  T
   2   -192.2445854 -0.328720E-04  0.566E-02    1.18       1.0  T
   3   -192.2445449  0.405637E-04  0.220E-02    1.17       1.0  T
   4   -192.2445914 -0.465196E-04  0.697E-03    1.18       1.4  T
   5   -192.2445954 -0.398116E-05  0.302E-03    1.18       3.2  T
   6   -192.2445957 -0.345388E-06  0.171E-03    1.18       5.6  T
   7   -192.2445959 -0.160294E-06  0.457E-04    1.18      21.0  T
   8   -192.2445959 -0.935748E-08  0.235E-04    1.18      40.8  T
     SCC iter.                  ...        0 min,  0.138 sec
     gradient                   ...        0 min,  0.032 sec
 * total energy  :  -189.2605626 Eh     change       -0.1660443E-02 Eh
   gradient norm :     0.0149829 Eh/α   predicted    -0.1611175E-02 (  -2.97%)
   displ. norm   :     0.6084038 α      lambda       -0.1031587E-02
   maximum displ.:     0.2923381 α      in ANC's #9, #15, #8, ...

........................................................................
.............................. CYCLE   37 ..............................
........................................................................
   1   -192.2414509 -0.192241E+03  0.142E-01    1.18       0.0  T
   2   -192.2414762 -0.252950E-04  0.803E-02    1.19       1.0  T
   3   -192.2413948  0.813975E-04  0.299E-02    1.18       1.0  T
   4   -192.2414917 -0.969205E-04  0.545E-03    1.18       1.8  T
   5   -192.2414924 -0.679811E-06  0.340E-03    1.18       2.8  T
   6   -192.2414930 -0.627576E-06  0.120E-03    1.18       8.0  T
   7   -192.2414932 -0.125214E-06  0.437E-04    1.18      21.9  T
   8   -192.2414932 -0.121749E-07  0.205E-04    1.18      46.8  T
     SCC iter.                  ...        0 min,  0.131 sec
     gradient                   ...        0 min,  0.032 sec
 * total energy  :  -189.2611721 Eh     change       -0.6095399E-03 Eh
   gradient norm :     0.0266103 Eh/α   predicted    -0.7067175E-03 (  15.94%)
   displ. norm   :     0.6007648 α      lambda       -0.1148405E-02
   maximum displ.:     0.2993948 α      in ANC's #9, #8, #15, ...

........................................................................
.............................. CYCLE   38 ..............................
........................................................................
   1   -192.2395503 -0.192240E+03  0.129E-01    1.18       0.0  T
   2   -192.2395725 -0.222274E-04  0.727E-02    1.18       1.0  T
   3   -192.2395345  0.379685E-04  0.224E-02    1.18       1.0  T
   4   -192.2395838 -0.492509E-04  0.471E-03    1.18       2.0  T
   5   -192.2395839 -0.159786E-06  0.267E-03    1.18       3.6  T
   6   -192.2395844 -0.427883E-06  0.115E-03    1.18       8.3  T
   7   -192.2395845 -0.103287E-06  0.373E-04    1.18      25.7  T
   8   -192.2395845 -0.633648E-08  0.188E-04    1.18      50.9  T
     SCC iter.                  ...        0 min,  0.134 sec
     gradient                   ...        0 min,  0.032 sec
 * total energy  :  -189.2619606 Eh     change       -0.7884946E-03 Eh
   gradient norm :     0.0167589 Eh/α   predicted    -0.7814425E-03 (  -0.89%)
   displ. norm   :     0.5275256 α      lambda       -0.1077252E-02
   maximum displ.:     0.2626177 α      in ANC's #9, #8, #6, ...

........................................................................
.............................. CYCLE   39 ..............................
........................................................................
   1   -192.2564477 -0.192256E+03  0.104E-01    1.18       0.0  T
   2   -192.2564606 -0.128756E-04  0.598E-02    1.18       1.0  T
   3   -192.2563706  0.900693E-04  0.307E-02    1.19       1.0  T
   4   -192.2564740 -0.103462E-03  0.452E-03    1.18       2.1  T
   5   -192.2564748 -0.761861E-06  0.261E-03    1.18       3.7  T
   6   -192.2564752 -0.439652E-06  0.101E-03    1.18       9.5  T
   7   -192.2564753 -0.605683E-07  0.353E-04    1.18      27.1  T
   8   -192.2564753 -0.815294E-08  0.166E-04    1.18      57.8  T
     SCC iter.                  ...        0 min,  0.132 sec
     gradient                   ...        0 min,  0.032 sec
 * total energy  :  -189.2626666 Eh     change       -0.7060463E-03 Eh
   gradient norm :     0.0162534 Eh/α   predicted    -0.6885183E-03 (  -2.48%)
   displ. norm   :     0.7735482 α      lambda       -0.1050684E-02
   maximum displ.:     0.3861234 α      in ANC's #9, #8, #15, ...

........................................................................
.............................. CYCLE   40 ..............................
........................................................................
   1   -192.2400492 -0.192240E+03  0.173E-01    1.18       0.0  T
   2   -192.2400820 -0.328354E-04  0.979E-02    1.19       1.0  T
   3   -192.2397801  0.301961E-03  0.538E-02    1.17       1.0  T
   4   -192.2401222 -0.342166E-03  0.676E-03    1.19       1.4  T
   5   -192.2401231 -0.925000E-06  0.435E-03    1.19       2.2  T
   6   -192.2401242 -0.107748E-05  0.147E-03    1.19       6.5  T
   7   -192.2401244 -0.140176E-06  0.620E-04    1.19      15.4  T
   8   -192.2401244 -0.317796E-07  0.282E-04    1.19      34.0  T
     SCC iter.                  ...        0 min,  0.134 sec
     gradient                   ...        0 min,  0.032 sec
 * total energy  :  -189.2631619 Eh     change       -0.4952484E-03 Eh
   gradient norm :     0.0283188 Eh/α   predicted    -0.8397005E-03 (  69.55%)
   displ. norm   :     0.4794415 α      lambda       -0.1122685E-02
   maximum displ.:     0.2391662 α      in ANC's #9, #6, #8, ...

........................................................................
.............................. CYCLE   41 ..............................
........................................................................
   1   -192.2551480 -0.192255E+03  0.110E-01    1.19       0.0  T
   2   -192.2551670 -0.190504E-04  0.625E-02    1.19       1.0  T
   3   -192.2550954  0.715986E-04  0.294E-02    1.19       1.0  T
   4   -192.2551804 -0.849254E-04  0.432E-03    1.19       2.2  T
   5   -192.2551806 -0.197061E-06  0.282E-03    1.19       3.4  T
   6   -192.2551811 -0.549654E-06  0.129E-03    1.19       7.4  T
   7   -192.2551812 -0.117386E-06  0.431E-04    1.19      22.2  T
   8   -192.2551812 -0.963453E-08  0.190E-04    1.19      50.3  T
     SCC iter.                  ...        0 min,  0.133 sec
     gradient                   ...        0 min,  0.032 sec
 * total energy  :  -189.2633629 Eh     change       -0.2010379E-03 Eh
   gradient norm :     0.0448819 Eh/α   predicted    -0.6903753E-03 ( 243.41%)
   displ. norm   :     0.2867425 α      lambda       -0.1303867E-02
   maximum displ.:     0.1290452 α      in ANC's #9, #6, #2, ...

........................................................................
.............................. CYCLE   42 ..............................
........................................................................
   1   -192.2550864 -0.192255E+03  0.950E-02    1.19       0.0  T
   2   -192.2551159 -0.295221E-04  0.541E-02    1.19       1.0  T
   3   -192.2550471  0.688641E-04  0.295E-02    1.19       1.0  T
   4   -192.2551291 -0.820838E-04  0.388E-03    1.19       2.5  T
   5   -192.2551293 -0.109583E-06  0.277E-03    1.19       3.5  T
   6   -192.2551300 -0.752869E-06  0.102E-03    1.19       9.4  T
   7   -192.2551300 -0.322005E-07  0.466E-04    1.19      20.6  T
   8   -192.2551301 -0.129967E-07  0.156E-04    1.19      61.3  T
     SCC iter.                  ...        0 min,  0.131 sec
     gradient                   ...        0 min,  0.032 sec
 * total energy  :  -189.2638240 Eh     change       -0.4610805E-03 Eh
   gradient norm :     0.0269559 Eh/α   predicted    -0.7055417E-03 (  53.02%)
   displ. norm   :     0.4194033 α      lambda       -0.8036036E-03
   maximum displ.:     0.2113558 α      in ANC's #9, #8, #6, ...
 * RMSD in coord.:     0.9916931 α      energy gain  -0.2729560E-01 Eh

generating ANC from model Hessian ...
Using Lindh-Hessian (1995)
 Shifting diagonal of input Hessian by   1.054804390721512E-002
 Lowest  eigenvalues of input Hessian
    0.010000    0.000000    0.000000    0.000000    0.000000    0.000000
    0.000000    0.010564    0.010577    0.010635    0.010650    0.010722
    0.010769    0.010790    0.010910    0.011037    0.011126    0.011184
 Highest eigenvalues
    2.276789    2.591171    2.596557    2.630488    2.655917    2.669970
 

........................................................................
.............................. CYCLE   43 ..............................
........................................................................
   1   -192.2438829 -0.192244E+03  0.979E-02    1.19       0.0  T
   2   -192.2438997 -0.168117E-04  0.569E-02    1.20       1.0  T
   3   -192.2437480  0.151686E-03  0.396E-02    1.18       1.0  T
   4   -192.2439229 -0.174894E-03  0.465E-03    1.19       2.1  T
   5   -192.2439238 -0.910237E-06  0.286E-03    1.19       3.4  T
   6   -192.2439243 -0.484466E-06  0.112E-03    1.19       8.6  T
   7   -192.2439244 -0.448069E-07  0.526E-04    1.19      18.2  T
   8   -192.2439244 -0.204999E-07  0.224E-04    1.19      42.8  T
     SCC iter.                  ...        0 min,  0.135 sec
     gradient                   ...        0 min,  0.032 sec
 * total energy  :  -189.2641172 Eh     change       -0.2931850E-03 Eh
   gradient norm :     0.0200456 Eh/α   predicted     0.0000000E+00 (-100.00%)
   displ. norm   :     0.1448893 α      lambda       -0.6857500E-03
   maximum displ.:     0.0424621 α      in ANC's #10, #64, #21, ...

........................................................................
.............................. CYCLE   44 ..............................
........................................................................
   1   -192.2525252 -0.192253E+03  0.106E-01    1.20       0.0  T
   2   -192.2525414 -0.162493E-04  0.591E-02    1.19       1.0  T
   3   -192.2524945  0.469443E-04  0.225E-02    1.20       1.0  T
   4   -192.2525514 -0.569047E-04  0.305E-03    1.19       3.1  T
   5   -192.2525514 -0.126066E-07  0.214E-03    1.19       4.5  T
   6   -192.2525518 -0.381047E-06  0.576E-04    1.19      16.6  T
   7   -192.2525518 -0.857403E-08  0.262E-04    1.19      36.6  T
     SCC iter.                  ...        0 min,  0.120 sec
     gradient                   ...        0 min,  0.031 sec
 * total energy  :  -189.2643521 Eh     change       -0.2348803E-03 Eh
   gradient norm :     0.0090608 Eh/α   predicted    -0.3501397E-03 (  49.07%)
   displ. norm   :     0.2005053 α      lambda       -0.6733240E-03
   maximum displ.:     0.0678037 α      in ANC's #10, #19, #30, ...

........................................................................
.............................. CYCLE   45 ..............................
........................................................................
   1   -192.2616724 -0.192262E+03  0.140E-01    1.20       0.0  T
   2   -192.2616965 -0.240826E-04  0.779E-02    1.19       1.0  T
   3   -192.2616520  0.444980E-04  0.228E-02    1.20       1.0  T
   4   -192.2617096 -0.576491E-04  0.369E-03    1.20       2.6  T
   5   -192.2617098 -0.126302E-06  0.218E-03    1.20       4.4  T
   6   -192.2617101 -0.323691E-06  0.643E-04    1.20      14.9  T
   7   -192.2617101 -0.341678E-07  0.244E-04    1.20      39.3  T
     SCC iter.                  ...        0 min,  0.117 sec
     gradient                   ...        0 min,  0.032 sec
 * total energy  :  -189.2644911 Eh     change       -0.1390628E-03 Eh
   gradient norm :     0.0221853 Eh/α   predicted    -0.3501967E-03 ( 151.83%)
   displ. norm   :     0.1211024 α      lambda       -0.5042249E-03
   maximum displ.:     0.0387436 α      in ANC's #6, #13, #10, ...

........................................................................
.............................. CYCLE   46 ..............................
........................................................................
   1   -192.2584447 -0.192258E+03  0.812E-02    1.19       0.0  T
   2   -192.2584538 -0.906817E-05  0.451E-02    1.19       1.0  T
   3   -192.2584407  0.130722E-04  0.128E-02    1.19       1.0  T
   4   -192.2584583 -0.175691E-04  0.180E-03    1.19       5.3  T
   5   -192.2584582  0.531273E-07  0.133E-03    1.19       7.2  T
   6   -192.2584584 -0.156031E-06  0.418E-04    1.19      22.9  T
   7   -192.2584584 -0.100122E-07  0.159E-04    1.19      60.2  T
     SCC iter.                  ...        0 min,  0.121 sec
     gradient                   ...        0 min,  0.032 sec
 * total energy  :  -189.2647553 Eh     change       -0.2641504E-03 Eh
   gradient norm :     0.0064938 Eh/α   predicted    -0.2558208E-03 (  -3.15%)
   displ. norm   :     0.1956419 α      lambda       -0.4156377E-03
   maximum displ.:     0.0740638 α      in ANC's #6, #10, #2, ...

........................................................................
.............................. CYCLE   47 ..............................
........................................................................
   1   -192.2526308 -0.192253E+03  0.790E-02    1.19       0.0  T
   2   -192.2526378 -0.702127E-05  0.441E-02    1.19       1.0  T
   3   -192.2526176  0.201750E-04  0.138E-02    1.19       1.0  T
   4   -192.2526423 -0.246724E-04  0.196E-03    1.19       4.9  T
   5   -192.2526423 -0.916145E-08  0.109E-03    1.19       8.8  T
   6   -192.2526424 -0.659980E-07  0.423E-04    1.19      22.7  T
   7   -192.2526424 -0.154634E-07  0.146E-04    1.19      65.7  T
     SCC iter.                  ...        0 min,  0.118 sec
     gradient                   ...        0 min,  0.032 sec
 * total energy  :  -189.2649774 Eh     change       -0.2221171E-03 Eh
   gradient norm :     0.0131672 Eh/α   predicted    -0.2157751E-03 (  -2.86%)
   displ. norm   :     0.3266763 α      lambda       -0.4035439E-03
   maximum displ.:     0.1409501 α      in ANC's #10, #6, #2, ...

........................................................................
.............................. CYCLE   48 ..............................
........................................................................
   1   -192.2487428 -0.192249E+03  0.889E-02    1.19       0.0  T
   2   -192.2487534 -0.106189E-04  0.497E-02    1.19       1.0  T
   3   -192.2487376  0.158699E-04  0.132E-02    1.19       1.0  T
   4   -192.2487587 -0.210934E-04  0.265E-03    1.19       3.6  T
   5   -192.2487588 -0.145356E-06  0.145E-03    1.19       6.6  T
   6   -192.2487589 -0.132549E-06  0.524E-04    1.19      18.3  T
   7   -192.2487590 -0.226891E-07  0.177E-04    1.19      54.2  T
     SCC iter.                  ...        0 min,  0.121 sec
     gradient                   ...        0 min,  0.032 sec
 * total energy  :  -189.2652007 Eh     change       -0.2233322E-03 Eh
   gradient norm :     0.0154522 Eh/α   predicted    -0.2233087E-03 (  -0.01%)
   displ. norm   :     0.5033477 α      lambda       -0.6680801E-03
   maximum displ.:     0.2012997 α      in ANC's #6, #10, #2, ...

........................................................................
.............................. CYCLE   49 ..............................
........................................................................
   1   -192.2485009 -0.192249E+03  0.125E-01    1.19       0.0  T
   2   -192.2485235 -0.225385E-04  0.698E-02    1.19       1.0  T
   3   -192.2484934  0.301012E-04  0.191E-02    1.20       1.0  T
   4   -192.2485342 -0.408647E-04  0.397E-03    1.19       2.4  T
   5   -192.2485345 -0.276807E-06  0.240E-03    1.20       4.0  T
   6   -192.2485349 -0.427861E-06  0.859E-04    1.20      11.1  T
   7   -192.2485350 -0.558176E-07  0.310E-04    1.20      30.9  T
     SCC iter.                  ...        0 min,  0.115 sec
     gradient                   ...        0 min,  0.031 sec
 * total energy  :  -189.2655865 Eh     change       -0.3857245E-03 Eh
   gradient norm :     0.0152944 Eh/α   predicted    -0.4186720E-03 (   8.54%)
   displ. norm   :     0.2684652 α      lambda       -0.4152259E-03
   maximum displ.:     0.1213941 α      in ANC's #6, #2, #8, ...

........................................................................
.............................. CYCLE   50 ..............................
........................................................................
   1   -192.2562361 -0.192256E+03  0.463E-02    1.20       0.0  T
   2   -192.2562400 -0.384180E-05  0.264E-02    1.20       1.0  T
   3   -192.2562284  0.115607E-04  0.113E-02    1.20       1.0  T
   4   -192.2562419 -0.134574E-04  0.214E-03    1.20       4.5  T
   5   -192.2562421 -0.191124E-06  0.124E-03    1.20       7.8  T
   6   -192.2562422 -0.851778E-07  0.585E-04    1.20      16.4  T
   7   -192.2562422 -0.220448E-07  0.180E-04    1.20      53.2  T
     SCC iter.                  ...        0 min,  0.114 sec
     gradient                   ...        0 min,  0.032 sec
 * total energy  :  -189.2658231 Eh     change       -0.2366808E-03 Eh
   gradient norm :     0.0126550 Eh/α   predicted    -0.2225769E-03 (  -5.96%)
   displ. norm   :     0.4997094 α      lambda       -0.4162453E-03
   maximum displ.:     0.2185985 α      in ANC's #6, #2, #10, ...

........................................................................
.............................. CYCLE   51 ..............................
........................................................................
   1   -192.2539362 -0.192254E+03  0.105E-01    1.20       0.0  T
   2   -192.2539519 -0.157738E-04  0.587E-02    1.20       1.0  T
   3   -192.2539358  0.161123E-04  0.149E-02    1.20       1.0  T
   4   -192.2539594 -0.235341E-04  0.334E-03    1.20       2.9  T
   5   -192.2539593  0.334493E-07  0.197E-03    1.20       4.9  T
   6   -192.2539596 -0.297573E-06  0.646E-04    1.20      14.8  T
   7   -192.2539597 -0.334622E-07  0.204E-04    1.20      46.9  T
     SCC iter.                  ...        0 min,  0.120 sec
     gradient                   ...        0 min,  0.032 sec
 * total energy  :  -189.2661242 Eh     change       -0.3010546E-03 Eh
   gradient norm :     0.0075156 Eh/α   predicted    -0.2601001E-03 ( -13.60%)
   displ. norm   :     0.5247071 α      lambda       -0.3281139E-03
   maximum displ.:     0.2336470 α      in ANC's #6, #2, #10, ...

........................................................................
.............................. CYCLE   52 ..............................
........................................................................
   1   -192.2506085 -0.192251E+03  0.974E-02    1.20       0.0  T
   2   -192.2506204 -0.118296E-04  0.545E-02    1.20       1.0  T
   3   -192.2506143  0.608257E-05  0.976E-03    1.20       1.0  T
   4   -192.2506251 -0.107819E-04  0.321E-03    1.20       3.0  T
   5   -192.2506253 -0.285855E-06  0.159E-03    1.20       6.0  T
   6   -192.2506255 -0.149872E-06  0.584E-04    1.20      16.4  T
   7   -192.2506255 -0.267633E-07  0.201E-04    1.20      47.7  T
     SCC iter.                  ...        0 min,  0.120 sec
     gradient                   ...        0 min,  0.032 sec
 * total energy  :  -189.2663772 Eh     change       -0.2530465E-03 Eh
   gradient norm :     0.0092517 Eh/α   predicted    -0.2092286E-03 ( -17.32%)
   displ. norm   :     0.4964358 α      lambda       -0.3858761E-03
   maximum displ.:     0.2352687 α      in ANC's #2, #6, #10, ...

........................................................................
.............................. CYCLE   53 ..............................
........................................................................
   1   -192.2550296 -0.192255E+03  0.749E-02    1.20       0.0  T
   2   -192.2550358 -0.623892E-05  0.423E-02    1.20       1.0  T
   3   -192.2550187  0.171770E-04  0.127E-02    1.20       1.0  T
   4   -192.2550391 -0.203923E-04  0.298E-03    1.20       3.2  T
   5   -192.2550393 -0.274913E-06  0.156E-03    1.20       6.1  T
   6   -192.2550394 -0.118971E-06  0.620E-04    1.20      15.4  T
   7   -192.2550395 -0.302041E-07  0.229E-04    1.20      41.7  T
     SCC iter.                  ...        0 min,  0.113 sec
     gradient                   ...        0 min,  0.032 sec
 * total energy  :  -189.2666599 Eh     change       -0.2826975E-03 Eh
   gradient norm :     0.0084741 Eh/α   predicted    -0.2404892E-03 ( -14.93%)
   displ. norm   :     0.6580455 α      lambda       -0.3810581E-03
   maximum displ.:     0.3072187 α      in ANC's #2, #6, #10, ...

........................................................................
.............................. CYCLE   54 ..............................
........................................................................
   1   -192.2532266 -0.192253E+03  0.966E-02    1.20       0.0  T
   2   -192.2532381 -0.114831E-04  0.545E-02    1.20       1.0  T
   3   -192.2532310  0.711293E-05  0.101E-02    1.20       1.0  T
   4   -192.2532421 -0.110944E-04  0.366E-03    1.20       2.6  T
   5   -192.2532426 -0.498805E-06  0.204E-03    1.20       4.7  T
   6   -192.2532429 -0.265269E-06  0.767E-04    1.20      12.5  T
   7   -192.2532429 -0.483982E-07  0.262E-04    1.20      36.5  T
     SCC iter.                  ...        0 min,  0.116 sec
     gradient                   ...        0 min,  0.031 sec
 * total energy  :  -189.2669421 Eh     change       -0.2821609E-03 Eh
   gradient norm :     0.0086826 Eh/α   predicted    -0.2730345E-03 (  -3.23%)
   displ. norm   :     0.5983907 α      lambda       -0.3974327E-03
   maximum displ.:     0.2894312 α      in ANC's #2, #6, #10, ...

........................................................................
.............................. CYCLE   55 ..............................
........................................................................
   1   -192.2542135 -0.192254E+03  0.978E-02    1.20       0.0  T
   2   -192.2542249 -0.113019E-04  0.552E-02    1.21       1.0  T
   3   -192.2542014  0.234631E-04  0.148E-02    1.20       1.0  T
   4   -192.2542301 -0.287012E-04  0.381E-03    1.21       2.5  T
   5   -192.2542306 -0.523190E-06  0.212E-03    1.21       4.5  T
   6   -192.2542308 -0.161066E-06  0.812E-04    1.21      11.8  T
   7   -192.2542308 -0.516850E-07  0.311E-04    1.21      30.8  T
     SCC iter.                  ...        0 min,  0.114 sec
     gradient                   ...        0 min,  0.032 sec
 * total energy  :  -189.2670856 Eh     change       -0.1435526E-03 Eh
   gradient norm :     0.0169158 Eh/α   predicted    -0.2698747E-03 (  88.00%)
   displ. norm   :     0.3659513 α      lambda       -0.4478141E-03
   maximum displ.:     0.1893203 α      in ANC's #2, #6, #8, ...

........................................................................
.............................. CYCLE   56 ..............................
........................................................................
   1   -192.2563317 -0.192256E+03  0.771E-02    1.20       0.0  T
   2   -192.2563417 -0.991799E-05  0.429E-02    1.20       1.0  T
   3   -192.2563312  0.104490E-04  0.111E-02    1.20       1.0  T
   4   -192.2563451 -0.139162E-04  0.326E-03    1.20       2.9  T
   5   -192.2563457 -0.584282E-06  0.158E-03    1.20       6.1  T
   6   -192.2563458 -0.584609E-07  0.854E-04    1.20      11.2  T
   7   -192.2563458 -0.601319E-07  0.269E-04    1.20      35.6  T
     SCC iter.                  ...        0 min,  0.129 sec
     gradient                   ...        0 min,  0.033 sec
 * total energy  :  -189.2672928 Eh     change       -0.2071136E-03 Eh
   gradient norm :     0.0090344 Eh/α   predicted    -0.2538919E-03 (  22.59%)
   displ. norm   :     0.4228063 α      lambda       -0.2750851E-03
   maximum displ.:     0.2053079 α      in ANC's #2, #6, #8, ...

........................................................................
.............................. CYCLE   57 ..............................
........................................................................
[...]
    89   1 H        0.924     0.053     2.279     2.361
    90   1 H        0.925     0.047     2.352     2.398
    91   1 H        0.925     0.040     2.445     2.445
    92   1 H        0.925     0.051     2.310     2.377
    93   1 H        0.925     0.047     2.358     2.401
    94   1 H        0.925     0.063     2.163     2.300
    95   1 H        0.924     0.075     2.031     2.229
    96   1 H        0.925     0.055     2.258     2.350
    97   1 H        0.925     0.050     2.316     2.380
    98   1 H        0.925     0.045     2.384     2.415
    99   1 H        0.924     0.058     2.225     2.333
   100   1 H        0.924     0.056     2.246     2.344
   101   1 H        0.925     0.061     2.182     2.310
   102   1 H        0.925     0.056     2.252     2.347
   103   1 H        0.925     0.056     2.249     2.345
   104   1 H        0.925     0.053     2.283     2.363
   105   1 H        0.925     0.054     2.270     2.356
   106   1 H        0.925     0.069     2.099     2.266
   107   1 H        0.925     0.053     2.284     2.364
   108   1 H        0.925     0.073     2.055     2.242
   109   1 H        0.925     0.059     2.211     2.325

 Mol. C6AA /au·bohr⁶  :     208131.938091
 Mol. C8AA /au·bohr⁸  :    5911311.390455
 Mol. α(0) /au        :        720.557174


Wiberg/Mayer (AO) data.
largest (>0.10) Wiberg bond orders for each atom

 ---------------------------------------------------------------------------
     #   Z sym  total        # sym  WBO       # sym  WBO       # sym  WBO
 ---------------------------------------------------------------------------
     1   6 C    3.947 --     2 C    1.495    24 C    1.309    73 H    0.931
     2   6 C    3.952 --     1 C    1.495    11 C    1.138     3 C    1.064
     3   6 C    3.918 --     4 O    1.700     2 C    1.064     5 C    1.030
     4   8 O    2.118 --     3 C    1.700    54 S    0.140
     5   6 C    3.970 --     6 C    1.378    10 C    1.311     3 C    1.030
     6   6 C    3.980 --     7 C    1.444     5 C    1.378    74 H    0.964
     7   6 C    3.956 --     6 C    1.444     8 C    1.325    23 C    0.992
     8   6 C    3.966 --     9 C    1.450     7 C    1.325    17 C    0.993
     9   6 C    3.977 --     8 C    1.450    10 C    1.365    75 H    0.958
    10   6 C    3.976 --     9 C    1.365     5 C    1.311    11 C    1.088
    11   6 C    3.972 --    12 C    1.482     2 C    1.138    10 C    1.088
    12   6 C    3.947 --    11 C    1.482    15 C    1.099    13 C    1.096
    13   6 C    3.944 --    14 N    2.761    12 C    1.096
    14   7 N    2.967 --    13 C    2.761
    15   6 C    3.944 --    16 N    2.747    12 C    1.099
    16   7 N    2.962 --    15 C    2.747
    17   6 C    3.985 --     8 C    0.993    23 C    0.975    76 H    0.962
                            18 C    0.951
    18   6 C    3.989 --    19 C    1.004    22 C    0.989    77 H    0.971
                            17 C    0.951
    19   6 C    3.982 --    20 C    1.924    18 C    1.004    78 H    0.971
    20   6 C    3.982 --    19 C    1.924    21 C    1.004    79 H    0.971
    21   6 C    3.989 --    20 C    1.004    22 C    0.989    80 H    0.971
                            23 C    0.951
    22   6 C    3.994 --    21 C    0.989    18 C    0.989    81 H    0.978
                            82 H    0.974
    23   6 C    3.984 --     7 C    0.992    17 C    0.975    83 H    0.962
                            21 C    0.951
    24   6 C    3.930 --    25 C    1.339     1 C    1.309    54 S    1.079
    25   6 C    3.956 --    28 C    1.358    24 C    1.339    26 C    1.018
    26   6 C    3.993 --    25 C    1.018    27 C    0.992    84 H    0.969
                            85 H    0.962
    27   6 C    3.990 --    26 C    0.992    87 H    0.988    86 H    0.987
                            88 H    0.984
    28   6 C    3.928 --    25 C    1.358    53 C    1.295    29 S    1.078
    29  16 S    2.506 --    30 C    1.117    28 C    1.078
    30   6 C    3.919 --    52 C    1.306    31 C    1.273    29 S    1.117
    31   6 C    3.957 --    50 C    1.276    30 C    1.273    32 C    1.164
    32   6 C    3.974 --    36 N    1.464    31 C    1.164    33 C    1.135
                            35 Se   0.117
    33   6 C    3.975 --    34 N    1.463    37 C    1.165    32 C    1.135
                            35 Se   0.117
    34   7 N    3.141 --    33 C    1.463    35 Se   1.441    36 N    0.128
    35  34 Se   3.253 --    36 N    1.443    34 N    1.441    33 C    0.117
                            32 C    0.117
    36   7 N    3.144 --    32 C    1.464    35 Se   1.443    34 N    0.128
    37   6 C    3.953 --    49 C    1.275    38 C    1.271    33 C    1.165
    38   6 C    3.930 --    47 C    1.311    37 C    1.271    39 S    1.113
    39  16 S    2.522 --    38 C    1.113    40 C    1.096
    40   6 C    3.929 --    46 C    1.344    41 C    1.275    39 S    1.096
    41   6 C    3.967 --    44 C    1.474    40 C    1.275    42 C    1.012
    42   6 C    3.994 --    41 C    1.012    43 C    0.995    90 H    0.968
                            89 H    0.964
    43   6 C    3.991 --    42 C    0.995    91 H    0.988    92 H    0.985
                            93 H    0.984
    44   6 C    3.913 --    41 C    1.474    59 C    1.152    45 S    1.063
    45  16 S    2.556 --    46 C    1.128    44 C    1.063
    46   6 C    3.938 --    40 C    1.344    47 C    1.241    45 S    1.128
    47   6 C    3.936 --    38 C    1.311    46 C    1.241    48 N    1.156
    48   7 N    3.561 --    49 C    1.175    47 C    1.156    57 C    0.982
    49   6 C    3.933 --    37 C    1.275    50 C    1.214    48 N    1.175
    50   6 C    3.928 --    31 C    1.276    49 C    1.214    51 N    1.170
    51   7 N    3.543 --    50 C    1.170    52 C    1.150    55 C    0.978
    52   6 C    3.937 --    30 C    1.306    53 C    1.253    51 N    1.150
    53   6 C    3.942 --    28 C    1.295    52 C    1.253    54 S    1.154
    54  16 S    2.730 --    53 C    1.154    24 C    1.079     4 O    0.140
    55   6 C    3.960 --    56 C    1.005    51 N    0.978    95 H    0.964
                            94 H    0.956
    56   6 C    3.988 --    55 C    1.005    97 H    0.986    98 H    0.985
                            96 H    0.982
    57   6 C    3.965 --    58 C    1.007    48 N    0.982    99 H    0.965
                           100 H    0.962
    58   6 C    3.984 --    57 C    1.007   102 H    0.983   103 H    0.981
                           101 H    0.980
    59   6 C    3.951 --    60 C    1.535    44 C    1.152    70 C    0.976
    60   6 C    3.965 --    59 C    1.535    61 C    1.110    63 C    1.101
    61   6 C    3.951 --    62 N    2.790    60 C    1.110
    62   7 N    3.001 --    61 C    2.790
    63   6 C    3.931 --    64 C    1.454    69 O    1.122    60 C    1.101
    64   6 C    3.944 --    63 C    1.454    67 C    1.105    65 C    1.096
    65   6 C    3.949 --    66 N    2.783    64 C    1.096
    66   7 N    2.979 --    65 C    2.783
    67   6 C    3.951 --    68 N    2.777    64 C    1.105
    68   7 N    2.998 --    67 C    2.777
    69   8 O    2.302 --    63 C    1.122    70 C    0.930
    70   6 C    3.928 --    72 C    0.977    59 C    0.976    71 C    0.966
                            69 O    0.930
    71   6 C    3.979 --   104 H    0.985   105 H    0.982   106 H    0.979
                            70 C    0.966
    72   6 C    3.980 --   107 H    0.983   109 H    0.978   108 H    0.977
                            70 C    0.977
    73   1 H    0.994 --     1 C    0.931
    74   1 H    0.996 --     6 C    0.964
    75   1 H    0.996 --     9 C    0.958
    76   1 H    0.997 --    17 C    0.962
    77   1 H    0.998 --    18 C    0.971
    78   1 H    0.998 --    19 C    0.971
    79   1 H    0.998 --    20 C    0.971
    80   1 H    0.999 --    21 C    0.971
    81   1 H    0.998 --    22 C    0.978
    82   1 H    0.999 --    22 C    0.974
    83   1 H    0.997 --    23 C    0.962
    84   1 H    0.996 --    26 C    0.969
    85   1 H    0.996 --    26 C    0.962
    86   1 H    0.999 --    27 C    0.987
    87   1 H    0.998 --    27 C    0.988
    88   1 H    0.996 --    27 C    0.984
    89   1 H    0.995 --    42 C    0.964
    90   1 H    0.997 --    42 C    0.968
    91   1 H    0.998 --    43 C    0.988
    92   1 H    0.997 --    43 C    0.985
    93   1 H    0.996 --    43 C    0.984
    94   1 H    0.994 --    55 C    0.956
    95   1 H    0.994 --    55 C    0.964
    96   1 H    0.996 --    56 C    0.982
    97   1 H    0.997 --    56 C    0.986
    98   1 H    0.998 --    56 C    0.985
    99   1 H    0.994 --    57 C    0.965
   100   1 H    0.996 --    57 C    0.962
   101   1 H    0.996 --    58 C    0.980
   102   1 H    0.996 --    58 C    0.983
   103   1 H    0.997 --    58 C    0.981
   104   1 H    0.997 --    71 C    0.985
   105   1 H    0.996 --    71 C    0.982
   106   1 H    0.994 --    71 C    0.979
   107   1 H    0.997 --    72 C    0.983
   108   1 H    0.993 --    72 C    0.977
   109   1 H    0.995 --    72 C    0.978
 ---------------------------------------------------------------------------

Topologies differ in bond orders
Writing corrected topology to xtbtopo.mol

molecular dipole:
                 x           y           z       tot (Debye)
 q only:       -0.020       0.545      -1.008
   full:       -0.402       0.526      -1.001       3.052
molecular quadrupole (traceless):
                xx          xy          yy          xz          yz          zz
 q only:       78.624     -13.122    -148.717      46.075      63.639      70.093
  q+dip:       91.177      -7.097    -166.505      50.091      81.181      75.328
   full:       95.209     -12.125    -170.525      42.864      83.074      75.315

           -------------------------------------------------
          |                Geometry Summary                 |
           -------------------------------------------------

      molecular mass/u    :     1075.1726951
   center of mass at/Å    :       -0.6678206      -0.0578830      -0.7715875
  moments of inertia/u·Å² :        0.1550345E+05   0.5569677E+05   0.6929610E+05
rotational constants/cm⁻¹ :        0.1087347E-02   0.3026681E-03   0.2432696E-03

 * 107 selected distances

     #   Z          #   Z                                           value/Å
     1   6 C        2   6 C                                       1.3712567
     3   6 C        4   8 O                                       1.2203771
     5   6 C        6   6 C                                       1.3932892
     6   6 C        7   6 C                                       1.3742486
     7   6 C        8   6 C                                       1.4011338
     8   6 C        9   6 C                                       1.3748507
     5   6 C       10   6 C                                       1.4097741
     9   6 C       10   6 C                                       1.3981922
    11   6 C       12   6 C                                       1.3721174
    13   6 C       14   7 N                                       1.1482982
    15   6 C       16   7 N                                       1.1495458
     8   6 C       17   6 C                                       1.5084187
    17   6 C       18   6 C                                       1.5433531
    19   6 C       20   6 C                                       1.3268758
    18   6 C       22   6 C                                       1.5342030
    21   6 C       22   6 C                                       1.5341846
     7   6 C       23   6 C                                       1.5085112
    17   6 C       23   6 C                                       1.5625079
    21   6 C       23   6 C                                       1.5436852
     1   6 C       24   6 C                                       1.4000058
    24   6 C       25   6 C                                       1.4044361
    25   6 C       26   6 C                                       1.4938469
    26   6 C       27   6 C                                       1.5311782
    25   6 C       28   6 C                                       1.3888843
    28   6 C       29  16 S                                       1.7541808
    29  16 S       30   6 C                                       1.7273899
    30   6 C       31   6 C                                       1.4022278
    31   6 C       32   6 C                                       1.4158252
    32   6 C       33   6 C                                       1.4393282
    33   6 C       34   7 N                                       1.3186692
    34   7 N       35  34 Se                                      1.7642176 (max)
    32   6 C       36   7 N                                       1.3183822
    35  34 Se      36   7 N                                       1.7626880
    33   6 C       37   6 C                                       1.4153852
    37   6 C       38   6 C                                       1.4028651
    38   6 C       39  16 S                                       1.7280134
    39  16 S       40   6 C                                       1.7494446
    40   6 C       41   6 C                                       1.4074417
    41   6 C       42   6 C                                       1.4941515
    42   6 C       43   6 C                                       1.5314803
    41   6 C       44   6 C                                       1.3792793
    40   6 C       46   6 C                                       1.3970426
    45  16 S       46   6 C                                       1.7208542
    38   6 C       47   6 C                                       1.3982586
    46   6 C       47   6 C                                       1.3997567
    47   6 C       48   7 N                                       1.3679143
    37   6 C       49   6 C                                       1.4237465
    48   7 N       49   6 C                                       1.3798824
    31   6 C       50   6 C                                       1.4238100
    49   6 C       50   6 C                                       1.4205008
    50   6 C       51   7 N                                       1.3843216
    30   6 C       52   6 C                                       1.3996585
    51   7 N       52   6 C                                       1.3719022
    28   6 C       53   6 C                                       1.4049120
    52   6 C       53   6 C                                       1.3987479
    53   6 C       54  16 S                                       1.7242031
    51   7 N       55   6 C                                       1.4485175
    55   6 C       56   6 C                                       1.5269734
    48   7 N       57   6 C                                       1.4449920
    57   6 C       58   6 C                                       1.5278350
    44   6 C       59   6 C                                       1.4324606
    59   6 C       60   6 C                                       1.3701036
    61   6 C       62   7 N                                       1.1464076
    63   6 C       64   6 C                                       1.3668066
    65   6 C       66   7 N                                       1.1466397
    67   6 C       68   7 N                                       1.1468674
    63   6 C       69   8 O                                       1.3396982
    69   8 O       70   6 C                                       1.4350460
    70   6 C       71   6 C                                       1.5344250
    70   6 C       72   6 C                                       1.5286425
     1   6 C       73   1 H                                       1.0812367
     6   6 C       74   1 H                                       1.0787894
     9   6 C       75   1 H                                       1.0769622
    17   6 C       76   1 H                                       1.0882169
    18   6 C       77   1 H                                       1.0865056
    19   6 C       78   1 H                                       1.0741408 (min)
    20   6 C       79   1 H                                       1.0742079
    21   6 C       80   1 H                                       1.0867278
    22   6 C       81   1 H                                       1.0887152
    22   6 C       82   1 H                                       1.0885025
    23   6 C       83   1 H                                       1.0883867
    26   6 C       84   1 H                                       1.0917892
    26   6 C       85   1 H                                       1.0911580
    27   6 C       86   1 H                                       1.0876289
    27   6 C       87   1 H                                       1.0875914
    27   6 C       88   1 H                                       1.0862579
    42   6 C       89   1 H                                       1.0925347
    42   6 C       90   1 H                                       1.0850687
    43   6 C       91   1 H                                       1.0879585
    43   6 C       92   1 H                                       1.0864220
    43   6 C       93   1 H                                       1.0867273
    55   6 C       94   1 H                                       1.0856885
    55   6 C       95   1 H                                       1.0925360
    56   6 C       96   1 H                                       1.0863180
    56   6 C       97   1 H                                       1.0874446
    56   6 C       98   1 H                                       1.0884439
    57   6 C       99   1 H                                       1.0961156
    57   6 C      100   1 H                                       1.0906271
    58   6 C      101   1 H                                       1.0869697
    58   6 C      102   1 H                                       1.0863605
    58   6 C      103   1 H                                       1.0862185
    71   6 C      104   1 H                                       1.0883627
    71   6 C      105   1 H                                       1.0867204
    71   6 C      106   1 H                                       1.0864236
    72   6 C      107   1 H                                       1.0879536
    72   6 C      108   1 H                                       1.0880180
    72   6 C      109   1 H                                       1.0848919

 * 6 distinct bonds (by element types)

   Z      Z             #   av. dist./Å        max./Å        min./Å
   1 H    6 C          37     1.0866114     1.0961156     1.0741408
   6 C    6 C          46     1.4394917     1.5625079     1.3268758
   6 C    7 N          13     1.2901800     1.4485175     1.1464076
   6 C    8 O           3     1.3317071     1.4350460     1.2203771
   6 C   16 S           6     1.7340144     1.7541808     1.7208542
   7 N   34 Se          2     1.7634528     1.7642176     1.7626880


optimized geometry written to: xtbopt.mol


           -------------------------------------------------
          | TOTAL ENERGY             -189.276010211225 Eh   |
          | GRADIENT NORM               0.000450026076 Eh/α |
          | HOMO-LUMO GAP               1.191323599896 eV   |
           -------------------------------------------------

------------------------------------------------------------------------
 * finished run on 2022/02/02 at 16:01:38.465     
------------------------------------------------------------------------
 total:
 * wall-time:     0 d,  0 h,  0 min, 30.976 sec
 *  cpu-time:     0 d,  0 h,  4 min,  7.467 sec
 * ratio c/w:     7.989 speedup
 SCF:
 * wall-time:     0 d,  0 h,  0 min,  0.389 sec
 *  cpu-time:     0 d,  0 h,  0 min,  2.899 sec
 * ratio c/w:     7.462 speedup
 ANC optimizer:
 * wall-time:     0 d,  0 h,  0 min, 30.522 sec
 *  cpu-time:     0 d,  0 h,  4 min,  4.146 sec
 * ratio c/w:     7.999 speedup

