      -----------------------------------------------------------      
     |                   =====================                   |     
     |                           x T B                           |     
     |                   =====================                   |     
     |                         S. Grimme                         |     
     |          Mulliken Center for Theoretical Chemistry        |     
     |                    University of Bonn                     |     
      -----------------------------------------------------------      

   * xtb version 6.4.1 (unknown) compiled by 'oda6@login1.crc.pitt.edu' on 2021-06-25

   xtb is free software: you can redistribute it and/or modify it under
   the terms of the GNU Lesser General Public License as published by
   the Free Software Foundation, either version 3 of the License, or
   (at your option) any later version.
   
   xtb is distributed in the hope that it will be useful,
   but WITHOUT ANY WARRANTY; without even the implied warranty of
   MERCHANTABILITY or FITNESS FOR A PARTICULAR PURPOSE.  See the
   GNU Lesser General Public License for more details.
   
   Cite this work as:
   * C. Bannwarth, E. Caldeweyher, S. Ehlert, A. Hansen, P. Pracht,
     J. Seibert, S. Spicher, S. Grimme, WIREs Comput. Mol. Sci., 2020, 11,
     e01493. DOI: 10.1002/wcms.1493
   
   for GFN2-xTB:
   * C. Bannwarth, S. Ehlert and S. Grimme., J. Chem. Theory Comput., 2019,
     15, 1652-1671. DOI: 10.1021/acs.jctc.8b01176
   for GFN1-xTB:
   * S. Grimme, C. Bannwarth, P. Shushkov, J. Chem. Theory Comput., 2017,
     13, 1989-2009. DOI: 10.1021/acs.jctc.7b00118
   for GFN0-xTB:
   * P. Pracht, E. Caldeweyher, S. Ehlert, S. Grimme, ChemRxiv, 2019, preprint.
     DOI: 10.26434/chemrxiv.8326202.v1
   for GFN-FF:
   * S. Spicher and S. Grimme, Angew. Chem. Int. Ed., 2020, 59, 15665-15673.
     DOI: 10.1002/anie.202004239
   
   for DFT-D4:
   * E. Caldeweyher, C. Bannwarth and S. Grimme, J. Chem. Phys., 2017,
     147, 034112. DOI: 10.1063/1.4993215
   * E. Caldeweyher, S. Ehlert, A. Hansen, H. Neugebauer, S. Spicher,
     C. Bannwarth and S. Grimme, J. Chem. Phys., 2019, 150, 154122.
     DOI: 10.1063/1.5090222
   * E. Caldeweyher, J.-M. Mewes, S. Ehlert and S. Grimme, Phys. Chem. Chem. Phys.
     2020, 22, 8499-8512. DOI: 10.1039/D0CP00502A
   
   for sTDA-xTB:
   * S. Grimme and C. Bannwarth, J. Chem. Phys., 2016, 145, 054103.
     DOI: 10.1063/1.4959605
   
   in the mass-spec context:
   * V. Asgeirsson, C. Bauer and S. Grimme, Chem. Sci., 2017, 8, 4879.
     DOI: 10.1039/c7sc00601b
   * J. Koopman and S. Grimme, ACS Omega 2019, 4, 12, 15120-15133.
     DOI: 10.1021/acsomega.9b02011
   
   for metadynamics refer to:
   * S. Grimme, J. Chem. Theory Comput., 2019, 155, 2847-2862
     DOI: 10.1021/acs.jctc.9b00143
   
   for SPH calculations refer to:
   * S. Spicher and S. Grimme, J. Chem. Theory Comput., 2021, 17, 1701-1714
     DOI: 10.1021/acs.jctc.0c01306
   
   with help from (in alphabetical order)
   P. Atkinson, C. Bannwarth, F. Bohle, G. Brandenburg, E. Caldeweyher
   M. Checinski, S. Dohm, S. Ehlert, S. Ehrlich, I. Gerasimov, J. Koopman
   C. Lavigne, S. Lehtola, F. März, M. Müller, F. Musil, H. Neugebauer
   J. Pisarek, C. Plett, P. Pracht, J. Seibert, P. Shushkov, S. Spicher
   M. Stahn, M. Steiner, T. Strunk, J. Stückrath, T. Rose, and J. Unsleber
   
 * started run on 2022/02/11 at 05:29:34.870     

           -------------------------------------------------
          |                Calculation Setup                |
           -------------------------------------------------

          program call               : /ihome/ghutchison/oda6/xtb/xtb-641/bin/xtb ../../FF_optimized/39_126_26.mol -opt
          hostname                   : smp-n28
          coordinate file            : ../../FF_optimized/39_126_26.mol
          omp threads                :                     8
          number of atoms            :                    98
          number of electrons        :                   336
          charge                     :                     0
          spin                       :                   0.0
          first test random number   :      0.18031818900585

   ID    Z sym.   atoms
    1    6 C      1-3, 5-13, 15, 17-26, 28-31, 35-37, 39-42, 44, 45, 47-50,
                  52, 53, 55-57, 59-62, 64-68, 70
    2    8 O      4, 58
    3    7 N      14, 16, 32, 34, 38, 43, 69, 71
    4   16 S      27, 33, 51
    5   34 Se     46, 54
    6   53 I      63
    7    1 H      72-98

molecular fragmentation (1/2 indicates fragments):
111111111111111111111111111111111111111111111111111111111111111111111111
11111111112111111111111111
# atoms in fragment 1/2:    97     1
 fragment masses (1/2) :     1211.87        1.01
CMA distance (Bohr)    :  14.821
constraining FC (au)   :  0.0500
########################################################################
[WARNING] Please study the warnings concerning your input carefully
-1- prog_main_parseArguments: the use of '-opt' is discouraged, please use '--opt' next time
########################################################################

           -------------------------------------------------
          |                 G F N 2 - x T B                 |
           -------------------------------------------------

        Reference                      10.1021/acs.jctc.8b01176
      * Hamiltonian:
        H0-scaling (s, p, d)           1.850000    2.230000    2.230000
        zeta-weighting                 0.500000
      * Dispersion:
        s8                             2.700000
        a1                             0.520000
        a2                             5.000000
        s9                             5.000000
      * Repulsion:
        kExp                           1.500000    1.000000
        rExp                           1.000000
      * Coulomb:
        alpha                          2.000000
        third order                    shell-resolved
        anisotropic                    true
        a3                             3.000000
        a5                             4.000000
        cn-shift                       1.200000
        cn-exp                         4.000000
        max-rad                        5.000000


          ...................................................
          :                      SETUP                      :
          :.................................................:
          :  # basis functions                 347          :
          :  # atomic orbitals                 341          :
          :  # shells                          175          :
          :  # electrons                       336          :
          :  max. iterations                   250          :
          :  Hamiltonian                  GFN2-xTB          :
          :  restarted?                      false          :
          :  GBSA solvation                  false          :
          :  PC potential                    false          :
          :  electronic temp.          300.0000000     K    :
          :  accuracy                    1.0000000          :
          :  -> integral cutoff          0.2500000E+02      :
          :  -> integral neglect         0.1000000E-07      :
          :  -> SCF convergence          0.1000000E-05 Eh   :
          :  -> wf. convergence          0.1000000E-03 e    :
          :  Broyden damping             0.4000000          :
          ...................................................

 iter      E             dE          RMSdq      gap      omega  full diag
   1   -185.1470631 -0.185147E+03  0.571E+00    1.05       0.0  T
   2   -185.2945936 -0.147531E+00  0.360E+00    0.47       1.0  T
   3   -185.0826541  0.211940E+00  0.250E+00    0.35       1.0  T
   4   -185.4461253 -0.363471E+00  0.105E+00    0.30       1.0  T
   5   -185.5250955 -0.789703E-01  0.350E-01    0.29       1.0  T
   6   -185.5289868 -0.389127E-02  0.215E-01    0.25       1.0  T
   7   -185.5299391 -0.952237E-03  0.125E-01    0.33       1.0  T
   8   -185.5309285 -0.989442E-03  0.618E-02    0.29       1.0  T
   9   -185.5309979 -0.693707E-04  0.430E-02    0.29       1.0  T
  10   -185.5310288 -0.308868E-04  0.299E-02    0.29       1.0  T
  11   -185.5310576 -0.288067E-04  0.178E-02    0.29       1.0  T
  12   -185.5310749 -0.173802E-04  0.774E-03    0.29       1.3  T
  13   -185.5310764 -0.141202E-05  0.458E-03    0.29       2.2  T
  14   -185.5310765 -0.179481E-06  0.322E-03    0.29       3.1  T
  15   -185.5310768 -0.301119E-06  0.150E-03    0.29       6.7  T
  16   -185.5310769 -0.558551E-07  0.940E-04    0.29      10.8  T
  17   -185.5310769 -0.304470E-07  0.482E-04    0.29      21.0  T

   *** convergence criteria satisfied after 17 iterations ***

         #    Occupation            Energy/Eh            Energy/eV
      -------------------------------------------------------------
         1        2.0000           -0.7692761             -20.9331
       ...           ...                  ...                  ...
       162        2.0000           -0.4084995             -11.1158
       163        2.0000           -0.4005390             -10.8992
       164        2.0000           -0.3979177             -10.8279
       165        2.0000           -0.3880888             -10.5604
       166        2.0000           -0.3860748             -10.5056
       167        2.0000           -0.3741665             -10.1816
       168        1.9923           -0.3552630              -9.6672 (HOMO)
       169        0.0076           -0.3446940              -9.3796 (LUMO)
       170        0.0000           -0.3368515              -9.1662
       171        0.0000           -0.3342546              -9.0955
       172                         -0.3141138              -8.5475
       173                         -0.3067912              -8.3482
       ...                                ...                  ...
       341                          1.4925562              40.6145
      -------------------------------------------------------------
                  HL-Gap            0.0105690 Eh            0.2876 eV
             Fermi-level           -0.3499787 Eh           -9.5234 eV

 SCC (total)                   0 d,  0 h,  0 min,  0.285 sec
 SCC setup                      ...        0 min,  0.001 sec (  0.203%)
 Dispersion                     ...        0 min,  0.004 sec (  1.236%)
 classical contributions        ...        0 min,  0.000 sec (  0.037%)
 integral evaluation            ...        0 min,  0.018 sec (  6.157%)
 iterations                     ...        0 min,  0.230 sec ( 80.893%)
 molecular gradient             ...        0 min,  0.032 sec ( 11.122%)
 printout                       ...        0 min,  0.001 sec (  0.323%)

         :::::::::::::::::::::::::::::::::::::::::::::::::::::
         ::                     SUMMARY                     ::
         :::::::::::::::::::::::::::::::::::::::::::::::::::::
         :: total energy            -182.386555351740 Eh    ::
         :: gradient norm              0.716685441779 Eh/a0 ::
         :: HOMO-LUMO gap              0.287597749181 eV    ::
         ::.................................................::
         :: SCC energy              -185.531076921831 Eh    ::
         :: -> isotropic ES            0.106293651749 Eh    ::
         :: -> anisotropic ES          0.004205448205 Eh    ::
         :: -> anisotropic XC          0.130127274166 Eh    ::
         :: -> dispersion             -0.164172409007 Eh    ::
         :: repulsion energy           3.145005714857 Eh    ::
         :: add. restraining           0.000000000000 Eh    ::
         :: total charge              -0.000000000000 e     ::
         :::::::::::::::::::::::::::::::::::::::::::::::::::::

      ----------------------------------------------------------- 
     |                   =====================                   |
     |                        A N C O P T                        |
     |                   =====================                   |
     |               Approximate Normal Coordinate               |
     |                Rational Function Optimizer                |
      ----------------------------------------------------------- 

          ...................................................
          :                      SETUP                      :
          :.................................................:
          :   optimization level            normal          :
          :   max. optcycles                   294          :
          :   ANC micro-cycles                  20          :
          :   degrees of freedom               288          :
          :.................................................:
          :   RF solver                   davidson          :
          :   write xtbopt.log                true          :
          :   linear?                        false          :
          :   energy convergence         0.5000000E-05 Eh   :
          :   grad. convergence          0.1000000E-02 Eh/α :
          :   maximium RF displ.         1.0000000          :
          :   Hlow (freq-cutoff)         0.1000000E-01      :
          :   Hmax (freq-cutoff)         5.0000000          :
          :   S6 in model hess.         20.0000000          :
          ...................................................

generating ANC from model Hessian ...
Using Lindh-Hessian (1995)
 Shifting diagonal of input Hessian by   1.004369061912229E-002
 Lowest  eigenvalues of input Hessian
    0.010000    0.000000    0.000000    0.000000    0.000000    0.000000
    0.000000    0.010052    0.010059    0.010112    0.010134    0.010181
    0.010224    0.010270    0.010414    0.010576    0.010830    0.010906
 Highest eigenvalues
    2.418095    2.427031    2.462860    2.596968    2.655144    2.837642
 

........................................................................
.............................. CYCLE    1 ..............................
........................................................................
   1   -185.5310769 -0.185531E+03  0.257E-04    0.29       0.0  T
   2   -185.5310769  0.216150E-08  0.245E-04    0.29      41.2  T
   3   -185.5310769 -0.555048E-08  0.111E-04    0.29      91.2  T
     SCC iter.                  ...        0 min,  0.042 sec
     gradient                   ...        0 min,  0.031 sec
 * total energy  :  -182.3865554 Eh     change       -0.8731774E-08 Eh
   gradient norm :     0.7166859 Eh/α   predicted     0.0000000E+00 (-100.00%)
   displ. norm   :     0.5226234 α      lambda       -0.3080391E+00
   maximum displ.:     0.1588709 α      in ANC's #206, #288, #213, ...

........................................................................
.............................. CYCLE    2 ..............................
........................................................................
   1   -185.5674387 -0.185567E+03  0.564E-01    0.42       0.0  T
   2   -185.5683782 -0.939526E-03  0.384E-01    0.39       1.0  T
   3   -185.5673851  0.993151E-03  0.267E-01    0.42       1.0  T
   4   -185.5716584 -0.427330E-02  0.110E-01    0.38       1.0  T
   5   -185.5726577 -0.999339E-03  0.503E-02    0.39       1.0  T
   6   -185.5727934 -0.135650E-03  0.200E-02    0.39       1.0  T
   7   -185.5728073 -0.139434E-04  0.979E-03    0.39       1.0  T
   8   -185.5728111 -0.376812E-05  0.589E-03    0.39       1.7  T
   9   -185.5728120 -0.903650E-06  0.330E-03    0.39       3.1  T
  10   -185.5728123 -0.334387E-06  0.201E-03    0.39       5.0  T
  11   -185.5728124 -0.128048E-06  0.835E-04    0.39      12.1  T
  12   -185.5728125 -0.375687E-07  0.352E-04    0.39      28.7  T
     SCC iter.                  ...        0 min,  0.154 sec
     gradient                   ...        0 min,  0.031 sec
 * total energy  :  -182.6087417 Eh     change       -0.2221863E+00 Eh
   gradient norm :     0.3213912 Eh/α   predicted    -0.1961623E+00 ( -11.71%)
   displ. norm   :     0.5693639 α      lambda       -0.1487883E+00
   maximum displ.:     0.1463205 α      in ANC's #206, #103, #71, ...

........................................................................
.............................. CYCLE    3 ..............................
........................................................................
   1   -185.5958213 -0.185596E+03  0.541E-01    0.45       0.0  T
   2   -185.5971342 -0.131284E-02  0.311E-01    0.45       1.0  T
   3   -185.5943324  0.280174E-02  0.229E-01    0.50       1.0  T
   4   -185.5980092 -0.367672E-02  0.944E-02    0.45       1.0  T
   5   -185.5988504 -0.841200E-03  0.407E-02    0.46       1.0  T
   6   -185.5989180 -0.676363E-04  0.146E-02    0.46       1.0  T
   7   -185.5989243 -0.633993E-05  0.803E-03    0.46       1.3  T
   8   -185.5989270 -0.266425E-05  0.435E-03    0.46       2.3  T
   9   -185.5989273 -0.282005E-06  0.275E-03    0.46       3.7  T
  10   -185.5989274 -0.153572E-06  0.161E-03    0.46       6.3  T
  11   -185.5989275 -0.959113E-07  0.684E-04    0.46      14.8  T
  12   -185.5989276 -0.206082E-07  0.343E-04    0.46      29.4  T
     SCC iter.                  ...        0 min,  0.155 sec
     gradient                   ...        0 min,  0.031 sec
 * total energy  :  -182.7097351 Eh     change       -0.1009935E+00 Eh
   gradient norm :     0.1292615 Eh/α   predicted    -0.9851110E-01 (  -2.46%)
   displ. norm   :     0.5801832 α      lambda       -0.5038033E-01
   maximum displ.:     0.1618837 α      in ANC's #62, #71, #103, ...

........................................................................
.............................. CYCLE    4 ..............................
........................................................................
   1   -185.5670436 -0.185567E+03  0.374E-01    0.54       0.0  T
   2   -185.5675554 -0.511844E-03  0.216E-01    0.56       1.0  T
   3   -185.5669974  0.557980E-03  0.102E-01    0.56       1.0  T
   4   -185.5676610 -0.663580E-03  0.389E-02    0.57       1.0  T
   5   -185.5677313 -0.702955E-04  0.236E-02    0.57       1.0  T
   6   -185.5677710 -0.397427E-04  0.889E-03    0.57       1.1  T
   7   -185.5677760 -0.497115E-05  0.427E-03    0.57       2.4  T
   8   -185.5677764 -0.429923E-06  0.256E-03    0.57       4.0  T
   9   -185.5677765 -0.349857E-07  0.202E-03    0.57       5.0  T
  10   -185.5677767 -0.178240E-06  0.814E-04    0.57      12.4  T
  11   -185.5677767 -0.186429E-07  0.431E-04    0.57      23.4  T
     SCC iter.                  ...        0 min,  0.148 sec
     gradient                   ...        0 min,  0.031 sec
 * total energy  :  -182.7447069 Eh     change       -0.3497178E-01 Eh
   gradient norm :     0.0651997 Eh/α   predicted    -0.3366972E-01 (  -3.72%)
   displ. norm   :     0.5814209 α      lambda       -0.2095408E-01
   maximum displ.:     0.1646326 α      in ANC's #40, #62, #48, ...

........................................................................
.............................. CYCLE    5 ..............................
........................................................................
   1   -185.5762534 -0.185576E+03  0.272E-01    0.65       0.0  T
   2   -185.5764947 -0.241318E-03  0.156E-01    0.68       1.0  T
   3   -185.5759650  0.529659E-03  0.855E-02    0.66       1.0  T
   4   -185.5766012 -0.636202E-03  0.261E-02    0.68       1.0  T
   5   -185.5766476 -0.463543E-04  0.124E-02    0.68       1.0  T
   6   -185.5766534 -0.582942E-05  0.586E-03    0.68       1.7  T
   7   -185.5766556 -0.214304E-05  0.255E-03    0.68       4.0  T
   8   -185.5766557 -0.184813E-06  0.161E-03    0.68       6.3  T
   9   -185.5766558 -0.479848E-07  0.983E-04    0.68      10.3  T
  10   -185.5766558 -0.412921E-07  0.506E-04    0.68      20.0  T
     SCC iter.                  ...        0 min,  0.131 sec
     gradient                   ...        0 min,  0.031 sec
 * total energy  :  -182.7597813 Eh     change       -0.1507440E-01 Eh
   gradient norm :     0.0402521 Eh/α   predicted    -0.1401881E-01 (  -7.00%)
   displ. norm   :     0.5842883 α      lambda       -0.1087204E-01
   maximum displ.:     0.1728114 α      in ANC's #40, #28, #30, ...

........................................................................
.............................. CYCLE    6 ..............................
........................................................................
   1   -185.5888404 -0.185589E+03  0.238E-01    0.73       0.0  T
   2   -185.5889610 -0.120600E-03  0.137E-01    0.79       1.0  T
   3   -185.5883865  0.574476E-03  0.839E-02    0.73       1.0  T
   4   -185.5890669 -0.680341E-03  0.197E-02    0.78       1.0  T
   5   -185.5890922 -0.253035E-04  0.952E-03    0.77       1.1  T
   6   -185.5890962 -0.400780E-05  0.410E-03    0.77       2.5  T
   7   -185.5890971 -0.910868E-06  0.182E-03    0.77       5.6  T
   8   -185.5890972 -0.139201E-06  0.980E-04    0.77      10.3  T
   9   -185.5890972 -0.209459E-07  0.596E-04    0.77      16.9  T
     SCC iter.                  ...        0 min,  0.119 sec
     gradient                   ...        0 min,  0.031 sec
 * total energy  :  -182.7672302 Eh     change       -0.7448822E-02 Eh
   gradient norm :     0.0298496 Eh/α   predicted    -0.7291843E-02 (  -2.11%)
   displ. norm   :     0.7005188 α      lambda       -0.9504189E-02
   maximum displ.:     0.2158427 α      in ANC's #40, #1, #18, ...

........................................................................
.............................. CYCLE    7 ..............................
........................................................................
   1   -185.5976871 -0.185598E+03  0.399E-01    0.76       0.0  T
   2   -185.5979529 -0.265804E-03  0.224E-01    0.83       1.0  T
   3   -185.5965266  0.142630E-02  0.122E-01    0.75       1.0  T
   4   -185.5981686 -0.164193E-02  0.225E-02    0.82       1.0  T
   5   -185.5981960 -0.274375E-04  0.119E-02    0.82       1.0  T
   6   -185.5982015 -0.555138E-05  0.503E-03    0.82       2.0  T
   7   -185.5982027 -0.115837E-05  0.210E-03    0.82       4.8  T
   8   -185.5982028 -0.135509E-06  0.120E-03    0.82       8.4  T
   9   -185.5982029 -0.512797E-07  0.674E-04    0.82      15.0  T
  10   -185.5982029 -0.102635E-07  0.400E-04    0.82      25.2  T
     SCC iter.                  ...        0 min,  0.133 sec
     gradient                   ...        0 min,  0.031 sec
 * total energy  :  -182.7693439 Eh     change       -0.2113718E-02 Eh
   gradient norm :     0.0706199 Eh/α   predicted    -0.7084102E-02 ( 235.15%)
   displ. norm   :     0.4064445 α      lambda       -0.9729235E-02
   maximum displ.:     0.1507114 α      in ANC's #28, #1, #30, ...

........................................................................
.............................. CYCLE    8 ..............................
........................................................................
   1   -185.6390799 -0.185639E+03  0.269E-01    0.85       0.0  T
   2   -185.6392186 -0.138741E-03  0.150E-01    0.88       1.0  T
   3   -185.6387239  0.494735E-03  0.750E-02    0.83       1.0  T
   4   -185.6393062 -0.582312E-03  0.108E-02    0.87       1.0  T
   5   -185.6393096 -0.342856E-05  0.673E-03    0.87       1.5  T
   6   -185.6393116 -0.203370E-05  0.261E-03    0.87       3.9  T
   7   -185.6393118 -0.203286E-06  0.121E-03    0.87       8.4  T
   8   -185.6393119 -0.567430E-07  0.695E-04    0.87      14.5  T
   9   -185.6393119 -0.174072E-07  0.405E-04    0.87      24.9  T
     SCC iter.                  ...        0 min,  0.118 sec
     gradient                   ...        0 min,  0.031 sec
 * total energy  :  -182.7740081 Eh     change       -0.4664275E-02 Eh
   gradient norm :     0.0409697 Eh/α   predicted    -0.5668247E-02 (  21.52%)
   displ. norm   :     0.4216476 α      lambda       -0.3580191E-02
   maximum displ.:     0.1663686 α      in ANC's #28, #18, #10, ...

........................................................................
.............................. CYCLE    9 ..............................
........................................................................
   1   -185.6316629 -0.185632E+03  0.198E-01    0.86       0.0  T
   2   -185.6316949 -0.320205E-04  0.112E-01    0.90       1.0  T
   3   -185.6310465  0.648433E-03  0.781E-02    0.85       1.0  T
   4   -185.6317758 -0.729264E-03  0.972E-03    0.89       1.0  T
   5   -185.6317797 -0.394074E-05  0.508E-03    0.89       2.0  T
   6   -185.6317804 -0.683584E-06  0.248E-03    0.89       4.1  T
   7   -185.6317806 -0.255198E-06  0.113E-03    0.89       8.9  T
   8   -185.6317807 -0.706416E-07  0.618E-04    0.89      16.3  T
   9   -185.6317807 -0.158406E-07  0.361E-04    0.89      28.0  T
     SCC iter.                  ...        0 min,  0.121 sec
     gradient                   ...        0 min,  0.031 sec
 * total energy  :  -182.7758437 Eh     change       -0.1835572E-02 Eh
   gradient norm :     0.0232174 Eh/α   predicted    -0.2108351E-02 (  14.86%)
   displ. norm   :     0.5889728 α      lambda       -0.4538736E-02
   maximum displ.:     0.2205510 α      in ANC's #8, #28, #18, ...

........................................................................
.............................. CYCLE   10 ..............................
........................................................................
   1   -185.6256023 -0.185626E+03  0.316E-01    0.88       0.0  T
   2   -185.6256860 -0.837374E-04  0.178E-01    0.94       1.0  T
   3   -185.6242158  0.147019E-02  0.116E-01    0.86       1.0  T
   4   -185.6258609 -0.164510E-02  0.136E-02    0.92       1.0  T
   5   -185.6258689 -0.800874E-05  0.710E-03    0.92       1.4  T
   6   -185.6258704 -0.145772E-05  0.318E-03    0.92       3.2  T
   7   -185.6258708 -0.390361E-06  0.145E-03    0.92       6.9  T
   8   -185.6258709 -0.125928E-06  0.801E-04    0.92      12.6  T
   9   -185.6258709 -0.218897E-07  0.494E-04    0.92      20.5  T
     SCC iter.                  ...        0 min,  0.120 sec
     gradient                   ...        0 min,  0.031 sec
 * total energy  :  -182.7772579 Eh     change       -0.1414181E-02 Eh
   gradient norm :     0.0375843 Eh/α   predicted    -0.3056587E-02 ( 116.14%)
   displ. norm   :     0.3883605 α      lambda       -0.3758513E-02
   maximum displ.:     0.1703187 α      in ANC's #28, #10, #18, ...

........................................................................
.............................. CYCLE   11 ..............................
........................................................................
   1   -185.6429151 -0.185643E+03  0.162E-01    0.91       0.0  T
   2   -185.6429534 -0.383614E-04  0.921E-02    0.94       1.0  T
   3   -185.6426597  0.293789E-03  0.623E-02    0.91       1.0  T
   4   -185.6430102 -0.350573E-03  0.933E-03    0.94       1.1  T
   5   -185.6430150 -0.479285E-05  0.537E-03    0.94       1.9  T
   6   -185.6430164 -0.134208E-05  0.175E-03    0.94       5.8  T
   7   -185.6430165 -0.849308E-07  0.953E-04    0.94      10.6  T
   8   -185.6430165 -0.371503E-07  0.516E-04    0.94      19.6  T
     SCC iter.                  ...        0 min,  0.106 sec
     gradient                   ...        0 min,  0.031 sec
 * total energy  :  -182.7793521 Eh     change       -0.2094163E-02 Eh
   gradient norm :     0.0271793 Eh/α   predicted    -0.2162695E-02 (   3.27%)
   displ. norm   :     0.4426384 α      lambda       -0.2106905E-02
   maximum displ.:     0.1721616 α      in ANC's #10, #18, #8, ...

........................................................................
.............................. CYCLE   12 ..............................
........................................................................
   1   -185.6391635 -0.185639E+03  0.157E-01    0.93       0.0  T
   2   -185.6391929 -0.294034E-04  0.886E-02    0.96       1.0  T
   3   -185.6387441  0.448774E-03  0.654E-02    0.92       1.0  T
   4   -185.6392607 -0.516602E-03  0.106E-02    0.96       1.0  T
   5   -185.6392679 -0.713807E-05  0.464E-03    0.95       2.2  T
   6   -185.6392687 -0.832236E-06  0.189E-03    0.95       5.3  T
   7   -185.6392688 -0.133092E-06  0.935E-04    0.95      10.8  T
   8   -185.6392689 -0.387042E-07  0.457E-04    0.95      22.1  T
     SCC iter.                  ...        0 min,  0.106 sec
     gradient                   ...        0 min,  0.031 sec
 * total energy  :  -182.7805831 Eh     change       -0.1231054E-02 Eh
   gradient norm :     0.0239139 Eh/α   predicted    -0.1259854E-02 (   2.34%)
   displ. norm   :     0.5417049 α      lambda       -0.1920007E-02
   maximum displ.:     0.2200736 α      in ANC's #10, #8, #13, ...

........................................................................
.............................. CYCLE   13 ..............................
........................................................................
   1   -185.6432402 -0.185643E+03  0.149E-01    0.96       0.0  T
   2   -185.6432646 -0.243698E-04  0.844E-02    0.99       1.0  T
   3   -185.6428689  0.395654E-03  0.620E-02    0.95       1.0  T
   4   -185.6433258 -0.456921E-03  0.103E-02    0.98       1.0  T
   5   -185.6433314 -0.561320E-05  0.486E-03    0.98       2.1  T
   6   -185.6433321 -0.635995E-06  0.203E-03    0.98       5.0  T
   7   -185.6433323 -0.208407E-06  0.997E-04    0.98      10.1  T
   8   -185.6433323 -0.398804E-07  0.586E-04    0.98      17.2  T
     SCC iter.                  ...        0 min,  0.106 sec
     gradient                   ...        0 min,  0.031 sec
 * total energy  :  -182.7819361 Eh     change       -0.1352939E-02 Eh
   gradient norm :     0.0245561 Eh/α   predicted    -0.1241713E-02 (  -8.22%)
   displ. norm   :     0.6639553 α      lambda       -0.2567911E-02
   maximum displ.:     0.2741551 α      in ANC's #10, #8, #18, ...

........................................................................
.............................. CYCLE   14 ..............................
........................................................................
   1   -185.6365229 -0.185637E+03  0.186E-01    0.98       0.0  T
   2   -185.6365352 -0.122037E-04  0.107E-01    1.00       1.0  T
   3   -185.6357229  0.812275E-03  0.869E-02    0.96       1.0  T
   4   -185.6366512 -0.928310E-03  0.102E-02    1.00       1.0  T
   5   -185.6366546 -0.343446E-05  0.565E-03    0.99       1.8  T
   6   -185.6366556 -0.102067E-05  0.221E-03    0.99       4.6  T
   7   -185.6366558 -0.198463E-06  0.121E-03    0.99       8.4  T
   8   -185.6366559 -0.869752E-07  0.629E-04    0.99      16.1  T
   9   -185.6366559 -0.178453E-07  0.346E-04    0.99      29.2  T
     SCC iter.                  ...        0 min,  0.118 sec
     gradient                   ...        0 min,  0.031 sec
 * total energy  :  -182.7832919 Eh     change       -0.1355836E-02 Eh
   gradient norm :     0.0331454 Eh/α   predicted    -0.1849971E-02 (  36.45%)
   displ. norm   :     0.5068001 α      lambda       -0.2070589E-02
   maximum displ.:     0.2280515 α      in ANC's #10, #13, #8, ...

........................................................................
.............................. CYCLE   15 ..............................
........................................................................
   1   -185.6450377 -0.185645E+03  0.987E-02    1.00       0.0  T
   2   -185.6450479 -0.101765E-04  0.567E-02    1.01       1.0  T
   3   -185.6449171  0.130763E-03  0.377E-02    1.00       1.0  T
   4   -185.6450694 -0.152300E-03  0.701E-03    1.01       1.4  T
   5   -185.6450723 -0.287077E-05  0.383E-03    1.01       2.6  T
   6   -185.6450730 -0.645417E-06  0.139E-03    1.01       7.3  T
   7   -185.6450730 -0.908027E-07  0.726E-04    1.01      13.9  T
   8   -185.6450731 -0.241924E-07  0.365E-04    1.01      27.7  T
     SCC iter.                  ...        0 min,  0.107 sec
     gradient                   ...        0 min,  0.031 sec
 * total energy  :  -182.7849904 Eh     change       -0.1698548E-02 Eh
   gradient norm :     0.0196560 Eh/α   predicted    -0.1301210E-02 ( -23.39%)
   displ. norm   :     0.6732079 α      lambda       -0.2303177E-02
   maximum displ.:     0.3039185 α      in ANC's #10, #8, #13, ...

........................................................................
.............................. CYCLE   16 ..............................
........................................................................
   1   -185.6520307 -0.185652E+03  0.122E-01    1.01       0.0  T
   2   -185.6520496 -0.188637E-04  0.699E-02    1.02       1.0  T
   3   -185.6518887  0.160918E-03  0.411E-02    1.01       1.0  T
   4   -185.6520742 -0.185501E-03  0.853E-03    1.02       1.2  T
   5   -185.6520792 -0.506161E-05  0.503E-03    1.02       2.0  T
   6   -185.6520806 -0.140453E-05  0.172E-03    1.02       5.9  T
   7   -185.6520807 -0.939988E-07  0.895E-04    1.02      11.3  T
   8   -185.6520808 -0.293408E-07  0.471E-04    1.02      21.5  T
     SCC iter.                  ...        0 min,  0.106 sec
     gradient                   ...        0 min,  0.031 sec
 * total energy  :  -182.7868547 Eh     change       -0.1864308E-02 Eh
   gradient norm :     0.0164489 Eh/α   predicted    -0.1673491E-02 ( -10.24%)
   displ. norm   :     0.7402021 α      lambda       -0.2016068E-02
   maximum displ.:     0.3489812 α      in ANC's #10, #13, #8, ...

........................................................................
.............................. CYCLE   17 ..............................
........................................................................
   1   -185.6536225 -0.185654E+03  0.124E-01    1.03       0.0  T
   2   -185.6536369 -0.144422E-04  0.701E-02    1.03       1.0  T
   3   -185.6535540  0.829629E-04  0.288E-02    1.03       1.0  T
   4   -185.6536460 -0.919943E-04  0.697E-03    1.03       1.4  T
   5   -185.6536491 -0.316811E-05  0.444E-03    1.03       2.3  T
   6   -185.6536503 -0.114563E-05  0.163E-03    1.03       6.2  T
   7   -185.6536504 -0.120867E-06  0.746E-04    1.03      13.5  T
   8   -185.6536504 -0.140317E-07  0.446E-04    1.03      22.7  T
     SCC iter.                  ...        0 min,  0.105 sec
     gradient                   ...        0 min,  0.031 sec
 * total energy  :  -182.7885412 Eh     change       -0.1686478E-02 Eh
   gradient norm :     0.0192026 Eh/α   predicted    -0.1560341E-02 (  -7.48%)
   displ. norm   :     0.7235486 α      lambda       -0.2037557E-02
   maximum displ.:     0.3354207 α      in ANC's #10, #8, #13, ...

........................................................................
.............................. CYCLE   18 ..............................
........................................................................
   1   -185.6556320 -0.185656E+03  0.128E-01    1.04       0.0  T
   2   -185.6556563 -0.243921E-04  0.734E-02    1.04       1.0  T
   3   -185.6555694  0.869283E-04  0.351E-02    1.04       1.0  T
   4   -185.6556708 -0.101335E-03  0.764E-03    1.04       1.3  T
   5   -185.6556733 -0.252826E-05  0.401E-03    1.04       2.5  T
   6   -185.6556739 -0.565571E-06  0.205E-03    1.04       4.9  T
   7   -185.6556740 -0.193189E-06  0.102E-03    1.04       9.9  T
   8   -185.6556741 -0.427231E-07  0.599E-04    1.04      16.9  T
   9   -185.6556741 -0.739988E-08  0.361E-04    1.04      27.9  T
     SCC iter.                  ...        0 min,  0.119 sec
     gradient                   ...        0 min,  0.031 sec
 * total energy  :  -182.7899875 Eh     change       -0.1446302E-02 Eh
   gradient norm :     0.0180997 Eh/α   predicted    -0.1552134E-02 (   7.32%)
   displ. norm   :     0.7584049 α      lambda       -0.2090148E-02
   maximum displ.:     0.3607838 α      in ANC's #10, #8, #4, ...

........................................................................
.............................. CYCLE   19 ..............................
........................................................................
   1   -185.6406940 -0.185641E+03  0.132E-01    1.04       0.0  T
   2   -185.6407307 -0.367180E-04  0.753E-02    1.05       1.0  T
   3   -185.6405804  0.150370E-03  0.391E-02    1.04       1.0  T
   4   -185.6407443 -0.163917E-03  0.110E-02    1.05       1.0  T
   5   -185.6407533 -0.904870E-05  0.474E-03    1.04       2.1  T
   6   -185.6407540 -0.697823E-06  0.253E-03    1.04       4.0  T
   7   -185.6407542 -0.201146E-06  0.111E-03    1.04       9.1  T
   8   -185.6407543 -0.725371E-07  0.591E-04    1.04      17.1  T
   9   -185.6407543 -0.660768E-08  0.350E-04    1.04      28.9  T
     SCC iter.                  ...        0 min,  0.118 sec
     gradient                   ...        0 min,  0.031 sec
 * total energy  :  -182.7908621 Eh     change       -0.8745579E-03 Eh
   gradient norm :     0.0262766 Eh/α   predicted    -0.1646180E-02 (  88.23%)
   displ. norm   :     0.4148025 α      lambda       -0.1933229E-02
   maximum displ.:     0.2121776 α      in ANC's #10, #4, #13, ...

........................................................................
.............................. CYCLE   20 ..............................
........................................................................
   1   -185.6546488 -0.185655E+03  0.850E-02    1.05       0.0  T
   2   -185.6546713 -0.224168E-04  0.475E-02    1.04       1.0  T
   3   -185.6546080  0.632806E-04  0.267E-02    1.05       1.0  T
   4   -185.6546806 -0.725808E-04  0.853E-03    1.04       1.2  T
   5   -185.6546856 -0.506368E-05  0.396E-03    1.04       2.6  T
   6   -185.6546861 -0.529470E-06  0.199E-03    1.04       5.1  T
   7   -185.6546862 -0.872503E-07  0.926E-04    1.04      10.9  T
   8   -185.6546863 -0.381539E-07  0.527E-04    1.04      19.2  T
     SCC iter.                  ...        0 min,  0.105 sec
     gradient                   ...        0 min,  0.031 sec
 * total energy  :  -182.7918928 Eh     change       -0.1030690E-02 Eh
   gradient norm :     0.0213347 Eh/α   predicted    -0.1132936E-02 (   9.92%)
   displ. norm   :     0.5527739 α      lambda       -0.1898896E-02
   maximum displ.:     0.2570059 α      in ANC's #10, #21, #13, ...
 * RMSD in coord.:     0.8162022 α      energy gain  -0.4053374E+00 Eh

generating ANC from model Hessian ...
Using Lindh-Hessian (1995)
 Shifting diagonal of input Hessian by   1.119560011963112E-002
 Lowest  eigenvalues of input Hessian
    0.010000    0.000000    0.000000    0.000000    0.000000    0.000000
    0.000000    0.011201    0.011210    0.011218    0.011259    0.011302
    0.011460    0.011492    0.011628    0.011909    0.011930    0.011996
 Highest eigenvalues
    2.258005    2.266161    2.605336    2.614279    2.645271    2.655928
 

........................................................................
.............................. CYCLE   21 ..............................
........................................................................
   1   -185.6488174 -0.185649E+03  0.875E-02    1.04       0.0  T
   2   -185.6488368 -0.194848E-04  0.501E-02    1.05       1.0  T
   3   -185.6487746  0.622007E-04  0.263E-02    1.04       1.0  T
   4   -185.6488431 -0.684432E-04  0.761E-03    1.05       1.3  T
   5   -185.6488465 -0.337730E-05  0.339E-03    1.05       3.0  T
   6   -185.6488466 -0.153745E-06  0.209E-03    1.05       4.8  T
   7   -185.6488468 -0.225764E-06  0.956E-04    1.05      10.6  T
   8   -185.6488469 -0.531250E-07  0.505E-04    1.05      20.0  T
     SCC iter.                  ...        0 min,  0.105 sec
     gradient                   ...        0 min,  0.031 sec
 * total energy  :  -182.7926937 Eh     change       -0.8008951E-03 Eh
   gradient norm :     0.0208855 Eh/α   predicted     0.0000000E+00 (-100.00%)
   displ. norm   :     0.1801270 α      lambda       -0.1212733E-02
   maximum displ.:     0.0721356 α      in ANC's #6, #19, #11, ...

........................................................................
.............................. CYCLE   22 ..............................
........................................................................
   1   -185.6560093 -0.185656E+03  0.866E-02    1.04       0.0  T
   2   -185.6560244 -0.150531E-04  0.481E-02    1.05       1.0  T
   3   -185.6560005  0.239121E-04  0.177E-02    1.04       1.0  T
   4   -185.6560296 -0.291538E-04  0.529E-03    1.05       1.9  T
   5   -185.6560311 -0.144283E-05  0.256E-03    1.05       4.0  T
   6   -185.6560311 -0.525681E-07  0.143E-03    1.05       7.1  T
   7   -185.6560312 -0.107842E-06  0.727E-04    1.05      13.9  T
   8   -185.6560313 -0.154883E-07  0.426E-04    1.05      23.7  T
     SCC iter.                  ...        0 min,  0.106 sec
     gradient                   ...        0 min,  0.031 sec
 * total energy  :  -182.7934851 Eh     change       -0.7914666E-03 Eh
   gradient norm :     0.0073086 Eh/α   predicted    -0.6260437E-03 ( -20.90%)
   displ. norm   :     0.3508765 α      lambda       -0.1252570E-02
   maximum displ.:     0.1434950 α      in ANC's #6, #25, #19, ...

........................................................................
.............................. CYCLE   23 ..............................
........................................................................
   1   -185.6642143 -0.185664E+03  0.133E-01    1.04       0.0  T
   2   -185.6642386 -0.242922E-04  0.746E-02    1.04       1.0  T
   3   -185.6641515  0.871301E-04  0.320E-02    1.05       1.0  T
   4   -185.6642525 -0.101082E-03  0.676E-03    1.04       1.5  T
   5   -185.6642542 -0.169902E-05  0.385E-03    1.04       2.6  T
   6   -185.6642548 -0.581298E-06  0.197E-03    1.04       5.1  T
   7   -185.6642551 -0.248687E-06  0.855E-04    1.04      11.8  T
   8   -185.6642551 -0.266585E-07  0.511E-04    1.04      19.8  T
     SCC iter.                  ...        0 min,  0.103 sec
     gradient                   ...        0 min,  0.031 sec
 * total energy  :  -182.7933628 Eh     change        0.1222907E-03 Eh
   gradient norm :     0.0203035 Eh/α   predicted    -0.7033942E-03 (-675.18%)
   displ. norm   :     0.1937098 α      lambda       -0.1594134E-02
   maximum displ.:     0.0796709 α      in ANC's #11, #6, #17, ...

........................................................................
.............................. CYCLE   24 ..............................
........................................................................
   1   -185.6636870 -0.185664E+03  0.116E-01    1.04       0.0  T
   2   -185.6637064 -0.193986E-04  0.641E-02    1.04       1.0  T
   3   -185.6636993  0.706769E-05  0.124E-02    1.04       1.0  T
   4   -185.6637139 -0.146279E-04  0.368E-03    1.04       2.7  T
   5   -185.6637144 -0.483578E-06  0.212E-03    1.04       4.8  T
   6   -185.6637146 -0.164421E-06  0.108E-03    1.04       9.4  T
   7   -185.6637147 -0.718694E-07  0.516E-04    1.04      19.6  T
   8   -185.6637147 -0.373180E-08  0.349E-04    1.04      28.9  T
     SCC iter.                  ...        0 min,  0.107 sec
     gradient                   ...        0 min,  0.031 sec
 * total energy  :  -182.7943567 Eh     change       -0.9938779E-03 Eh
   gradient norm :     0.0106382 Eh/α   predicted    -0.8269789E-03 ( -16.79%)
   displ. norm   :     0.3169861 α      lambda       -0.7162485E-03
   maximum displ.:     0.1477003 α      in ANC's #6, #1, #17, ...

........................................................................
.............................. CYCLE   25 ..............................
........................................................................
   1   -185.6604796 -0.185660E+03  0.682E-02    1.04       0.0  T
   2   -185.6604841 -0.453598E-05  0.374E-02    1.04       1.0  T
   3   -185.6604744  0.966117E-05  0.113E-02    1.04       1.0  T
   4   -185.6604864 -0.120010E-04  0.309E-03    1.04       3.3  T
   5   -185.6604866 -0.135237E-06  0.189E-03    1.04       5.3  T
   6   -185.6604867 -0.132193E-06  0.826E-04    1.04      12.2  T
   7   -185.6604867 -0.268010E-07  0.472E-04    1.04      21.4  T
     SCC iter.                  ...        0 min,  0.091 sec
     gradient                   ...        0 min,  0.031 sec
 * total energy  :  -182.7949464 Eh     change       -0.5896690E-03 Eh
   gradient norm :     0.0085212 Eh/α   predicted    -0.3941101E-03 ( -33.16%)
   displ. norm   :     0.6837937 α      lambda       -0.1358582E-02
   maximum displ.:     0.3203266 α      in ANC's #6, #17, #1, ...

........................................................................
.............................. CYCLE   26 ..............................
........................................................................
   1   -185.6536452 -0.185654E+03  0.126E-01    1.05       0.0  T
   2   -185.6536590 -0.138093E-04  0.692E-02    1.04       1.0  T
   3   -185.6535923  0.667117E-04  0.265E-02    1.05       1.0  T
   4   -185.6536690 -0.766492E-04  0.636E-03    1.04       1.6  T
   5   -185.6536697 -0.736149E-06  0.376E-03    1.04       2.7  T
   6   -185.6536702 -0.537097E-06  0.162E-03    1.04       6.2  T
   7   -185.6536704 -0.105612E-06  0.886E-04    1.04      11.4  T
   8   -185.6536704 -0.981552E-08  0.586E-04    1.04      17.2  T
     SCC iter.                  ...        0 min,  0.105 sec
     gradient                   ...        0 min,  0.031 sec
 * total energy  :  -182.7958524 Eh     change       -0.9060547E-03 Eh
   gradient norm :     0.0140639 Eh/α   predicted    -0.9969154E-03 (  10.03%)
   displ. norm   :     0.6692091 α      lambda       -0.1467362E-02
   maximum displ.:     0.2894642 α      in ANC's #6, #1, #17, ...

........................................................................
.............................. CYCLE   27 ..............................
........................................................................
   1   -185.6534476 -0.185653E+03  0.134E-01    1.04       0.0  T
   2   -185.6534659 -0.182711E-04  0.737E-02    1.04       1.0  T
   3   -185.6534265  0.393821E-04  0.225E-02    1.05       1.0  T
   4   -185.6534749 -0.483278E-04  0.627E-03    1.04       1.6  T
   5   -185.6534760 -0.112721E-05  0.371E-03    1.04       2.7  T
   6   -185.6534765 -0.485123E-06  0.167E-03    1.04       6.1  T
   7   -185.6534766 -0.128701E-06  0.932E-04    1.04      10.8  T
   8   -185.6534766 -0.115804E-07  0.602E-04    1.04      16.8  T
     SCC iter.                  ...        0 min,  0.107 sec
     gradient                   ...        0 min,  0.031 sec
 * total energy  :  -182.7967321 Eh     change       -0.8796858E-03 Eh
   gradient norm :     0.0172849 Eh/α   predicted    -0.1062255E-02 (  20.75%)
   displ. norm   :     0.5533257 α      lambda       -0.1465222E-02
   maximum displ.:     0.2648379 α      in ANC's #6, #1, #17, ...

........................................................................
.............................. CYCLE   28 ..............................
........................................................................
   1   -185.6557752 -0.185656E+03  0.125E-01    1.05       0.0  T
   2   -185.6557937 -0.185609E-04  0.688E-02    1.04       1.0  T
   3   -185.6557344  0.593681E-04  0.249E-02    1.05       1.0  T
   4   -185.6558040 -0.696606E-04  0.563E-03    1.04       1.8  T
   5   -185.6558054 -0.132519E-05  0.296E-03    1.04       3.4  T
   6   -185.6558057 -0.302798E-06  0.138E-03    1.04       7.3  T
   7   -185.6558057 -0.844807E-07  0.672E-04    1.04      15.0  T
   8   -185.6558058 -0.972278E-08  0.412E-04    1.04      24.5  T
     SCC iter.                  ...        0 min,  0.106 sec
     gradient                   ...        0 min,  0.031 sec
 * total energy  :  -182.7976895 Eh     change       -0.9573185E-03 Eh
   gradient norm :     0.0152784 Eh/α   predicted    -0.9569168E-03 (  -0.04%)
   displ. norm   :     0.5733461 α      lambda       -0.1364603E-02
   maximum displ.:     0.2851490 α      in ANC's #6, #1, #17, ...

........................................................................
.............................. CYCLE   29 ..............................
........................................................................
   1   -185.6600753 -0.185660E+03  0.881E-02    1.05       0.0  T
   2   -185.6600829 -0.760494E-05  0.487E-02    1.04       1.0  T
   3   -185.6600517  0.311901E-04  0.183E-02    1.05       1.0  T
   4   -185.6600871 -0.354105E-04  0.535E-03    1.04       1.9  T
   5   -185.6600881 -0.991487E-06  0.305E-03    1.04       3.3  T
   6   -185.6600885 -0.387724E-06  0.138E-03    1.04       7.3  T
   7   -185.6600885 -0.829932E-07  0.813E-04    1.04      12.4  T
   8   -185.6600886 -0.210152E-07  0.517E-04    1.04      19.5  T
     SCC iter.                  ...        0 min,  0.106 sec
     gradient                   ...        0 min,  0.031 sec
 * total energy  :  -182.7987904 Eh     change       -0.1100959E-02 Eh
   gradient norm :     0.0075846 Eh/α   predicted    -0.9065941E-03 ( -17.65%)
   displ. norm   :     0.7761404 α      lambda       -0.1337933E-02
   maximum displ.:     0.3909468 α      in ANC's #6, #25, #1, ...

........................................................................
.............................. CYCLE   30 ..............................
........................................................................
   1   -185.6607384 -0.185661E+03  0.102E-01    1.05       0.0  T
   2   -185.6607479 -0.951330E-05  0.567E-02    1.04       1.0  T
   3   -185.6607077  0.402231E-04  0.210E-02    1.05       1.0  T
   4   -185.6607524 -0.447769E-04  0.641E-03    1.05       1.6  T
   5   -185.6607544 -0.194277E-05  0.366E-03    1.05       2.8  T
   6   -185.6607551 -0.699039E-06  0.151E-03    1.05       6.7  T
   7   -185.6607552 -0.988465E-07  0.845E-04    1.05      12.0  T
   8   -185.6607552 -0.195015E-07  0.526E-04    1.05      19.2  T
     SCC iter.                  ...        0 min,  0.107 sec
     gradient                   ...        0 min,  0.031 sec
 * total energy  :  -182.7999573 Eh     change       -0.1166901E-02 Eh
   gradient norm :     0.0080401 Eh/α   predicted    -0.1071951E-02 (  -8.14%)
   displ. norm   :     0.7765314 α      lambda       -0.1395640E-02
   maximum displ.:     0.3996072 α      in ANC's #6, #2, #1, ...

........................................................................
.............................. CYCLE   31 ..............................
........................................................................
   1   -185.6680675 -0.185668E+03  0.100E-01    1.06       0.0  T
   2   -185.6680810 -0.135153E-04  0.563E-02    1.05       1.0  T
   3   -185.6680221  0.589205E-04  0.251E-02    1.06       1.0  T
   4   -185.6680860 -0.638805E-04  0.767E-03    1.05       1.3  T
   5   -185.6680908 -0.479302E-05  0.372E-03    1.05       2.7  T
   6   -185.6680915 -0.738797E-06  0.167E-03    1.05       6.0  T
   7   -185.6680916 -0.108050E-06  0.879E-04    1.05      11.5  T
   8   -185.6680917 -0.181711E-07  0.537E-04    1.05      18.8  T
     SCC iter.                  ...        0 min,  0.104 sec
     gradient                   ...        0 min,  0.031 sec
 * total energy  :  -182.8010754 Eh     change       -0.1118067E-02 Eh
   gradient norm :     0.0113157 Eh/α   predicted    -0.1118605E-02 (   0.05%)
   displ. norm   :     0.8512047 α      lambda       -0.1374168E-02
   maximum displ.:     0.4371806 α      in ANC's #6, #2, #1, ...

........................................................................
.............................. CYCLE   32 ..............................
........................................................................
   1   -185.6615123 -0.185662E+03  0.116E-01    1.06       0.0  T
   2   -185.6615302 -0.179207E-04  0.637E-02    1.05       1.0  T
   3   -185.6614822  0.479728E-04  0.244E-02    1.06       1.0  T
   4   -185.6615359 -0.536628E-04  0.800E-03    1.06       1.3  T
   5   -185.6615393 -0.338716E-05  0.441E-03    1.06       2.3  T
   6   -185.6615402 -0.933920E-06  0.215E-03    1.06       4.7  T
   7   -185.6615405 -0.238733E-06  0.114E-03    1.06       8.8  T
   8   -185.6615405 -0.368671E-07  0.724E-04    1.06      13.9  T
   9   -185.6615405 -0.336735E-08  0.449E-04    1.06      22.5  T
     SCC iter.                  ...        0 min,  0.116 sec
     gradient                   ...        0 min,  0.031 sec
 * total energy  :  -182.8022374 Eh     change       -0.1162031E-02 Eh
   gradient norm :     0.0104246 Eh/α   predicted    -0.1184910E-02 (   1.97%)
   displ. norm   :     0.7385338 α      lambda       -0.1309290E-02
   maximum displ.:     0.3923444 α      in ANC's #6, #12, #2, ...

........................................................................
.............................. CYCLE   33 ..............................
........................................................................
   1   -185.6658023 -0.185666E+03  0.124E-01    1.06       0.0  T
   2   -185.6658306 -0.283669E-04  0.689E-02    1.06       1.0  T
   3   -185.6657647  0.659789E-04  0.281E-02    1.06       1.0  T
   4   -185.6658404 -0.757676E-04  0.826E-03    1.06       1.2  T
   5   -185.6658450 -0.454398E-05  0.411E-03    1.06       2.5  T
   6   -185.6658457 -0.694034E-06  0.219E-03    1.06       4.6  T
   7   -185.6658460 -0.319948E-06  0.102E-03    1.06       9.9  T
   8   -185.6658460 -0.323433E-07  0.622E-04    1.06      16.2  T
   9   -185.6658460 -0.681038E-08  0.371E-04    1.06      27.2  T
     SCC iter.                  ...        0 min,  0.117 sec
     gradient                   ...        0 min,  0.031 sec
 * total energy  :  -182.8031270 Eh     change       -0.8896302E-03 Eh
   gradient norm :     0.0162107 Eh/α   predicted    -0.1011710E-02 (  13.72%)
   displ. norm   :     0.7559719 α      lambda       -0.1442819E-02
   maximum displ.:     0.4134632 α      in ANC's #6, #2, #7, ...

........................................................................
.............................. CYCLE   34 ..............................
........................................................................
   1   -185.6592127 -0.185659E+03  0.117E-01    1.06       0.0  T
   2   -185.6592348 -0.220966E-04  0.647E-02    1.06       1.0  T
   3   -185.6591720  0.627195E-04  0.273E-02    1.07       1.0  T
   4   -185.6592438 -0.718080E-04  0.749E-03    1.06       1.3  T
   5   -185.6592467 -0.283151E-05  0.426E-03    1.06       2.4  T
   6   -185.6592476 -0.913599E-06  0.214E-03    1.06       4.7  T
   7   -185.6592479 -0.270010E-06  0.102E-03    1.06       9.9  T
   8   -185.6592479 -0.383226E-07  0.609E-04    1.06      16.6  T
   9   -185.6592479 -0.457868E-08  0.366E-04    1.06      27.6  T
     SCC iter.                  ...        0 min,  0.118 sec
     gradient                   ...        0 min,  0.031 sec
 * total energy  :  -182.8042180 Eh     change       -0.1091005E-02 Eh
   gradient norm :     0.0126579 Eh/α   predicted    -0.1133694E-02 (   3.91%)
   displ. norm   :     0.7313674 α      lambda       -0.1155614E-02
   maximum displ.:     0.4133589 α      in ANC's #6, #12, #2, ...

........................................................................
.............................. CYCLE   35 ..............................
........................................................................
   1   -185.6595795 -0.185660E+03  0.985E-02    1.06       0.0  T
   2   -185.6595927 -0.132535E-04  0.545E-02    1.06       1.0  T
   3   -185.6595268  0.658901E-04  0.276E-02    1.07       1.0  T
   4   -185.6596005 -0.736329E-04  0.786E-03    1.06       1.3  T
   5   -185.6596036 -0.314188E-05  0.462E-03    1.06       2.2  T
   6   -185.6596049 -0.126632E-05  0.216E-03    1.06       4.7  T
   7   -185.6596051 -0.245394E-06  0.966E-04    1.06      10.5  T
   8   -185.6596052 -0.170318E-07  0.599E-04    1.06      16.9  T
     SCC iter.                  ...        0 min,  0.105 sec
     gradient                   ...        0 min,  0.031 sec
 * total energy  :  -182.8052699 Eh     change       -0.1051829E-02 Eh
   gradient norm :     0.0101374 Eh/α   predicted    -0.8868778E-03 ( -15.68%)
   displ. norm   :     0.7364453 α      lambda       -0.1561496E-02
   maximum displ.:     0.4074624 α      in ANC's #6, #12, #7, ...

........................................................................
.............................. CYCLE   36 ..............................
........................................................................
   1   -185.6735619 -0.185674E+03  0.131E-01    1.06       0.0  T
   2   -185.6735913 -0.294335E-04  0.726E-02    1.05       1.0  T
   3   -185.6734563  0.135039E-03  0.392E-02    1.07       1.0  T
   4   -185.6736062 -0.149868E-03  0.121E-02    1.05       1.0  T
   5   -185.6736162 -0.100844E-04  0.591E-03    1.06       1.7  T
   6   -185.6736175 -0.131406E-05  0.334E-03    1.06       3.0  T
   7   -185.6736182 -0.628830E-06  0.150E-03    1.06       6.7  T
   8   -185.6736182 -0.393468E-07  0.960E-04    1.06      10.5  T
   9   -185.6736182 -0.127590E-07  0.539E-04    1.06      18.7  T
     SCC iter.                  ...        0 min,  0.118 sec
     gradient                   ...        0 min,  0.031 sec
 * total energy  :  -182.8063521 Eh     change       -0.1082188E-02 Eh
   gradient norm :     0.0171034 Eh/α   predicted    -0.1204195E-02 (  11.27%)
   displ. norm   :     0.8121537 α      lambda       -0.1591586E-02
   maximum displ.:     0.4599408 α      in ANC's #6, #12, #7, ...

........................................................................
.............................. CYCLE   37 ..............................
........................................................................
   1   -185.6685783 -0.185669E+03  0.123E-01    1.06       0.0  T
   2   -185.6685943 -0.159865E-04  0.690E-02    1.05       1.0  T
   3   -185.6684362  0.158063E-03  0.421E-02    1.06       1.0  T
   4   -185.6686155 -0.179262E-03  0.956E-03    1.05       1.1  T
   5   -185.6686166 -0.109328E-05  0.703E-03    1.05       1.4  T
   6   -185.6686201 -0.353693E-05  0.298E-03    1.05       3.4  T
   7   -185.6686205 -0.349205E-06  0.143E-03    1.05       7.1  T
   8   -185.6686205 -0.277608E-07  0.827E-04    1.05      12.2  T
   9   -185.6686205 -0.418569E-08  0.467E-04    1.05      21.6  T
     SCC iter.                  ...        0 min,  0.119 sec
     gradient                   ...        0 min,  0.031 sec
 * total energy  :  -182.8077721 Eh     change       -0.1420049E-02 Eh
   gradient norm :     0.0148434 Eh/α   predicted    -0.1320699E-02 (  -7.00%)
   displ. norm   :     0.7814968 α      lambda       -0.1634291E-02
   maximum displ.:     0.4501611 α      in ANC's #6, #12, #7, ...

........................................................................
.............................. CYCLE   38 ..............................
........................................................................
   1   -185.6672841 -0.185667E+03  0.135E-01    1.05       0.0  T
   2   -185.6672943 -0.101449E-04  0.756E-02    1.04       1.0  T
   3   -185.6670207  0.273604E-03  0.536E-02    1.06       1.0  T
   4   -185.6673340 -0.313372E-03  0.116E-02    1.05       1.0  T
   5   -185.6673373 -0.323803E-05  0.785E-03    1.05       1.3  T
   6   -185.6673408 -0.352878E-05  0.377E-03    1.05       2.7  T
   7   -185.6673413 -0.534936E-06  0.182E-03    1.05       5.6  T
   8   -185.6673414 -0.288889E-07  0.109E-03    1.05       9.2  T
   9   -185.6673414 -0.207301E-07  0.576E-04    1.05      17.5  T
  10   -185.6673414 -0.112381E-07  0.287E-04    1.05      35.2  T
     SCC iter.                  ...        0 min,  0.137 sec
     gradient                   ...        0 min,  0.031 sec
 * total energy  :  -182.8091754 Eh     change       -0.1403273E-02 Eh
   gradient norm :     0.0155755 Eh/α   predicted    -0.1316212E-02 (  -6.20%)
   displ. norm   :     0.7543805 α      lambda       -0.1584989E-02
   maximum displ.:     0.4333410 α      in ANC's #6, #12, #7, ...

........................................................................
.............................. CYCLE   39 ..............................
........................................................................
   1   -185.6668997 -0.185667E+03  0.133E-01    1.05       0.0  T
   2   -185.6669055 -0.579876E-05  0.752E-02    1.04       1.0  T
   3   -185.6666231  0.282422E-03  0.551E-02    1.06       1.0  T
   4   -185.6669493 -0.326228E-03  0.121E-02    1.04       1.0  T
   5   -185.6669517 -0.239622E-05  0.854E-03    1.05       1.2  T
   6   -185.6669563 -0.454973E-05  0.390E-03    1.04       2.6  T
   7   -185.6669568 -0.479702E-06  0.197E-03    1.04       5.1  T
   8   -185.6669568 -0.668036E-07  0.112E-03    1.04       9.0  T
   9   -185.6669569 -0.213537E-07  0.597E-04    1.04      16.9  T
  10   -185.6669569 -0.108452E-07  0.314E-04    1.04      32.2  T
     SCC iter.                  ...        0 min,  0.132 sec
     gradient                   ...        0 min,  0.031 sec
 * total energy  :  -182.8105083 Eh     change       -0.1332870E-02 Eh
   gradient norm :     0.0167357 Eh/α   predicted    -0.1243499E-02 (  -6.71%)
   displ. norm   :     0.6572891 α      lambda       -0.1559815E-02
   maximum displ.:     0.3774387 α      in ANC's #6, #12, #10, ...

........................................................................
.............................. CYCLE   40 ..............................
........................................................................
   1   -185.6719526 -0.185672E+03  0.122E-01    1.04       0.0  T
   2   -185.6719577 -0.511814E-05  0.679E-02    1.04       1.0  T
   3   -185.6717098  0.247899E-03  0.495E-02    1.05       1.0  T
   4   -185.6719927 -0.282909E-03  0.113E-02    1.04       1.0  T
   5   -185.6719971 -0.435190E-05  0.731E-03    1.04       1.4  T
   6   -185.6719997 -0.260196E-05  0.359E-03    1.04       2.8  T
   7   -185.6720001 -0.397017E-06  0.172E-03    1.04       5.9  T
   8   -185.6720001 -0.475877E-07  0.114E-03    1.04       8.8  T
   9   -185.6720002 -0.287540E-07  0.572E-04    1.04      17.7  T
  10   -185.6720002 -0.130407E-07  0.256E-04    1.04      39.5  T
     SCC iter.                  ...        0 min,  0.130 sec
     gradient                   ...        0 min,  0.031 sec
 * total energy  :  -182.8115872 Eh     change       -0.1078929E-02 Eh
   gradient norm :     0.0160187 Eh/α   predicted    -0.1116856E-02 (   3.52%)
   displ. norm   :     0.6898267 α      lambda       -0.1307013E-02
   maximum displ.:     0.4111695 α      in ANC's #6, #12, #7, ...

........................................................................
.............................. CYCLE   41 ..............................
........................................................................
   1   -185.6662944 -0.185666E+03  0.115E-01    1.04       0.0  T
   2   -185.6663062 -0.118313E-04  0.635E-02    1.04       1.0  T
   3   -185.6662129  0.932664E-04  0.321E-02    1.05       1.0  T
   4   -185.6663181 -0.105141E-03  0.736E-03    1.04       1.4  T
   5   -185.6663167  0.134057E-05  0.561E-03    1.05       1.8  T
   6   -185.6663192 -0.245618E-05  0.221E-03    1.04       4.6  T
   7   -185.6663195 -0.263018E-06  0.113E-03    1.04       8.9  T
   8   -185.6663195 -0.332422E-07  0.628E-04    1.04      16.1  T
   9   -185.6663195 -0.369195E-08  0.400E-04    1.04      25.3  T
     SCC iter.                  ...        0 min,  0.116 sec
     gradient                   ...        0 min,  0.031 sec
 * total energy  :  -182.8124664 Eh     change       -0.8792108E-03 Eh
   gradient norm :     0.0157180 Eh/α   predicted    -0.9644908E-03 (   9.70%)
   displ. norm   :     0.6874505 α      lambda        0.6272514E-04
   maximum displ.:     0.4097371 α      in ANC's #6, #12, #7, ...

........................................................................
.............................. CYCLE   42 ..............................
........................................................................
   1   -185.6559853 -0.185656E+03  0.117E-01    1.05       0.0  T
   2   -185.6560022 -0.168098E-04  0.643E-02    1.05       1.0  T
   3   -185.6559498  0.523559E-04  0.261E-02    1.04       1.0  T
   4   -185.6560109 -0.610901E-04  0.727E-03    1.05       1.4  T
   5   -185.6560110 -0.103938E-06  0.488E-03    1.05       2.1  T
   6   -185.6560121 -0.110777E-05  0.205E-03    1.05       4.9  T
   7   -185.6560123 -0.214705E-06  0.105E-03    1.05       9.6  T
   8   -185.6560123 -0.309526E-07  0.608E-04    1.05      16.6  T
   9   -185.6560124 -0.778766E-08  0.368E-04    1.05      27.5  T
     SCC iter.                  ...        0 min,  0.118 sec
     gradient                   ...        0 min,  0.031 sec
 * total energy  :  -182.8123265 Eh     change        0.1398980E-03 Eh
   gradient norm :     0.0307497 Eh/α   predicted     0.4618106E-04 ( -66.99%)
   displ. norm   :     0.2565219 α      lambda       -0.1809777E-02
   maximum displ.:     0.0915947 α      in ANC's #9, #6, #19, ...
 * RMSD in coord.:     1.2144909 α      energy gain  -0.2043372E-01 Eh

generating ANC from model Hessian ...
Using Lindh-Hessian (1995)
 Shifting diagonal of input Hessian by   9.993303438343487E-003
 Lowest  eigenvalues of input Hessian
    0.000000    0.000000    0.000000    0.000000    0.000000    0.000000
    0.010000    0.010004    0.010017    0.010052    0.010188    0.010238
    0.010280    0.010397    0.010596    0.010649    0.010929    0.011026
 Highest eigenvalues
    2.269630    2.284429    2.605278    2.611940    2.647567    2.652341
 

........................................................................
.............................. CYCLE   43 ..............................
........................................................................
   1   -185.6767213 -0.185677E+03  0.837E-02    1.05       0.0  T
   2   -185.6767606 -0.392340E-04  0.496E-02    1.05       1.0  T
   3   -185.6767019  0.586521E-04  0.346E-02    1.05       1.0  T
   4   -185.6767951 -0.931529E-04  0.130E-02    1.05       1.0  T
   5   -185.6768075 -0.123934E-04  0.648E-03    1.05       1.6  T
   6   -185.6768084 -0.975059E-06  0.458E-03    1.05       2.2  T
   7   -185.6768091 -0.644185E-06  0.272E-03    1.05       3.7  T
   8   -185.6768093 -0.211440E-06  0.162E-03    1.05       6.2  T
   9   -185.6768093 -0.182334E-07  0.931E-04    1.05      10.9  T
  10   -185.6768094 -0.420534E-07  0.369E-04    1.05      27.3  T
     SCC iter.                  ...        0 min,  0.131 sec
     gradient                   ...        0 min,  0.031 sec
 * total energy  :  -182.8133531 Eh     change       -0.1026624E-02 Eh
   gradient norm :     0.0186850 Eh/α   predicted     0.0000000E+00 (-100.00%)
   displ. norm   :     0.2154134 α      lambda       -0.1440001E-02
   maximum displ.:     0.0717928 α      in ANC's #5, #39, #8, ...

........................................................................
.............................. CYCLE   44 ..............................
........................................................................
   1   -185.6750182 -0.185675E+03  0.132E-01    1.04       0.0  T
   2   -185.6750398 -0.215777E-04  0.737E-02    1.04       1.0  T
   3   -185.6750042  0.355866E-04  0.229E-02    1.04       1.0  T
   4   -185.6750478 -0.435907E-04  0.106E-02    1.04       1.0  T
   5   -185.6750499 -0.209171E-05  0.721E-03    1.04       1.4  T
   6   -185.6750515 -0.168124E-05  0.385E-03    1.04       2.6  T
   7   -185.6750519 -0.377801E-06  0.228E-03    1.04       4.4  T
   8   -185.6750520 -0.467448E-07  0.133E-03    1.04       7.6  T
   9   -185.6750520 -0.848038E-07  0.619E-04    1.04      16.3  T
  10   -185.6750521 -0.125548E-07  0.382E-04    1.04      26.4  T
     SCC iter.                  ...        0 min,  0.130 sec
     gradient                   ...        0 min,  0.031 sec
 * total energy  :  -182.8140502 Eh     change       -0.6970554E-03 Eh
   gradient norm :     0.0092986 Eh/α   predicted    -0.7534402E-03 (   8.09%)
   displ. norm   :     0.2435642 α      lambda       -0.8625526E-03
   maximum displ.:     0.1183670 α      in ANC's #5, #8, #4, ...

........................................................................
.............................. CYCLE   45 ..............................
........................................................................
   1   -185.6783740 -0.185678E+03  0.106E-01    1.04       0.0  T
   2   -185.6783877 -0.136535E-04  0.593E-02    1.04       1.0  T
   3   -185.6783345  0.531504E-04  0.243E-02    1.04       1.0  T
   4   -185.6783961 -0.616044E-04  0.663E-03    1.04       1.5  T
   5   -185.6783968 -0.731428E-06  0.455E-03    1.04       2.2  T
   6   -185.6783980 -0.117134E-05  0.205E-03    1.04       4.9  T
   7   -185.6783981 -0.133423E-06  0.120E-03    1.04       8.4  T
   8   -185.6783982 -0.279538E-07  0.730E-04    1.04      13.8  T
   9   -185.6783982 -0.138300E-07  0.318E-04    1.04      31.7  T
     SCC iter.                  ...        0 min,  0.118 sec
     gradient                   ...        0 min,  0.031 sec
 * total energy  :  -182.8144767 Eh     change       -0.4265174E-03 Eh
   gradient norm :     0.0086246 Eh/α   predicted    -0.4568700E-03 (   7.12%)
   displ. norm   :     0.2745638 α      lambda       -0.6294346E-03
   maximum displ.:     0.1390416 α      in ANC's #8, #5, #18, ...

........................................................................
.............................. CYCLE   46 ..............................
........................................................................
   1   -185.6791278 -0.185679E+03  0.924E-02    1.04       0.0  T
   2   -185.6791376 -0.976907E-05  0.519E-02    1.04       1.0  T
   3   -185.6791015  0.361357E-04  0.201E-02    1.04       1.0  T
   4   -185.6791439 -0.424392E-04  0.502E-03    1.04       2.0  T
   5   -185.6791436  0.281044E-06  0.399E-03    1.04       2.5  T
   6   -185.6791447 -0.104206E-05  0.199E-03    1.04       5.1  T
   7   -185.6791447 -0.314242E-07  0.140E-03    1.04       7.2  T
   8   -185.6791447 -0.399474E-07  0.783E-04    1.04      12.9  T
   9   -185.6791448 -0.135028E-07  0.356E-04    1.04      28.4  T
     SCC iter.                  ...        0 min,  0.119 sec
     gradient                   ...        0 min,  0.031 sec
 * total energy  :  -182.8147797 Eh     change       -0.3030200E-03 Eh
   gradient norm :     0.0106165 Eh/α   predicted    -0.3384431E-03 (  11.69%)
   displ. norm   :     0.4630402 α      lambda       -0.1097741E-02
   maximum displ.:     0.2640648 α      in ANC's #5, #8, #4, ...

........................................................................
.............................. CYCLE   47 ..............................
........................................................................
   1   -185.6782210 -0.185678E+03  0.129E-01    1.03       0.0  T
   2   -185.6782367 -0.156506E-04  0.721E-02    1.04       1.0  T
   3   -185.6781771  0.596140E-04  0.271E-02    1.04       1.0  T
   4   -185.6782463 -0.692946E-04  0.843E-03    1.03       1.2  T
   5   -185.6782460  0.298301E-06  0.638E-03    1.04       1.6  T
   6   -185.6782482 -0.219230E-05  0.330E-03    1.04       3.1  T
   7   -185.6782485 -0.219769E-06  0.208E-03    1.04       4.8  T
   8   -185.6782485 -0.411259E-07  0.127E-03    1.04       7.9  T
   9   -185.6782486 -0.635962E-07  0.575E-04    1.04      17.6  T
  10   -185.6782486 -0.429890E-08  0.365E-04    1.04      27.7  T
     SCC iter.                  ...        0 min,  0.131 sec
     gradient                   ...        0 min,  0.031 sec
 * total energy  :  -182.8153306 Eh     change       -0.5508839E-03 Eh
   gradient norm :     0.0117753 Eh/α   predicted    -0.6665514E-03 (  21.00%)
   displ. norm   :     0.3803297 α      lambda       -0.8809259E-03
   maximum displ.:     0.2081677 α      in ANC's #5, #8, #4, ...

........................................................................
.............................. CYCLE   48 ..............................
........................................................................
   1   -185.6767124 -0.185677E+03  0.986E-02    1.03       0.0  T
   2   -185.6767211 -0.865457E-05  0.548E-02    1.03       1.0  T
   3   -185.6766632  0.579438E-04  0.229E-02    1.04       1.0  T
   4   -185.6767287 -0.655630E-04  0.538E-03    1.03       1.9  T
   5   -185.6767291 -0.413361E-06  0.388E-03    1.04       2.6  T
   6   -185.6767298 -0.620854E-06  0.199E-03    1.03       5.1  T
   7   -185.6767298 -0.197585E-07  0.144E-03    1.03       7.0  T
   8   -185.6767298 -0.286852E-07  0.887E-04    1.03      11.4  T
   9   -185.6767298 -0.274947E-07  0.366E-04    1.03      27.6  T
     SCC iter.                  ...        0 min,  0.118 sec
     gradient                   ...        0 min,  0.031 sec
 * total energy  :  -182.8159300 Eh     change       -0.5993602E-03 Eh
   gradient norm :     0.0110384 Eh/α   predicted    -0.5041755E-03 ( -15.88%)
   displ. norm   :     0.5418806 α      lambda       -0.1058226E-02
   maximum displ.:     0.3093553 α      in ANC's #5, #8, #4, ...

........................................................................
.............................. CYCLE   49 ..............................
........................................................................
   1   -185.6760044 -0.185676E+03  0.991E-02    1.04       0.0  T
   2   -185.6760112 -0.677686E-05  0.556E-02    1.03       1.0  T
   3   -185.6759500  0.611737E-04  0.241E-02    1.04       1.0  T
   4   -185.6760162 -0.661466E-04  0.938E-03    1.03       1.1  T
   5   -185.6760185 -0.231599E-05  0.637E-03    1.03       1.6  T
   6   -185.6760198 -0.131388E-05  0.359E-03    1.03       2.8  T
   7   -185.6760200 -0.201672E-06  0.232E-03    1.03       4.4  T
   8   -185.6760201 -0.541859E-07  0.126E-03    1.03       8.0  T
   9   -185.6760201 -0.661749E-07  0.526E-04    1.03      19.2  T
  10   -185.6760202 -0.120150E-07  0.246E-04    1.03      41.1  T
     SCC iter.                  ...        0 min,  0.132 sec
     gradient                   ...        0 min,  0.031 sec
 * total energy  :  -182.8166547 Eh     change       -0.7247533E-03 Eh
   gradient norm :     0.0086441 Eh/α   predicted    -0.6844842E-03 (  -5.56%)
   displ. norm   :     0.6197660 α      lambda       -0.8282236E-03
   maximum displ.:     0.3616030 α      in ANC's #5, #8, #4, ...

........................................................................
.............................. CYCLE   50 ..............................
........................................................................
   1   -185.6749865 -0.185675E+03  0.941E-02    1.04       0.0  T
   2   -185.6749919 -0.535808E-05  0.526E-02    1.03       1.0  T
   3   -185.6749601  0.317519E-04  0.170E-02    1.04       1.0  T
   4   -185.6749942 -0.340463E-04  0.625E-03    1.03       1.6  T
   5   -185.6749958 -0.161633E-05  0.366E-03    1.04       2.8  T
   6   -185.6749967 -0.931031E-06  0.124E-03    1.04       8.1  T
   7   -185.6749968 -0.384989E-07  0.851E-04    1.04      11.9  T
   8   -185.6749968 -0.221684E-08  0.547E-04    1.04      18.5  T
     SCC iter.                  ...        0 min,  0.106 sec
     gradient                   ...        0 min,  0.031 sec
 * total energy  :  -182.8173634 Eh     change       -0.7087184E-03 Eh
   gradient norm :     0.0084678 Eh/α   predicted    -0.5731789E-03 ( -19.12%)
   displ. norm   :     0.6640798 α      lambda       -0.1014380E-02
   maximum displ.:     0.3909095 α      in ANC's #5, #8, #4, ...

........................................................................
.............................. CYCLE   51 ..............................
........................................................................
   1   -185.6783381 -0.185678E+03  0.116E-01    1.04       0.0  T
   2   -185.6783511 -0.129627E-04  0.647E-02    1.04       1.0  T
   3   -185.6782948  0.563076E-04  0.240E-02    1.04       1.0  T
   4   -185.6783566 -0.618040E-04  0.852E-03    1.04       1.2  T
   5   -185.6783602 -0.364366E-05  0.491E-03    1.04       2.1  T
   6   -185.6783612 -0.953172E-06  0.261E-03    1.04       3.9  T
   7   -185.6783614 -0.216715E-06  0.170E-03    1.04       5.9  T
   8   -185.6783614 -0.334511E-07  0.106E-03    1.04       9.5  T
   9   -185.6783615 -0.284888E-07  0.514E-04    1.04      19.7  T
  10   -185.6783615 -0.134139E-07  0.242E-04    1.04      41.8  T
     SCC iter.                  ...        0 min,  0.131 sec
     gradient                   ...        0 min,  0.031 sec
 * total energy  :  -182.8180907 Eh     change       -0.7273124E-03 Eh
   gradient norm :     0.0085167 Eh/α   predicted    -0.7308641E-03 (   0.49%)
   displ. norm   :     0.6641003 α      lambda       -0.8630094E-03
   maximum displ.:     0.3860202 α      in ANC's #5, #8, #4, ...

........................................................................
.............................. CYCLE   52 ..............................
........................................................................
   1   -185.6805234 -0.185681E+03  0.106E-01    1.04       0.0  T
   2   -185.6805308 -0.742742E-05  0.585E-02    1.04       1.0  T
   3   -185.6805073  0.235542E-04  0.162E-02    1.04       1.0  T
   4   -185.6805338 -0.265639E-04  0.600E-03    1.04       1.7  T
   5   -185.6805347 -0.868635E-06  0.325E-03    1.04       3.1  T
   6   -185.6805357 -0.102080E-05  0.829E-04    1.04      12.2  T
   7   -185.6805357 -0.144229E-07  0.522E-04    1.04      19.3  T
   8   -185.6805358 -0.710185E-08  0.300E-04    1.04      33.7  T
     SCC iter.                  ...        0 min,  0.107 sec
     gradient                   ...        0 min,  0.031 sec
 * total energy  :  -182.8187623 Eh     change       -0.6715650E-03 Eh
   gradient norm :     0.0081855 Eh/α   predicted    -0.6218179E-03 (  -7.41%)
   displ. norm   :     0.7146551 α      lambda       -0.7272746E-03
   maximum displ.:     0.4071328 α      in ANC's #5, #8, #4, ...

........................................................................
.............................. CYCLE   53 ..............................
........................................................................
   1   -185.6760227 -0.185676E+03  0.992E-02    1.04       0.0  T
   2   -185.6760331 -0.103699E-04  0.565E-02    1.04       1.0  T
   3   -185.6759920  0.410888E-04  0.221E-02    1.04       1.0  T
   4   -185.6760391 -0.471572E-04  0.584E-03    1.04       1.7  T
   5   -185.6760386  0.542601E-06  0.412E-03    1.04       2.5  T
   6   -185.6760399 -0.127482E-05  0.138E-03    1.04       7.3  T
   7   -185.6760400 -0.139456E-06  0.585E-04    1.04      17.3  T
   8   -185.6760400 -0.102973E-07  0.373E-04    1.04      27.1  T
     SCC iter.                  ...        0 min,  0.107 sec
     gradient                   ...        0 min,  0.031 sec
 * total energy  :  -182.8193667 Eh     change       -0.6043587E-03 Eh
   gradient norm :     0.0074456 Eh/α   predicted    -0.5493613E-03 (  -9.10%)
   displ. norm   :     0.7182150 α      lambda       -0.8703201E-03
   maximum displ.:     0.4045702 α      in ANC's #5, #8, #4, ...

........................................................................
.............................. CYCLE   54 ..............................
........................................................................
   1   -185.6814752 -0.185681E+03  0.101E-01    1.04       0.0  T
   2   -185.6814944 -0.192479E-04  0.579E-02    1.03       1.0  T
   3   -185.6814112  0.831946E-04  0.278E-02    1.04       1.0  T
   4   -185.6815015 -0.902929E-04  0.820E-03    1.03       1.2  T
   5   -185.6815063 -0.483661E-05  0.408E-03    1.04       2.5  T
   6   -185.6815072 -0.910883E-06  0.218E-03    1.04       4.6  T
   7   -185.6815075 -0.237593E-06  0.115E-03    1.04       8.8  T
   8   -185.6815075 -0.417296E-07  0.736E-04    1.04      13.7  T
   9   -185.6815075 -0.302117E-08  0.418E-04    1.04      24.2  T
     SCC iter.                  ...        0 min,  0.121 sec
     gradient                   ...        0 min,  0.031 sec
 * total energy  :  -182.8200152 Eh     change       -0.6485129E-03 Eh
[...]
    53   6 C        2.974     0.014    27.693     8.632
    54  34 Se       2.281    -0.019   236.382    26.790
    55   6 C        2.955    -0.010    28.266     8.720
    56   6 C        3.001    -0.041    28.995     8.833
    57   6 C        2.866     0.226    23.258     7.905
    58   8 O        0.856    -0.377    21.235     6.178
    59   6 C        3.044    -0.019    28.438     8.746
    60   6 C        2.915    -0.014    28.369     8.734
    61   6 C        3.058    -0.028    28.642     8.777
    62   6 C        2.959     0.064    26.564     8.454
    63  53 I        1.240    -0.102   379.498    33.629
    64   6 C        3.054    -0.033    28.771     8.797
    65   6 C        3.034     0.008    27.807     8.649
    66   6 C        3.019     0.028    27.352     8.579
    67   6 C        2.947     0.004    27.924     8.667
    68   6 C        1.949     0.122    28.079     8.557
    69   7 N        0.911    -0.239    26.241     7.409
    70   6 C        1.951     0.123    28.063     8.555
    71   7 N        0.911    -0.230    26.031     7.379
    72   1 H        0.925     0.064     2.150     2.293
    73   1 H        0.926     0.059     2.211     2.325
    74   1 H        0.926     0.058     2.223     2.332
    75   1 H        0.925     0.045     2.381     2.413
    76   1 H        0.925     0.038     2.482     2.463
    77   1 H        0.926     0.033     2.545     2.495
    78   1 H        0.926     0.032     2.560     2.502
    79   1 H        0.925     0.035     2.513     2.479
    80   1 H        0.925     0.042     2.428     2.437
    81   1 H        0.925     0.039     2.469     2.457
    82   1 H        0.925     0.044     2.401     2.423
    83   1 H        0.926     0.058     2.225     2.333
    84   1 H        0.924     0.059     2.208     2.324
    85   1 H        0.923     0.065     2.139     2.287
    86   1 H        0.925     0.054     2.267     2.354
    87   1 H        0.925     0.068     2.113     2.273
    88   1 H        0.925     0.059     2.215     2.328
    89   1 H        0.925     0.069     2.099     2.265
    90   1 H        0.923     0.070     2.081     2.256
    91   1 H        0.925     0.056     2.248     2.345
    92   1 H        0.925     0.047     2.353     2.399
    93   1 H        0.925     0.056     2.247     2.344
    94   1 H        0.926     0.109     1.708     2.043
    95   1 H        0.925     0.067     2.121     2.277
    96   1 H        0.926     0.068     2.109     2.271
    97   1 H        0.926     0.063     2.164     2.300
    98   1 H        0.926     0.069     2.095     2.264

 Mol. C6AA /au·bohr⁶  :     209366.221287
 Mol. C8AA /au·bohr⁸  :    6659732.985980
 Mol. α(0) /au        :        734.545594


Wiberg/Mayer (AO) data.
largest (>0.10) Wiberg bond orders for each atom

 ---------------------------------------------------------------------------
     #   Z sym  total        # sym  WBO       # sym  WBO       # sym  WBO
 ---------------------------------------------------------------------------
     1   6 C    3.944 --     2 C    1.487    24 C    1.308    72 H    0.938
     2   6 C    3.952 --     1 C    1.487    11 C    1.132     3 C    1.087
     3   6 C    3.911 --     4 O    1.645     2 C    1.087     5 C    1.041
     4   8 O    2.201 --     3 C    1.645    46 Se   0.284
     5   6 C    3.971 --     6 C    1.377    10 C    1.305     3 C    1.041
     6   6 C    3.979 --     7 C    1.444     5 C    1.377    73 H    0.964
     7   6 C    3.957 --     6 C    1.444     8 C    1.327    23 C    0.996
     8   6 C    3.963 --     9 C    1.446     7 C    1.327    17 C    0.997
     9   6 C    3.978 --     8 C    1.446    10 C    1.371    74 H    0.958
    10   6 C    3.975 --     9 C    1.371     5 C    1.305    11 C    1.086
    11   6 C    3.973 --    12 C    1.491     2 C    1.132    10 C    1.086
    12   6 C    3.949 --    11 C    1.491    13 C    1.096    15 C    1.094
    13   6 C    3.945 --    14 N    2.755    12 C    1.096
    14   7 N    2.964 --    13 C    2.755
    15   6 C    3.945 --    16 N    2.764    12 C    1.094
    16   7 N    2.969 --    15 C    2.764
    17   6 C    3.985 --     8 C    0.997    23 C    0.978    75 H    0.960
                            18 C    0.947
    18   6 C    3.989 --    19 C    1.010    22 C    0.985    76 H    0.972
                            17 C    0.947
    19   6 C    3.987 --    20 C    1.924    18 C    1.010    77 H    0.971
    20   6 C    3.987 --    19 C    1.924    21 C    1.010    78 H    0.971
    21   6 C    3.989 --    20 C    1.010    22 C    0.985    79 H    0.972
                            23 C    0.947
    22   6 C    3.993 --    21 C    0.985    18 C    0.985    81 H    0.978
                            80 H    0.976
    23   6 C    3.985 --     7 C    0.996    17 C    0.978    82 H    0.960
                            21 C    0.947
    24   6 C    3.943 --    25 C    1.368     1 C    1.308    46 Se   1.090
    25   6 C    3.960 --    26 C    1.393    24 C    1.368    83 H    0.959
                            46 Se   0.105
    26   6 C    3.928 --    25 C    1.393    45 C    1.285    27 S    1.080
    27  16 S    2.509 --    28 C    1.117    26 C    1.080
    28   6 C    3.916 --    44 C    1.300    29 C    1.277    27 S    1.117
    29   6 C    3.951 --    28 C    1.277    42 C    1.265    30 C    1.171
    30   6 C    3.972 --    34 N    1.427    29 C    1.171    31 C    1.168
                            33 S    0.101
    31   6 C    3.972 --    32 N    1.428    35 C    1.169    30 C    1.168
                            33 S    0.101
    32   7 N    3.074 --    31 C    1.428    33 S    1.392    34 N    0.148
    33  16 S    3.110 --    34 N    1.395    32 N    1.392    30 C    0.101
                            31 C    0.101
    34   7 N    3.075 --    30 C    1.427    33 S    1.395    32 N    0.148
    35   6 C    3.952 --    36 C    1.280    41 C    1.263    31 C    1.169
    36   6 C    3.917 --    37 C    1.287    35 C    1.280    51 S    1.125
    37   6 C    3.932 --    36 C    1.287    49 C    1.270    38 N    1.150
    38   7 N    3.554 --    41 C    1.169    37 C    1.150    39 C    0.985
    39   6 C    3.965 --    40 C    1.006    38 N    0.985    84 H    0.963
                            85 H    0.955
    40   6 C    3.985 --    39 C    1.006    88 H    0.983    86 H    0.979
                            87 H    0.965
    41   6 C    3.924 --    35 C    1.263    42 C    1.230    38 N    1.169
    42   6 C    3.925 --    29 C    1.265    41 C    1.230    43 N    1.164
    43   7 N    3.540 --    42 C    1.164    44 C    1.148    47 C    0.981
    44   6 C    3.929 --    28 C    1.300    45 C    1.263    43 N    1.148
    45   6 C    3.947 --    26 C    1.285    44 C    1.263    46 Se   1.156
    46  34 Se   2.956 --    45 C    1.156    24 C    1.090     4 O    0.284
                            25 C    0.105
    47   6 C    3.962 --    48 C    1.005    43 N    0.981    89 H    0.956
                            90 H    0.951
    48   6 C    3.987 --    47 C    1.005    92 H    0.986    93 H    0.982
                            91 H    0.979
    49   6 C    3.937 --    50 C    1.281    37 C    1.270    54 Se   1.161
    50   6 C    3.931 --    52 C    1.371    49 C    1.281    51 S    1.091
    51  16 S    2.530 --    36 C    1.125    50 C    1.091
    52   6 C    3.945 --    53 C    1.403    50 C    1.371    94 H    0.931
    53   6 C    3.935 --    52 C    1.403    55 C    1.297    54 Se   1.064
    54  34 Se   2.680 --    49 C    1.161    53 C    1.064
    55   6 C    3.939 --    56 C    1.497    53 C    1.297    95 H    0.934
    56   6 C    3.949 --    55 C    1.497    66 C    1.142    57 C    1.046
    57   6 C    3.920 --    58 O    1.745    56 C    1.046    59 C    1.019
    58   8 O    2.048 --    57 C    1.745
    59   6 C    3.977 --    60 C    1.415    65 C    1.298    57 C    1.019
    60   6 C    3.981 --    61 C    1.424    59 C    1.415    96 H    0.963
    61   6 C    3.971 --    60 C    1.424    62 C    1.415    97 H    0.967
    62   6 C    3.949 --    61 C    1.415    64 C    1.410    63 I    0.986
    63  53 I    1.101 --    62 C    0.986
    64   6 C    3.975 --    62 C    1.410    65 C    1.403    98 H    0.958
    65   6 C    3.982 --    64 C    1.403    59 C    1.298    66 C    1.077
    66   6 C    3.969 --    67 C    1.489    56 C    1.142    65 C    1.077
    67   6 C    3.945 --    66 C    1.489    68 C    1.097    70 C    1.093
    68   6 C    3.945 --    69 N    2.749    67 C    1.097
    69   7 N    2.965 --    68 C    2.749
    70   6 C    3.945 --    71 N    2.765    67 C    1.093
    71   7 N    2.971 --    70 C    2.765
    72   1 H    0.995 --     1 C    0.938
    73   1 H    0.996 --     6 C    0.964
    74   1 H    0.996 --     9 C    0.958
    75   1 H    0.996 --    17 C    0.960
    76   1 H    0.998 --    18 C    0.972
    77   1 H    0.999 --    19 C    0.971
    78   1 H    0.999 --    20 C    0.971
    79   1 H    0.998 --    21 C    0.972
    80   1 H    0.996 --    22 C    0.976
    81   1 H    0.998 --    22 C    0.978
    82   1 H    0.996 --    23 C    0.960
    83   1 H    0.996 --    25 C    0.959
    84   1 H    0.995 --    39 C    0.963
    85   1 H    0.994 --    39 C    0.955
    86   1 H    0.997 --    40 C    0.979
    87   1 H    0.995 --    40 C    0.965
    88   1 H    0.996 --    40 C    0.983
    89   1 H    0.994 --    47 C    0.956
    90   1 H    0.994 --    47 C    0.951
    91   1 H    0.997 --    48 C    0.979
    92   1 H    0.998 --    48 C    0.986
    93   1 H    0.996 --    48 C    0.982
    94   1 H    0.988 --    52 C    0.931
    95   1 H    0.994 --    55 C    0.934
    96   1 H    0.995 --    60 C    0.963
    97   1 H    0.995 --    61 C    0.967
    98   1 H    0.995 --    64 C    0.958
 ---------------------------------------------------------------------------

Topologies differ in bond orders
Writing corrected topology to xtbtopo.mol

molecular dipole:
                 x           y           z       tot (Debye)
 q only:        0.394      -1.735      -1.635
   full:        0.181      -1.718      -1.669       6.105
molecular quadrupole (traceless):
                xx          xy          yy          xz          yz          zz
 q only:      -68.631    -120.006      -3.024     -35.923      -2.785      71.655
  q+dip:      -88.239    -140.643      -1.527     -42.787      -7.510      89.766
   full:      -93.831    -142.460      -5.774     -38.980     -16.857      99.606

           -------------------------------------------------
          |                Geometry Summary                 |
           -------------------------------------------------

      molecular mass/u    :     1212.8749215
   center of mass at/Å    :        0.3769202       2.4625864       0.4703680
  moments of inertia/u·Å² :        0.1133481E+05   0.9820646E+05   0.1086087E+06
rotational constants/cm⁻¹ :        0.1487245E-02   0.1716550E-03   0.1552143E-03

 * 96 selected distances

     #   Z          #   Z                                           value/Å
     1   6 C        2   6 C                                       1.3729459
     3   6 C        4   8 O                                       1.2271376
     5   6 C        6   6 C                                       1.3930874
     6   6 C        7   6 C                                       1.3741715
     7   6 C        8   6 C                                       1.4011629
     8   6 C        9   6 C                                       1.3754344
     5   6 C       10   6 C                                       1.4110393
     9   6 C       10   6 C                                       1.3969576
    11   6 C       12   6 C                                       1.3704462
    13   6 C       14   7 N                                       1.1488431
    15   6 C       16   7 N                                       1.1481461
     8   6 C       17   6 C                                       1.5078395
    17   6 C       18   6 C                                       1.5487846
    19   6 C       20   6 C                                       1.3262920
    18   6 C       22   6 C                                       1.5370880
    21   6 C       22   6 C                                       1.5370430
     7   6 C       23   6 C                                       1.5078716
    17   6 C       23   6 C                                       1.5613580
    21   6 C       23   6 C                                       1.5491110
     1   6 C       24   6 C                                       1.4024045
    24   6 C       25   6 C                                       1.3971467
    25   6 C       26   6 C                                       1.3823026
    26   6 C       27  16 S                                       1.7555916
    27  16 S       28   6 C                                       1.7286205
    28   6 C       29   6 C                                       1.4013953
    29   6 C       30   6 C                                       1.4127431
    30   6 C       31   6 C                                       1.4335565
    31   6 C       32   7 N                                       1.3234707
    32   7 N       33  16 S                                       1.6186388
    30   6 C       34   7 N                                       1.3236040
    33  16 S       34   7 N                                       1.6179267
    31   6 C       35   6 C                                       1.4129834
    35   6 C       36   6 C                                       1.4006314
    36   6 C       37   6 C                                       1.4020314
    37   6 C       38   7 N                                       1.3703573
    38   7 N       39   6 C                                       1.4439148
    39   6 C       40   6 C                                       1.5290926
    35   6 C       41   6 C                                       1.4266134
    38   7 N       41   6 C                                       1.3817667
    29   6 C       42   6 C                                       1.4275836
    41   6 C       42   6 C                                       1.4184720
    42   6 C       43   7 N                                       1.3849813
    28   6 C       44   6 C                                       1.3992082
    43   7 N       44   6 C                                       1.3714586
    26   6 C       45   6 C                                       1.4099377
    44   6 C       45   6 C                                       1.3969155
    45   6 C       46  34 Se                                      1.8662484
    43   7 N       47   6 C                                       1.4462198
    47   6 C       48   6 C                                       1.5278574
    37   6 C       49   6 C                                       1.3962548
    49   6 C       50   6 C                                       1.4138360
    36   6 C       51  16 S                                       1.7260576
    50   6 C       51  16 S                                       1.7508267
    50   6 C       52   6 C                                       1.3867328
    52   6 C       53   6 C                                       1.3864505
    49   6 C       54  34 Se                                      1.8597800
    53   6 C       55   6 C                                       1.4029678
    55   6 C       56   6 C                                       1.3730195
    57   6 C       58   8 O                                       1.2146521
    59   6 C       60   6 C                                       1.3812189
    60   6 C       61   6 C                                       1.3862457
    61   6 C       62   6 C                                       1.3871252
    62   6 C       63  53 I                                       2.1123130 (max)
    62   6 C       64   6 C                                       1.3882617
    59   6 C       65   6 C                                       1.4033720
    64   6 C       65   6 C                                       1.3856622
    66   6 C       67   6 C                                       1.3713808
    68   6 C       69   7 N                                       1.1493662
    70   6 C       71   7 N                                       1.1478158
     1   6 C       72   1 H                                       1.0841398
     6   6 C       73   1 H                                       1.0787609
     9   6 C       74   1 H                                       1.0769714
    17   6 C       75   1 H                                       1.0880404
    18   6 C       76   1 H                                       1.0865222
    19   6 C       77   1 H                                       1.0742389 (min)
    20   6 C       78   1 H                                       1.0743181
    21   6 C       79   1 H                                       1.0868368
    22   6 C       80   1 H                                       1.0888529
    22   6 C       81   1 H                                       1.0890856
    23   6 C       82   1 H                                       1.0882343
    25   6 C       83   1 H                                       1.0770757
    39   6 C       84   1 H                                       1.0908576
    39   6 C       85   1 H                                       1.0983685
    40   6 C       86   1 H                                       1.0876452
    40   6 C       87   1 H                                       1.0894562
    40   6 C       88   1 H                                       1.0864097
    47   6 C       89   1 H                                       1.0822995
    47   6 C       90   1 H                                       1.0979132
    48   6 C       91   1 H                                       1.0880473
    48   6 C       92   1 H                                       1.0883337
    48   6 C       93   1 H                                       1.0862886
    52   6 C       94   1 H                                       1.0760619
    55   6 C       95   1 H                                       1.0852399
    60   6 C       96   1 H                                       1.0790470
    61   6 C       97   1 H                                       1.0790065
    64   6 C       98   1 H                                       1.0773004

 * 8 distinct bonds (by element types)

   Z      Z             #   av. dist./Å        max./Å        min./Å
   1 H    6 C          27     1.0846427     1.0983685     1.0742389
   6 C    6 C          46     1.4220443     1.5613580     1.3262920
   6 C    7 N          12     1.3033287     1.4462198     1.1478158
   6 C    8 O           2     1.2208949     1.2271376     1.2146521
   6 C   16 S           4     1.7402741     1.7555916     1.7260576
   7 N   16 S           2     1.6182827     1.6186388     1.6179267
   6 C   34 Se          2     1.8630142     1.8662484     1.8597800
   6 C   53 I           1     2.1123130     2.1123130     2.1123130


optimized geometry written to: xtbopt.mol


           -------------------------------------------------
          | TOTAL ENERGY             -182.835866833406 Eh   |
          | GRADIENT NORM               0.000528497405 Eh/α |
          | HOMO-LUMO GAP               1.049696672518 eV   |
           -------------------------------------------------

------------------------------------------------------------------------
 * finished run on 2022/02/11 at 05:30:12.700     
------------------------------------------------------------------------
 total:
 * wall-time:     0 d,  0 h,  0 min, 37.830 sec
 *  cpu-time:     0 d,  0 h,  5 min,  2.370 sec
 * ratio c/w:     7.993 speedup
 SCF:
 * wall-time:     0 d,  0 h,  0 min,  0.286 sec
 *  cpu-time:     0 d,  0 h,  0 min,  2.273 sec
 * ratio c/w:     7.942 speedup
 ANC optimizer:
 * wall-time:     0 d,  0 h,  0 min, 37.488 sec
 *  cpu-time:     0 d,  0 h,  4 min, 59.720 sec
 * ratio c/w:     7.995 speedup

