      -----------------------------------------------------------      
     |                   =====================                   |     
     |                           x T B                           |     
     |                   =====================                   |     
     |                         S. Grimme                         |     
     |          Mulliken Center for Theoretical Chemistry        |     
     |                    University of Bonn                     |     
      -----------------------------------------------------------      

   * xtb version 6.4.1 (unknown) compiled by 'oda6@login1.crc.pitt.edu' on 2021-06-25

   xtb is free software: you can redistribute it and/or modify it under
   the terms of the GNU Lesser General Public License as published by
   the Free Software Foundation, either version 3 of the License, or
   (at your option) any later version.
   
   xtb is distributed in the hope that it will be useful,
   but WITHOUT ANY WARRANTY; without even the implied warranty of
   MERCHANTABILITY or FITNESS FOR A PARTICULAR PURPOSE.  See the
   GNU Lesser General Public License for more details.
   
   Cite this work as:
   * C. Bannwarth, E. Caldeweyher, S. Ehlert, A. Hansen, P. Pracht,
     J. Seibert, S. Spicher, S. Grimme, WIREs Comput. Mol. Sci., 2020, 11,
     e01493. DOI: 10.1002/wcms.1493
   
   for GFN2-xTB:
   * C. Bannwarth, S. Ehlert and S. Grimme., J. Chem. Theory Comput., 2019,
     15, 1652-1671. DOI: 10.1021/acs.jctc.8b01176
   for GFN1-xTB:
   * S. Grimme, C. Bannwarth, P. Shushkov, J. Chem. Theory Comput., 2017,
     13, 1989-2009. DOI: 10.1021/acs.jctc.7b00118
   for GFN0-xTB:
   * P. Pracht, E. Caldeweyher, S. Ehlert, S. Grimme, ChemRxiv, 2019, preprint.
     DOI: 10.26434/chemrxiv.8326202.v1
   for GFN-FF:
   * S. Spicher and S. Grimme, Angew. Chem. Int. Ed., 2020, 59, 15665-15673.
     DOI: 10.1002/anie.202004239
   
   for DFT-D4:
   * E. Caldeweyher, C. Bannwarth and S. Grimme, J. Chem. Phys., 2017,
     147, 034112. DOI: 10.1063/1.4993215
   * E. Caldeweyher, S. Ehlert, A. Hansen, H. Neugebauer, S. Spicher,
     C. Bannwarth and S. Grimme, J. Chem. Phys., 2019, 150, 154122.
     DOI: 10.1063/1.5090222
   * E. Caldeweyher, J.-M. Mewes, S. Ehlert and S. Grimme, Phys. Chem. Chem. Phys.
     2020, 22, 8499-8512. DOI: 10.1039/D0CP00502A
   
   for sTDA-xTB:
   * S. Grimme and C. Bannwarth, J. Chem. Phys., 2016, 145, 054103.
     DOI: 10.1063/1.4959605
   
   in the mass-spec context:
   * V. Asgeirsson, C. Bauer and S. Grimme, Chem. Sci., 2017, 8, 4879.
     DOI: 10.1039/c7sc00601b
   * J. Koopman and S. Grimme, ACS Omega 2019, 4, 12, 15120-15133.
     DOI: 10.1021/acsomega.9b02011
   
   for metadynamics refer to:
   * S. Grimme, J. Chem. Theory Comput., 2019, 155, 2847-2862
     DOI: 10.1021/acs.jctc.9b00143
   
   for SPH calculations refer to:
   * S. Spicher and S. Grimme, J. Chem. Theory Comput., 2021, 17, 1701-1714
     DOI: 10.1021/acs.jctc.0c01306
   
   with help from (in alphabetical order)
   P. Atkinson, C. Bannwarth, F. Bohle, G. Brandenburg, E. Caldeweyher
   M. Checinski, S. Dohm, S. Ehlert, S. Ehrlich, I. Gerasimov, J. Koopman
   C. Lavigne, S. Lehtola, F. März, M. Müller, F. Musil, H. Neugebauer
   J. Pisarek, C. Plett, P. Pracht, J. Seibert, P. Shushkov, S. Spicher
   M. Stahn, M. Steiner, T. Strunk, J. Stückrath, T. Rose, and J. Unsleber
   
 * started run on 2022/02/11 at 01:46:45.429     

           -------------------------------------------------
          |                Calculation Setup                |
           -------------------------------------------------

          program call               : /ihome/ghutchison/oda6/xtb/xtb-641/bin/xtb ../../FF_optimized/39_115_33.mol -opt
          hostname                   : smp-n28
          coordinate file            : ../../FF_optimized/39_115_33.mol
          omp threads                :                     8
          number of atoms            :                   104
          number of electrons        :                   354
          charge                     :                     0
          spin                       :                   0.0
          first test random number   :      0.32504489954040

   ID    Z sym.   atoms
    1    6 C      1-3, 5-13, 15, 17-29, 31, 32, 34, 35, 39-41, 43-45, 47, 48,
                  50-53, 55-59, 61-63, 65, 67-71, 73
    2    8 O      4, 60
    3    7 N      14, 16, 36, 38, 49, 54, 72, 74
    4   16 S      30, 33, 37, 42, 46
    5   17 Cl     64, 66
    6    1 H      75-104
########################################################################
[WARNING] Please study the warnings concerning your input carefully
-1- prog_main_parseArguments: the use of '-opt' is discouraged, please use '--opt' next time
########################################################################

           -------------------------------------------------
          |                 G F N 2 - x T B                 |
           -------------------------------------------------

        Reference                      10.1021/acs.jctc.8b01176
      * Hamiltonian:
        H0-scaling (s, p, d)           1.850000    2.230000    2.230000
        zeta-weighting                 0.500000
      * Dispersion:
        s8                             2.700000
        a1                             0.520000
        a2                             5.000000
        s9                             5.000000
      * Repulsion:
        kExp                           1.500000    1.000000
        rExp                           1.000000
      * Coulomb:
        alpha                          2.000000
        third order                    shell-resolved
        anisotropic                    true
        a3                             3.000000
        a5                             4.000000
        cn-shift                       1.200000
        cn-exp                         4.000000
        max-rad                        5.000000


          ...................................................
          :                      SETUP                      :
          :.................................................:
          :  # basis functions                 368          :
          :  # atomic orbitals                 361          :
          :  # shells                          185          :
          :  # electrons                       354          :
          :  max. iterations                   250          :
          :  Hamiltonian                  GFN2-xTB          :
          :  restarted?                      false          :
          :  GBSA solvation                  false          :
          :  PC potential                    false          :
          :  electronic temp.          300.0000000     K    :
          :  accuracy                    1.0000000          :
          :  -> integral cutoff          0.2500000E+02      :
          :  -> integral neglect         0.1000000E-07      :
          :  -> SCF convergence          0.1000000E-05 Eh   :
          :  -> wf. convergence          0.1000000E-03 e    :
          :  Broyden damping             0.4000000          :
          ...................................................

 iter      E             dE          RMSdq      gap      omega  full diag
   1   -196.4899020 -0.196490E+03  0.496E+00    1.37       0.0  T
   2   -196.6657878 -0.175886E+00  0.313E+00    1.04       1.0  T
   3   -196.5948827  0.709051E-01  0.206E+00    1.06       1.0  T
   4   -196.8153926 -0.220510E+00  0.801E-01    1.15       1.0  T
   5   -196.8676129 -0.522203E-01  0.247E-01    0.91       1.0  T
   6   -196.8721811 -0.456814E-02  0.129E-01    1.04       1.0  T
   7   -196.8730428 -0.861726E-03  0.612E-02    1.01       1.0  T
   8   -196.8732437 -0.200910E-03  0.357E-02    1.02       1.0  T
   9   -196.8732715 -0.277981E-04  0.255E-02    1.01       1.0  T
  10   -196.8732930 -0.214652E-04  0.179E-02    1.02       1.0  T
  11   -196.8733012 -0.827837E-05  0.121E-02    1.02       1.0  T
  12   -196.8733071 -0.587809E-05  0.711E-03    1.02       1.4  T
  13   -196.8733095 -0.242150E-05  0.336E-03    1.02       2.9  T
  14   -196.8733100 -0.479234E-06  0.179E-03    1.02       5.5  T
  15   -196.8733102 -0.159390E-06  0.896E-04    1.02      10.9  T
  16   -196.8733102 -0.303329E-07  0.495E-04    1.02      19.8  T

   *** convergence criteria satisfied after 16 iterations ***

         #    Occupation            Energy/Eh            Energy/eV
      -------------------------------------------------------------
         1        2.0000           -1.0794379             -29.3730
       ...           ...                  ...                  ...
       171        2.0000           -0.4124371             -11.2230
       172        2.0000           -0.4102175             -11.1626
       173        2.0000           -0.4068859             -11.0719
       174        2.0000           -0.4031805             -10.9711
       175        2.0000           -0.3945811             -10.7371
       176        2.0000           -0.3846729             -10.4675
       177        2.0000           -0.3800240             -10.3410 (HOMO)
       178                         -0.3424656              -9.3190 (LUMO)
       179                         -0.3360039              -9.1431
       180                         -0.3290941              -8.9551
       181                         -0.3231803              -8.7942
       182                         -0.3140081              -8.5446
       ...                                ...                  ...
       361                          1.0782262              29.3400
      -------------------------------------------------------------
                  HL-Gap            0.0375583 Eh            1.0220 eV
             Fermi-level           -0.3612418 Eh           -9.8299 eV

 SCC (total)                   0 d,  0 h,  0 min,  0.297 sec
 SCC setup                      ...        0 min,  0.001 sec (  0.213%)
 Dispersion                     ...        0 min,  0.004 sec (  1.289%)
 classical contributions        ...        0 min,  0.000 sec (  0.041%)
 integral evaluation            ...        0 min,  0.013 sec (  4.502%)
 iterations                     ...        0 min,  0.242 sec ( 81.576%)
 molecular gradient             ...        0 min,  0.036 sec ( 12.009%)
 printout                       ...        0 min,  0.001 sec (  0.342%)

         :::::::::::::::::::::::::::::::::::::::::::::::::::::
         ::                     SUMMARY                     ::
         :::::::::::::::::::::::::::::::::::::::::::::::::::::
         :: total energy            -193.988339472014 Eh    ::
         :: gradient norm              0.294869179522 Eh/a0 ::
         :: HOMO-LUMO gap              1.022014637583 eV    ::
         ::.................................................::
         :: SCC energy              -196.873310204737 Eh    ::
         :: -> isotropic ES            0.118085536295 Eh    ::
         :: -> anisotropic ES          0.009479570168 Eh    ::
         :: -> anisotropic XC          0.130704917085 Eh    ::
         :: -> dispersion             -0.175843602061 Eh    ::
         :: repulsion energy           2.883064245227 Eh    ::
         :: add. restraining           0.000000000000 Eh    ::
         :: total charge               0.000000000034 e     ::
         :::::::::::::::::::::::::::::::::::::::::::::::::::::

      ----------------------------------------------------------- 
     |                   =====================                   |
     |                        A N C O P T                        |
     |                   =====================                   |
     |               Approximate Normal Coordinate               |
     |                Rational Function Optimizer                |
      ----------------------------------------------------------- 

          ...................................................
          :                      SETUP                      :
          :.................................................:
          :   optimization level            normal          :
          :   max. optcycles                   312          :
          :   ANC micro-cycles                  20          :
          :   degrees of freedom               306          :
          :.................................................:
          :   RF solver                   davidson          :
          :   write xtbopt.log                true          :
          :   linear?                        false          :
          :   energy convergence         0.5000000E-05 Eh   :
          :   grad. convergence          0.1000000E-02 Eh/α :
          :   maximium RF displ.         1.0000000          :
          :   Hlow (freq-cutoff)         0.1000000E-01      :
          :   Hmax (freq-cutoff)         5.0000000          :
          :   S6 in model hess.         20.0000000          :
          ...................................................

generating ANC from model Hessian ...
Using Lindh-Hessian (1995)
 Shifting diagonal of input Hessian by   9.990406845922570E-003
 Lowest  eigenvalues of input Hessian
    0.000000    0.000000    0.000000    0.000000    0.000000    0.000000
    0.010000    0.010012    0.010054    0.010065    0.010132    0.010156
    0.010273    0.010288    0.010489    0.010564    0.010622    0.010870
 Highest eigenvalues
    2.265491    2.325168    2.492628    2.501944    2.552935    2.560794
 

........................................................................
.............................. CYCLE    1 ..............................
........................................................................
   1   -196.8733102 -0.196873E+03  0.273E-04    1.02       0.0  T
   2   -196.8733102 -0.559396E-09  0.217E-04    1.02      45.1  T
   3   -196.8733102 -0.174654E-08  0.165E-04    1.02      59.5  T
     SCC iter.                  ...        0 min,  0.047 sec
     gradient                   ...        0 min,  0.035 sec
 * total energy  :  -193.9883395 Eh     change       -0.8665722E-08 Eh
   gradient norm :     0.2948683 Eh/α   predicted     0.0000000E+00 (-100.00%)
   displ. norm   :     0.4675106 α      lambda       -0.9849820E-01
   maximum displ.:     0.1007052 α      in ANC's #166, #84, #185, ...

........................................................................
.............................. CYCLE    2 ..............................
........................................................................
   1   -197.0042209 -0.197004E+03  0.360E-01    1.00       0.0  T
   2   -197.0056000 -0.137917E-02  0.207E-01    1.02       1.0  T
   3   -197.0053458  0.254223E-03  0.114E-01    1.02       1.0  T
   4   -197.0059175 -0.571689E-03  0.474E-02    1.02       1.0  T
   5   -197.0060324 -0.114861E-03  0.230E-02    1.03       1.0  T
   6   -197.0060565 -0.241770E-04  0.124E-02    1.02       1.0  T
   7   -197.0060681 -0.115336E-04  0.621E-03    1.02       1.6  T
   8   -197.0060691 -0.101988E-05  0.441E-03    1.02       2.2  T
   9   -197.0060695 -0.417373E-06  0.299E-03    1.02       3.3  T
  10   -197.0060699 -0.386725E-06  0.190E-03    1.02       5.2  T
  11   -197.0060700 -0.120564E-06  0.122E-03    1.02       8.0  T
  12   -197.0060701 -0.482690E-07  0.597E-04    1.02      16.4  T
  13   -197.0060701 -0.196623E-07  0.263E-04    1.02      37.3  T
     SCC iter.                  ...        0 min,  0.188 sec
     gradient                   ...        0 min,  0.035 sec
 * total energy  :  -194.0593963 Eh     change       -0.7105683E-01 Eh
   gradient norm :     0.1349667 Eh/α   predicted    -0.6006093E-01 ( -15.47%)
   displ. norm   :     0.4589006 α      lambda       -0.3821070E-01
   maximum displ.:     0.1206664 α      in ANC's #51, #84, #60, ...

........................................................................
.............................. CYCLE    3 ..............................
........................................................................
   1   -197.0625785 -0.197063E+03  0.283E-01    0.97       0.0  T
   2   -197.0634022 -0.823739E-03  0.161E-01    1.02       1.0  T
   3   -197.0632015  0.200692E-03  0.934E-02    1.00       1.0  T
   4   -197.0636274 -0.425910E-03  0.370E-02    1.02       1.0  T
   5   -197.0637052 -0.778182E-04  0.196E-02    1.01       1.0  T
   6   -197.0637253 -0.201030E-04  0.105E-02    1.01       1.0  T
   7   -197.0637304 -0.509616E-05  0.595E-03    1.01       1.6  T
   8   -197.0637315 -0.103317E-05  0.442E-03    1.01       2.2  T
   9   -197.0637321 -0.603779E-06  0.295E-03    1.01       3.3  T
  10   -197.0637325 -0.395284E-06  0.170E-03    1.01       5.8  T
  11   -197.0637326 -0.911657E-07  0.972E-04    1.01      10.1  T
  12   -197.0637326 -0.277116E-07  0.536E-04    1.01      18.3  T
     SCC iter.                  ...        0 min,  0.172 sec
     gradient                   ...        0 min,  0.035 sec
 * total energy  :  -194.0827375 Eh     change       -0.2334117E-01 Eh
   gradient norm :     0.0370833 Eh/α   predicted    -0.2312876E-01 (  -0.91%)
   displ. norm   :     0.4471010 α      lambda       -0.8433938E-02
   maximum displ.:     0.1636250 α      in ANC's #51, #45, #38, ...

........................................................................
.............................. CYCLE    4 ..............................
........................................................................
   1   -197.0714861 -0.197071E+03  0.174E-01    1.01       0.0  T
   2   -197.0715388 -0.527043E-04  0.101E-01    1.02       1.0  T
   3   -197.0712145  0.324255E-03  0.557E-02    1.01       1.0  T
   4   -197.0715798 -0.365280E-03  0.147E-02    1.02       1.0  T
   5   -197.0716007 -0.209137E-04  0.764E-03    1.02       1.3  T
   6   -197.0716036 -0.290848E-05  0.380E-03    1.02       2.6  T
   7   -197.0716043 -0.645958E-06  0.250E-03    1.02       3.9  T
   8   -197.0716044 -0.164879E-06  0.183E-03    1.02       5.4  T
   9   -197.0716045 -0.987978E-07  0.122E-03    1.02       8.1  T
  10   -197.0716046 -0.640762E-07  0.597E-04    1.02      16.4  T
  11   -197.0716046 -0.137606E-07  0.381E-04    1.02      25.7  T
     SCC iter.                  ...        0 min,  0.163 sec
     gradient                   ...        0 min,  0.035 sec
 * total energy  :  -194.0880133 Eh     change       -0.5275804E-02 Eh
   gradient norm :     0.0214107 Eh/α   predicted    -0.5059962E-02 (  -4.09%)
   displ. norm   :     0.5905604 α      lambda       -0.6509711E-02
   maximum displ.:     0.1701460 α      in ANC's #51, #26, #22, ...

........................................................................
.............................. CYCLE    5 ..............................
........................................................................
   1   -197.0535676 -0.197054E+03  0.379E-01    1.00       0.0  T
   2   -197.0537813 -0.213661E-03  0.212E-01    1.02       1.0  T
   3   -197.0531005  0.680729E-03  0.756E-02    0.99       1.0  T
   4   -197.0538942 -0.793702E-03  0.171E-02    1.02       1.0  T
   5   -197.0539157 -0.215014E-04  0.999E-03    1.01       1.0  T
   6   -197.0539208 -0.508316E-05  0.471E-03    1.02       2.1  T
   7   -197.0539225 -0.163710E-05  0.208E-03    1.01       4.7  T
   8   -197.0539226 -0.145082E-06  0.144E-03    1.01       6.8  T
   9   -197.0539227 -0.569094E-07  0.955E-04    1.01      10.3  T
  10   -197.0539227 -0.265737E-07  0.619E-04    1.01      15.8  T
     SCC iter.                  ...        0 min,  0.149 sec
     gradient                   ...        0 min,  0.035 sec
 * total energy  :  -194.0889171 Eh     change       -0.9038073E-03 Eh
   gradient norm :     0.0452462 Eh/α   predicted    -0.4390073E-02 ( 385.73%)
   displ. norm   :     0.2993146 α      lambda       -0.5289281E-02
   maximum displ.:     0.1405170 α      in ANC's #25, #8, #45, ...

........................................................................
.............................. CYCLE    6 ..............................
........................................................................
   1   -197.0687309 -0.197069E+03  0.241E-01    1.02       0.0  T
   2   -197.0688204 -0.895526E-04  0.134E-01    1.03       1.0  T
   3   -197.0687575  0.629182E-04  0.268E-02    1.02       1.0  T
   4   -197.0688503 -0.928183E-04  0.843E-03    1.03       1.2  T
   5   -197.0688551 -0.482067E-05  0.443E-03    1.02       2.2  T
   6   -197.0688564 -0.121445E-05  0.173E-03    1.02       5.7  T
   7   -197.0688565 -0.167007E-06  0.823E-04    1.02      11.9  T
   8   -197.0688566 -0.304337E-07  0.454E-04    1.02      21.6  T
     SCC iter.                  ...        0 min,  0.118 sec
     gradient                   ...        0 min,  0.035 sec
 * total energy  :  -194.0911991 Eh     change       -0.2282003E-02 Eh
   gradient norm :     0.0262075 Eh/α   predicted    -0.2881581E-02 (  26.27%)
   displ. norm   :     0.3680101 α      lambda       -0.3255688E-02
   maximum displ.:     0.1256204 α      in ANC's #13, #30, #21, ...

........................................................................
.............................. CYCLE    7 ..............................
........................................................................
   1   -197.0660300 -0.197066E+03  0.285E-01    1.03       0.0  T
   2   -197.0661429 -0.112863E-03  0.159E-01    1.02       1.0  T
   3   -197.0658194  0.323454E-03  0.600E-02    1.03       1.0  T
   4   -197.0662100 -0.390540E-03  0.106E-02    1.03       1.0  T
   5   -197.0662139 -0.398074E-05  0.664E-03    1.02       1.5  T
   6   -197.0662167 -0.274866E-05  0.286E-03    1.02       3.4  T
   7   -197.0662171 -0.410500E-06  0.154E-03    1.02       6.4  T
   8   -197.0662172 -0.921424E-07  0.988E-04    1.03       9.9  T
   9   -197.0662172 -0.284162E-07  0.702E-04    1.02      14.0  T
     SCC iter.                  ...        0 min,  0.133 sec
     gradient                   ...        0 min,  0.035 sec
 * total energy  :  -194.0906554 Eh     change        0.5436821E-03 Eh
   gradient norm :     0.0288972 Eh/α   predicted    -0.1848320E-02 (-439.96%)
   displ. norm   :     0.2229003 α      lambda       -0.3487125E-02
   maximum displ.:     0.0843017 α      in ANC's #25, #13, #22, ...

........................................................................
.............................. CYCLE    8 ..............................
........................................................................
   1   -197.0698817 -0.197070E+03  0.181E-01    1.02       0.0  T
   2   -197.0699251 -0.434543E-04  0.101E-01    1.03       1.0  T
   3   -197.0698264  0.986895E-04  0.337E-02    1.02       1.0  T
   4   -197.0699500 -0.123606E-03  0.602E-03    1.02       1.6  T
   5   -197.0699511 -0.103189E-05  0.390E-03    1.02       2.5  T
   6   -197.0699519 -0.798785E-06  0.152E-03    1.02       6.4  T
   7   -197.0699520 -0.170720E-06  0.699E-04    1.02      14.0  T
   8   -197.0699521 -0.229739E-07  0.412E-04    1.02      23.8  T
     SCC iter.                  ...        0 min,  0.120 sec
     gradient                   ...        0 min,  0.035 sec
 * total energy  :  -194.0926963 Eh     change       -0.2040836E-02 Eh
   gradient norm :     0.0123125 Eh/α   predicted    -0.1830198E-02 ( -10.32%)
   displ. norm   :     0.3192256 α      lambda       -0.1099001E-02
   maximum displ.:     0.1542693 α      in ANC's #13, #22, #10, ...

........................................................................
.............................. CYCLE    9 ..............................
........................................................................
   1   -197.0604991 -0.197060E+03  0.147E-01    1.02       0.0  T
   2   -197.0605257 -0.266012E-04  0.818E-02    1.03       1.0  T
   3   -197.0603887  0.137011E-03  0.324E-02    1.02       1.0  T
   4   -197.0605447 -0.156019E-03  0.502E-03    1.02       2.0  T
   5   -197.0605456 -0.932165E-06  0.308E-03    1.02       3.2  T
   6   -197.0605462 -0.595406E-06  0.114E-03    1.02       8.6  T
   7   -197.0605463 -0.691973E-07  0.512E-04    1.02      19.2  T
   8   -197.0605463 -0.161677E-07  0.271E-04    1.02      36.2  T
     SCC iter.                  ...        0 min,  0.119 sec
     gradient                   ...        0 min,  0.035 sec
 * total energy  :  -194.0931362 Eh     change       -0.4399669E-03 Eh
   gradient norm :     0.0229751 Eh/α   predicted    -0.6055003E-03 (  37.62%)
   displ. norm   :     0.4022274 α      lambda       -0.1312198E-02
   maximum displ.:     0.2059561 α      in ANC's #13, #15, #25, ...

........................................................................
.............................. CYCLE   10 ..............................
........................................................................
   1   -197.0608623 -0.197061E+03  0.120E-01    1.02       0.0  T
   2   -197.0608791 -0.167818E-04  0.672E-02    1.02       1.0  T
   3   -197.0608156  0.635189E-04  0.231E-02    1.01       1.0  T
   4   -197.0608884 -0.728580E-04  0.506E-03    1.02       1.9  T
   5   -197.0608898 -0.135943E-05  0.318E-03    1.02       3.1  T
   6   -197.0608905 -0.696907E-06  0.107E-03    1.02       9.2  T
   7   -197.0608906 -0.776515E-07  0.547E-04    1.02      17.9  T
   8   -197.0608906 -0.185553E-07  0.309E-04    1.02      31.8  T
     SCC iter.                  ...        0 min,  0.119 sec
     gradient                   ...        0 min,  0.035 sec
 * total energy  :  -194.0939456 Eh     change       -0.8093814E-03 Eh
   gradient norm :     0.0154508 Eh/α   predicted    -0.7622506E-03 (  -5.82%)
   displ. norm   :     0.4125758 α      lambda       -0.8797207E-03
   maximum displ.:     0.2221231 α      in ANC's #13, #9, #15, ...

........................................................................
.............................. CYCLE   11 ..............................
........................................................................
   1   -197.0663342 -0.197066E+03  0.856E-02    1.02       0.0  T
   2   -197.0663433 -0.919375E-05  0.481E-02    1.02       1.0  T
   3   -197.0663124  0.309659E-04  0.164E-02    1.02       1.0  T
   4   -197.0663481 -0.357554E-04  0.407E-03    1.02       2.4  T
   5   -197.0663490 -0.813902E-06  0.231E-03    1.02       4.3  T
   6   -197.0663493 -0.335561E-06  0.959E-04    1.02      10.2  T
   7   -197.0663494 -0.768062E-07  0.494E-04    1.02      19.9  T
     SCC iter.                  ...        0 min,  0.102 sec
     gradient                   ...        0 min,  0.035 sec
 * total energy  :  -194.0945653 Eh     change       -0.6197408E-03 Eh
   gradient norm :     0.0100649 Eh/α   predicted    -0.5147347E-03 ( -16.94%)
   displ. norm   :     0.5060220 α      lambda       -0.7347293E-03
   maximum displ.:     0.2670721 α      in ANC's #13, #10, #9, ...

........................................................................
.............................. CYCLE   12 ..............................
........................................................................
   1   -197.0642799 -0.197064E+03  0.945E-02    1.02       0.0  T
   2   -197.0642875 -0.751942E-05  0.534E-02    1.02       1.0  T
   3   -197.0642197  0.677471E-04  0.224E-02    1.01       1.0  T
   4   -197.0642948 -0.750580E-04  0.454E-03    1.02       2.2  T
   5   -197.0642955 -0.748890E-06  0.284E-03    1.02       3.4  T
   6   -197.0642962 -0.673533E-06  0.106E-03    1.02       9.2  T
   7   -197.0642963 -0.884911E-07  0.525E-04    1.02      18.7  T
   8   -197.0642963 -0.116215E-07  0.342E-04    1.02      28.7  T
     SCC iter.                  ...        0 min,  0.119 sec
     gradient                   ...        0 min,  0.035 sec
 * total energy  :  -194.0951288 Eh     change       -0.5634539E-03 Eh
   gradient norm :     0.0095375 Eh/α   predicted    -0.4614348E-03 ( -18.11%)
   displ. norm   :     0.5629022 α      lambda       -0.7293951E-03
   maximum displ.:     0.2932472 α      in ANC's #13, #10, #8, ...

........................................................................
.............................. CYCLE   13 ..............................
........................................................................
   1   -197.0670346 -0.197067E+03  0.849E-02    1.02       0.0  T
   2   -197.0670409 -0.636359E-05  0.483E-02    1.02       1.0  T
   3   -197.0669842  0.567146E-04  0.227E-02    1.02       1.0  T
   4   -197.0670471 -0.629255E-04  0.414E-03    1.02       2.4  T
   5   -197.0670476 -0.501109E-06  0.261E-03    1.02       3.8  T
   6   -197.0670483 -0.626571E-06  0.843E-04    1.02      11.6  T
   7   -197.0670483 -0.386623E-07  0.432E-04    1.02      22.7  T
     SCC iter.                  ...        0 min,  0.102 sec
     gradient                   ...        0 min,  0.035 sec
 * total energy  :  -194.0956205 Eh     change       -0.4916665E-03 Eh
   gradient norm :     0.0133184 Eh/α   predicted    -0.4802566E-03 (  -2.32%)
   displ. norm   :     0.5349992 α      lambda       -0.6482578E-03
   maximum displ.:     0.2708203 α      in ANC's #13, #10, #8, ...

........................................................................
.............................. CYCLE   14 ..............................
........................................................................
   1   -197.0653176 -0.197065E+03  0.938E-02    1.02       0.0  T
   2   -197.0653263 -0.869683E-05  0.529E-02    1.02       1.0  T
   3   -197.0652692  0.570486E-04  0.214E-02    1.01       1.0  T
   4   -197.0653331 -0.638954E-04  0.399E-03    1.01       2.5  T
   5   -197.0653337 -0.566974E-06  0.255E-03    1.01       3.8  T
   6   -197.0653343 -0.557384E-06  0.108E-03    1.01       9.1  T
   7   -197.0653343 -0.817793E-07  0.512E-04    1.01      19.2  T
   8   -197.0653344 -0.126376E-07  0.331E-04    1.01      29.6  T
     SCC iter.                  ...        0 min,  0.116 sec
     gradient                   ...        0 min,  0.035 sec
 * total energy  :  -194.0960778 Eh     change       -0.4573451E-03 Eh
   gradient norm :     0.0078130 Eh/α   predicted    -0.4169093E-03 (  -8.84%)
   displ. norm   :     0.5048289 α      lambda       -0.4562740E-03
   maximum displ.:     0.2456187 α      in ANC's #13, #8, #10, ...

........................................................................
.............................. CYCLE   15 ..............................
........................................................................
   1   -197.0665850 -0.197067E+03  0.638E-02    1.01       0.0  T
   2   -197.0665890 -0.399603E-05  0.364E-02    1.01       1.0  T
   3   -197.0665656  0.233324E-04  0.146E-02    1.01       1.0  T
   4   -197.0665920 -0.263678E-04  0.301E-03    1.01       3.3  T
   5   -197.0665923 -0.247384E-06  0.191E-03    1.01       5.1  T
   6   -197.0665925 -0.280448E-06  0.745E-04    1.01      13.2  T
   7   -197.0665926 -0.385328E-07  0.392E-04    1.01      25.0  T
     SCC iter.                  ...        0 min,  0.103 sec
     gradient                   ...        0 min,  0.035 sec
 * total energy  :  -194.0964511 Eh     change       -0.3732998E-03 Eh
   gradient norm :     0.0068400 Eh/α   predicted    -0.2862832E-03 ( -23.31%)
   displ. norm   :     0.5494407 α      lambda       -0.4933369E-03
   maximum displ.:     0.2407088 α      in ANC's #13, #8, #1, ...

........................................................................
.............................. CYCLE   16 ..............................
........................................................................
   1   -197.0694503 -0.197069E+03  0.725E-02    1.01       0.0  T
   2   -197.0694566 -0.632060E-05  0.415E-02    1.01       1.0  T
   3   -197.0694140  0.425665E-04  0.189E-02    1.01       1.0  T
   4   -197.0694619 -0.478483E-04  0.361E-03    1.01       2.7  T
   5   -197.0694625 -0.668900E-06  0.204E-03    1.01       4.8  T
   6   -197.0694628 -0.262353E-06  0.998E-04    1.01       9.8  T
   7   -197.0694629 -0.707954E-07  0.527E-04    1.01      18.6  T
     SCC iter.                  ...        0 min,  0.104 sec
     gradient                   ...        0 min,  0.035 sec
 * total energy  :  -194.0968319 Eh     change       -0.3808160E-03 Eh
   gradient norm :     0.0050600 Eh/α   predicted    -0.3211377E-03 ( -15.67%)
   displ. norm   :     0.5407968 α      lambda       -0.3572283E-03
   maximum displ.:     0.2225091 α      in ANC's #13, #8, #1, ...

........................................................................
.............................. CYCLE   17 ..............................
........................................................................
   1   -197.0676152 -0.197068E+03  0.767E-02    1.01       0.0  T
   2   -197.0676201 -0.486944E-05  0.439E-02    1.01       1.0  T
   3   -197.0675811  0.390068E-04  0.173E-02    1.01       1.0  T
   4   -197.0676243 -0.432527E-04  0.351E-03    1.01       2.8  T
   5   -197.0676248 -0.510173E-06  0.226E-03    1.01       4.3  T
   6   -197.0676252 -0.392351E-06  0.797E-04    1.01      12.3  T
   7   -197.0676253 -0.492627E-07  0.365E-04    1.01      26.9  T
     SCC iter.                  ...        0 min,  0.103 sec
     gradient                   ...        0 min,  0.035 sec
 * total energy  :  -194.0971053 Eh     change       -0.2733718E-03 Eh
   gradient norm :     0.0051806 Eh/α   predicted    -0.2308554E-03 ( -15.55%)
   displ. norm   :     0.4729258 α      lambda       -0.2643538E-03
   maximum displ.:     0.1671704 α      in ANC's #8, #13, #1, ...

........................................................................
.............................. CYCLE   18 ..............................
........................................................................
   1   -197.0683713 -0.197068E+03  0.672E-02    1.00       0.0  T
   2   -197.0683740 -0.261760E-05  0.389E-02    1.01       1.0  T
   3   -197.0683141  0.598505E-04  0.204E-02    1.00       1.0  T
   4   -197.0683794 -0.653367E-04  0.318E-03    1.01       3.1  T
   5   -197.0683800 -0.546057E-06  0.187E-03    1.01       5.3  T
   6   -197.0683802 -0.195805E-06  0.723E-04    1.01      13.6  T
   7   -197.0683802 -0.423856E-07  0.308E-04    1.01      31.9  T
     SCC iter.                  ...        0 min,  0.103 sec
     gradient                   ...        0 min,  0.035 sec
 * total energy  :  -194.0973059 Eh     change       -0.2006470E-03 Eh
   gradient norm :     0.0049676 Eh/α   predicted    -0.1617412E-03 ( -19.39%)
   displ. norm   :     0.4278403 α      lambda       -0.2038726E-03
   maximum displ.:     0.1614908 α      in ANC's #1, #2, #8, ...

........................................................................
.............................. CYCLE   19 ..............................
........................................................................
   1   -197.0669224 -0.197067E+03  0.647E-02    1.01       0.0  T
   2   -197.0669247 -0.223869E-05  0.374E-02    1.01       1.0  T
   3   -197.0668688  0.559291E-04  0.195E-02    1.00       1.0  T
   4   -197.0669295 -0.607688E-04  0.315E-03    1.01       3.1  T
   5   -197.0669302 -0.669419E-06  0.166E-03    1.01       5.9  T
   6   -197.0669303 -0.121254E-06  0.677E-04    1.01      14.5  T
   7   -197.0669303 -0.278241E-07  0.313E-04    1.01      31.4  T
     SCC iter.                  ...        0 min,  0.104 sec
     gradient                   ...        0 min,  0.035 sec
 * total energy  :  -194.0974655 Eh     change       -0.1595620E-03 Eh
   gradient norm :     0.0045615 Eh/α   predicted    -0.1206015E-03 ( -24.42%)
   displ. norm   :     0.3848347 α      lambda       -0.1910344E-03
   maximum displ.:     0.1641437 α      in ANC's #2, #1, #8, ...

........................................................................
.............................. CYCLE   20 ..............................
........................................................................
   1   -197.0686029 -0.197069E+03  0.616E-02    1.01       0.0  T
   2   -197.0686046 -0.166363E-05  0.355E-02    1.01       1.0  T
   3   -197.0685540  0.505376E-04  0.186E-02    1.01       1.0  T
   4   -197.0686090 -0.549835E-04  0.289E-03    1.01       3.4  T
   5   -197.0686095 -0.478476E-06  0.166E-03    1.01       5.9  T
   6   -197.0686096 -0.132679E-06  0.694E-04    1.01      14.1  T
   7   -197.0686096 -0.336323E-07  0.337E-04    1.01      29.1  T
     SCC iter.                  ...        0 min,  0.102 sec
     gradient                   ...        0 min,  0.035 sec
 * total energy  :  -194.0976153 Eh     change       -0.1497651E-03 Eh
   gradient norm :     0.0045023 Eh/α   predicted    -0.1096642E-03 ( -26.78%)
   displ. norm   :     0.4079799 α      lambda       -0.1895321E-03
   maximum displ.:     0.1827408 α      in ANC's #1, #2, #8, ...
 * RMSD in coord.:     0.6251991 α      energy gain  -0.1092758E+00 Eh

generating ANC from model Hessian ...
Using Lindh-Hessian (1995)
 Shifting diagonal of input Hessian by   9.991834928571487E-003
 Lowest  eigenvalues of input Hessian
    0.000000    0.000000    0.000000    0.000000    0.000000    0.000000
    0.010000    0.010020    0.010040    0.010059    0.010117    0.010169
    0.010265    0.010385    0.010431    0.010603    0.010802    0.010962
 Highest eigenvalues
    2.286949    2.291806    2.598221    2.600784    2.652895    2.660444
 

........................................................................
.............................. CYCLE   21 ..............................
........................................................................
   1   -197.0672004 -0.197067E+03  0.668E-02    1.01       0.0  T
   2   -197.0672033 -0.292475E-05  0.381E-02    1.02       1.0  T
   3   -197.0671709  0.324253E-04  0.150E-02    1.01       1.0  T
   4   -197.0672062 -0.353204E-04  0.301E-03    1.01       3.3  T
   5   -197.0672068 -0.524437E-06  0.175E-03    1.01       5.6  T
   6   -197.0672070 -0.201440E-06  0.728E-04    1.01      13.5  T
   7   -197.0672070 -0.346629E-07  0.327E-04    1.01      30.0  T
     SCC iter.                  ...        0 min,  0.104 sec
     gradient                   ...        0 min,  0.035 sec
 * total energy  :  -194.0977669 Eh     change       -0.1516062E-03 Eh
   gradient norm :     0.0045232 Eh/α   predicted     0.0000000E+00 (-100.00%)
   displ. norm   :     0.0692081 α      lambda       -0.8247796E-04
   maximum displ.:     0.0263584 α      in ANC's #2, #1, #11, ...

........................................................................
.............................. CYCLE   22 ..............................
........................................................................
   1   -197.0683845 -0.197068E+03  0.296E-02    1.01       0.0  T
   2   -197.0683855 -0.100794E-05  0.166E-02    1.01       1.0  T
   3   -197.0683834  0.209972E-05  0.530E-03    1.01       1.9  T
   4   -197.0683861 -0.264503E-05  0.875E-04    1.01      11.2  T
   5   -197.0683861 -0.145414E-07  0.589E-04    1.01      16.7  T
   6   -197.0683861 -0.185967E-07  0.266E-04    1.01      36.9  T
     SCC iter.                  ...        0 min,  0.089 sec
     gradient                   ...        0 min,  0.035 sec
 * total energy  :  -194.0978296 Eh     change       -0.6274517E-04 Eh
   gradient norm :     0.0025326 Eh/α   predicted    -0.4608706E-04 ( -26.55%)
   displ. norm   :     0.1833152 α      lambda       -0.1602337E-03
   maximum displ.:     0.0861234 α      in ANC's #11, #2, #1, ...

........................................................................
.............................. CYCLE   23 ..............................
........................................................................
   1   -197.0702164 -0.197070E+03  0.518E-02    1.02       0.0  T
   2   -197.0702190 -0.264678E-05  0.294E-02    1.01       1.0  T
   3   -197.0701860  0.330586E-04  0.159E-02    1.02       1.0  T
   4   -197.0702224 -0.364100E-04  0.269E-03    1.01       3.6  T
   5   -197.0702229 -0.558135E-06  0.142E-03    1.01       6.9  T
   6   -197.0702230 -0.910842E-07  0.581E-04    1.01      16.9  T
   7   -197.0702230 -0.126565E-07  0.329E-04    1.01      29.8  T
     SCC iter.                  ...        0 min,  0.104 sec
     gradient                   ...        0 min,  0.035 sec
 * total energy  :  -194.0979229 Eh     change       -0.9328219E-04 Eh
   gradient norm :     0.0051293 Eh/α   predicted    -0.8281002E-04 ( -11.23%)
   displ. norm   :     0.1976814 α      lambda       -0.1274612E-03
   maximum displ.:     0.0859174 α      in ANC's #1, #2, #11, ...

........................................................................
.............................. CYCLE   24 ..............................
........................................................................
   1   -197.0703920 -0.197070E+03  0.397E-02    1.01       0.0  T
   2   -197.0703929 -0.946392E-06  0.228E-02    1.01       1.0  T
   3   -197.0703703  0.225814E-04  0.127E-02    1.02       1.0  T
   4   -197.0703949 -0.246317E-04  0.205E-03    1.01       4.8  T
   5   -197.0703952 -0.280627E-06  0.108E-03    1.01       9.1  T
   6   -197.0703953 -0.440528E-07  0.481E-04    1.01      20.4  T
   7   -197.0703953 -0.968390E-08  0.303E-04    1.01      32.4  T
     SCC iter.                  ...        0 min,  0.102 sec
     gradient                   ...        0 min,  0.035 sec
 * total energy  :  -194.0979955 Eh     change       -0.7263182E-04 Eh
   gradient norm :     0.0052938 Eh/α   predicted    -0.6622111E-04 (  -8.83%)
   displ. norm   :     0.2253923 α      lambda       -0.1338508E-03
   maximum displ.:     0.1025448 α      in ANC's #1, #11, #2, ...

........................................................................
.............................. CYCLE   25 ..............................
........................................................................
   1   -197.0691668 -0.197069E+03  0.417E-02    1.01       0.0  T
   2   -197.0691686 -0.185172E-05  0.237E-02    1.01       1.0  T
   3   -197.0691608  0.784507E-05  0.838E-03    1.01       1.2  T
   4   -197.0691698 -0.895753E-05  0.185E-03    1.01       5.3  T
   5   -197.0691700 -0.204873E-06  0.112E-03    1.01       8.7  T
   6   -197.0691700 -0.727078E-07  0.469E-04    1.01      20.9  T
   7   -197.0691700 -0.165940E-07  0.239E-04    1.01      41.1  T
     SCC iter.                  ...        0 min,  0.105 sec
     gradient                   ...        0 min,  0.035 sec
 * total energy  :  -194.0980955 Eh     change       -0.1000027E-03 Eh
   gradient norm :     0.0049764 Eh/α   predicted    -0.7032625E-04 ( -29.68%)
   displ. norm   :     0.3374686 α      lambda       -0.1872838E-03
   maximum displ.:     0.1583235 α      in ANC's #1, #2, #11, ...

........................................................................
.............................. CYCLE   26 ..............................
........................................................................
   1   -197.0678020 -0.197068E+03  0.670E-02    1.01       0.0  T
   2   -197.0678066 -0.461966E-05  0.377E-02    1.01       1.0  T
   3   -197.0677931  0.135418E-04  0.109E-02    1.01       1.0  T
   4   -197.0678090 -0.159671E-04  0.247E-03    1.01       4.0  T
   5   -197.0678093 -0.233869E-06  0.160E-03    1.01       6.1  T
   6   -197.0678094 -0.156914E-06  0.615E-04    1.01      16.0  T
   7   -197.0678094 -0.316611E-07  0.257E-04    1.01      38.2  T
     SCC iter.                  ...        0 min,  0.103 sec
     gradient                   ...        0 min,  0.035 sec
 * total energy  :  -194.0982224 Eh     change       -0.1269038E-03 Eh
   gradient norm :     0.0063075 Eh/α   predicted    -0.1043063E-03 ( -17.81%)
   displ. norm   :     0.3962650 α      lambda       -0.2048555E-03
   maximum displ.:     0.1898492 α      in ANC's #1, #2, #11, ...

........................................................................
.............................. CYCLE   27 ..............................
........................................................................
   1   -197.0684584 -0.197068E+03  0.533E-02    1.02       0.0  T
   2   -197.0684606 -0.225102E-05  0.306E-02    1.02       1.0  T
   3   -197.0684543  0.631658E-05  0.782E-03    1.02       1.3  T
   4   -197.0684614 -0.713382E-05  0.231E-03    1.02       4.2  T
   5   -197.0684617 -0.243994E-06  0.133E-03    1.02       7.4  T
   6   -197.0684618 -0.140601E-06  0.576E-04    1.02      17.0  T
   7   -197.0684618 -0.283352E-07  0.276E-04    1.02      35.5  T
     SCC iter.                  ...        0 min,  0.106 sec
     gradient                   ...        0 min,  0.035 sec
 * total energy  :  -194.0983428 Eh     change       -0.1203266E-03 Eh
   gradient norm :     0.0061717 Eh/α   predicted    -0.1185145E-03 (  -1.51%)
   displ. norm   :     0.3721832 α      lambda       -0.1930247E-03
   maximum displ.:     0.1827935 α      in ANC's #1, #2, #11, ...

........................................................................
.............................. CYCLE   28 ..............................
........................................................................
   1   -197.0674143 -0.197067E+03  0.752E-02    1.02       0.0  T
   2   -197.0674202 -0.595092E-05  0.421E-02    1.02       1.0  T
   3   -197.0674070  0.132844E-04  0.116E-02    1.02       1.0  T
   4   -197.0674234 -0.163903E-04  0.246E-03    1.02       4.0  T
   5   -197.0674234 -0.935842E-07  0.156E-03    1.02       6.3  T
   6   -197.0674236 -0.175224E-06  0.523E-04    1.02      18.8  T
   7   -197.0674236 -0.189867E-07  0.249E-04    1.02      39.3  T
     SCC iter.                  ...        0 min,  0.103 sec
     gradient                   ...        0 min,  0.035 sec
 * total energy  :  -194.0984276 Eh     change       -0.8478877E-04 Eh
   gradient norm :     0.0080382 Eh/α   predicted    -0.1098865E-03 (  29.60%)
   displ. norm   :     0.3176732 α      lambda       -0.2521973E-03
   maximum displ.:     0.1606368 α      in ANC's #1, #2, #10, ...

........................................................................
.............................. CYCLE   29 ..............................
........................................................................
   1   -197.0683373 -0.197068E+03  0.593E-02    1.02       0.0  T
   2   -197.0683402 -0.291802E-05  0.335E-02    1.02       1.0  T
   3   -197.0683319  0.827889E-05  0.839E-03    1.02       1.2  T
   4   -197.0683416 -0.970755E-05  0.212E-03    1.02       4.6  T
   5   -197.0683418 -0.148757E-06  0.130E-03    1.02       7.5  T
   6   -197.0683419 -0.128172E-06  0.477E-04    1.02      20.6  T
   7   -197.0683419 -0.164669E-07  0.203E-04    1.02      48.3  T
     SCC iter.                  ...        0 min,  0.103 sec
     gradient                   ...        0 min,  0.035 sec
 * total energy  :  -194.0985890 Eh     change       -0.1614903E-03 Eh
   gradient norm :     0.0052667 Eh/α   predicted    -0.1388295E-03 ( -14.03%)
   displ. norm   :     0.3391953 α      lambda       -0.1360682E-03
   maximum displ.:     0.1780529 α      in ANC's #1, #2, #11, ...

........................................................................
.............................. CYCLE   30 ..............................
........................................................................
   1   -197.0686931 -0.197069E+03  0.405E-02    1.02       0.0  T
   2   -197.0686938 -0.731944E-06  0.234E-02    1.02       1.0  T
   3   -197.0686910  0.283801E-05  0.519E-03    1.02       1.9  T
   4   -197.0686941 -0.315776E-05  0.155E-03    1.02       6.3  T
   5   -197.0686942 -0.518756E-07  0.994E-04    1.02       9.9  T
   6   -197.0686943 -0.105029E-06  0.316E-04    1.02      31.0  T
     SCC iter.                  ...        0 min,  0.088 sec
     gradient                   ...        0 min,  0.035 sec
 * total energy  :  -194.0987034 Eh     change       -0.1143432E-03 Eh
   gradient norm :     0.0038623 Eh/α   predicted    -0.7586289E-04 ( -33.65%)
   displ. norm   :     0.4145016 α      lambda       -0.1755014E-03
   maximum displ.:     0.2247282 α      in ANC's #1, #2, #7, ...

........................................................................
.............................. CYCLE   31 ..............................
........................................................................
   1   -197.0705573 -0.197071E+03  0.489E-02    1.02       0.0  T
   2   -197.0705587 -0.135711E-05  0.283E-02    1.02       1.0  T
   3   -197.0705512  0.746942E-05  0.777E-03    1.02       1.3  T
   4   -197.0705593 -0.807716E-05  0.216E-03    1.02       4.5  T
   5   -197.0705595 -0.252238E-06  0.126E-03    1.02       7.8  T
   6   -197.0705597 -0.128472E-06  0.514E-04    1.02      19.1  T
   7   -197.0705597 -0.180324E-07  0.277E-04    1.02      35.4  T
     SCC iter.                  ...        0 min,  0.103 sec
     gradient                   ...        0 min,  0.035 sec
 * total energy  :  -194.0988510 Eh     change       -0.1476092E-03 Eh
   gradient norm :     0.0037771 Eh/α   predicted    -0.1028302E-03 ( -30.34%)
   displ. norm   :     0.5052225 α      lambda       -0.1845941E-03
   maximum displ.:     0.2772998 α      in ANC's #1, #2, #7, ...

........................................................................
.............................. CYCLE   32 ..............................
........................................................................
   1   -197.0700141 -0.197070E+03  0.587E-02    1.02       0.0  T
   2   -197.0700163 -0.220049E-05  0.338E-02    1.03       1.0  T
   3   -197.0700090  0.729795E-05  0.834E-03    1.02       1.2  T
   4   -197.0700171 -0.814777E-05  0.240E-03    1.03       4.1  T
   5   -197.0700174 -0.248944E-06  0.140E-03    1.02       7.0  T
   6   -197.0700175 -0.162904E-06  0.628E-04    1.03      15.6  T
   7   -197.0700176 -0.329844E-07  0.302E-04    1.03      32.5  T
     SCC iter.                  ...        0 min,  0.104 sec
     gradient                   ...        0 min,  0.035 sec
 * total energy  :  -194.0990101 Eh     change       -0.1590555E-03 Eh
   gradient norm :     0.0038477 Eh/α   predicted    -0.1158594E-03 ( -27.16%)
   displ. norm   :     0.5029154 α      lambda       -0.1788797E-03
   maximum displ.:     0.2819633 α      in ANC's #2, #1, #7, ...

........................................................................
.............................. CYCLE   33 ..............................
........................................................................
   1   -197.0704019 -0.197070E+03  0.564E-02    1.03       0.0  T
   2   -197.0704041 -0.215717E-05  0.325E-02    1.03       1.0  T
   3   -197.0703982  0.587766E-05  0.794E-03    1.03       1.2  T
   4   -197.0704050 -0.680458E-05  0.216E-03    1.03       4.5  T
   5   -197.0704051 -0.155093E-06  0.124E-03    1.03       7.9  T
   6   -197.0704052 -0.977912E-07  0.612E-04    1.03      16.0  T
   7   -197.0704053 -0.308259E-07  0.302E-04    1.03      32.5  T
     SCC iter.                  ...        0 min,  0.109 sec
     gradient                   ...        0 min,  0.035 sec
 * total energy  :  -194.0991664 Eh     change       -0.1563386E-03 Eh
   gradient norm :     0.0036526 Eh/α   predicted    -0.1120631E-03 ( -28.32%)
   displ. norm   :     0.5177734 α      lambda       -0.1814793E-03
   maximum displ.:     0.2963039 α      in ANC's #2, #1, #7, ...

........................................................................
.............................. CYCLE   34 ..............................
........................................................................
   1   -197.0702097 -0.197070E+03  0.564E-02    1.03       0.0  T
   2   -197.0702118 -0.210775E-05  0.324E-02    1.03       1.0  T
   3   -197.0702057  0.607545E-05  0.789E-03    1.03       1.2  T
   4   -197.0702127 -0.694700E-05  0.220E-03    1.03       4.5  T
   5   -197.0702129 -0.183405E-06  0.141E-03    1.03       7.0  T
   6   -197.0702130 -0.145462E-06  0.545E-04    1.03      18.0  T
   7   -197.0702130 -0.200230E-07  0.285E-04    1.03      34.4  T
     SCC iter.                  ...        0 min,  0.105 sec
     gradient                   ...        0 min,  0.035 sec
 * total energy  :  -194.0993285 Eh     change       -0.1621307E-03 Eh
   gradient norm :     0.0034855 Eh/α   predicted    -0.1150693E-03 ( -29.03%)
   displ. norm   :     0.5413412 α      lambda       -0.1958331E-03
   maximum displ.:     0.3146431 α      in ANC's #2, #1, #7, ...

........................................................................
.............................. CYCLE   35 ..............................
........................................................................
   1   -197.0706553 -0.197071E+03  0.577E-02    1.03       0.0  T
   2   -197.0706574 -0.210978E-05  0.331E-02    1.03       1.0  T
   3   -197.0706484  0.907897E-05  0.899E-03    1.03       1.1  T
   4   -197.0706585 -0.101565E-04  0.230E-03    1.03       4.3  T
   5   -197.0706587 -0.213727E-06  0.147E-03    1.03       6.7  T
   6   -197.0706589 -0.150949E-06  0.489E-04    1.03      20.1  T
   7   -197.0706589 -0.141203E-07  0.265E-04    1.03      37.0  T
     SCC iter.                  ...        0 min,  0.109 sec
     gradient                   ...        0 min,  0.035 sec
 * total energy  :  -194.0995042 Eh     change       -0.1757112E-03 Eh
   gradient norm :     0.0032422 Eh/α   predicted    -0.1266152E-03 ( -27.94%)
   displ. norm   :     0.5870717 α      lambda       -0.2095395E-03
   maximum displ.:     0.3451774 α      in ANC's #2, #1, #7, ...

........................................................................
.............................. CYCLE   36 ..............................
........................................................................
   1   -197.0699716 -0.197070E+03  0.627E-02    1.03       0.0  T
   2   -197.0699741 -0.248736E-05  0.359E-02    1.03       1.0  T
   3   -197.0699616  0.124889E-04  0.102E-02    1.03       1.0  T
   4   -197.0699757 -0.140329E-04  0.238E-03    1.03       4.1  T
   5   -197.0699758 -0.162114E-06  0.154E-03    1.03       6.4  T
   6   -197.0699760 -0.171349E-06  0.466E-04    1.03      21.1  T
   7   -197.0699760 -0.135372E-07  0.234E-04    1.03      41.9  T
     SCC iter.                  ...        0 min,  0.101 sec
     gradient                   ...        0 min,  0.035 sec
 * total energy  :  -194.0996918 Eh     change       -0.1876007E-03 Eh
   gradient norm :     0.0033741 Eh/α   predicted    -0.1408820E-03 ( -24.90%)
   displ. norm   :     0.6012454 α      lambda       -0.2116568E-03
   maximum displ.:     0.3577951 α      in ANC's #2, #1, #7, ...

........................................................................
.............................. CYCLE   37 ..............................
........................................................................
   1   -197.0704319 -0.197070E+03  0.637E-02    1.03       0.0  T
   2   -197.0704348 -0.287140E-05  0.364E-02    1.03       1.0  T
   3   -197.0704227  0.120695E-04  0.102E-02    1.03       1.0  T
   4   -197.0704365 -0.138232E-04  0.235E-03    1.03       4.2  T
   5   -197.0704366 -0.114357E-06  0.148E-03    1.03       6.6  T
   6   -197.0704368 -0.166992E-06  0.513E-04    1.03      19.1  T
   7   -197.0704368 -0.179897E-07  0.220E-04    1.03      44.6  T
     SCC iter.                  ...        0 min,  0.107 sec
     gradient                   ...        0 min,  0.035 sec
 * total energy  :  -194.0998781 Eh     change       -0.1863069E-03 Eh
   gradient norm :     0.0034922 Eh/α   predicted    -0.1440883E-03 ( -22.66%)
   displ. norm   :     0.6203423 α      lambda       -0.1965913E-03
   maximum displ.:     0.3747796 α      in ANC's #1, #2, #7, ...

........................................................................
.............................. CYCLE   38 ..............................
........................................................................
   1   -197.0683241 -0.197068E+03  0.666E-02    1.03       0.0  T
   2   -197.0683274 -0.329780E-05  0.380E-02    1.03       1.0  T
   3   -197.0683167  0.107804E-04  0.971E-03    1.03       1.0  T
   4   -197.0683292 -0.125850E-04  0.242E-03    1.03       4.1  T
   5   -197.0683294 -0.174480E-06  0.142E-03    1.03       6.9  T
   6   -197.0683296 -0.146126E-06  0.540E-04    1.03      18.2  T
   7   -197.0683296 -0.217541E-07  0.220E-04    1.03      44.6  T
     SCC iter.                  ...        0 min,  0.100 sec
     gradient                   ...        0 min,  0.035 sec
 * total energy  :  -194.1000491 Eh     change       -0.1709246E-03 Eh
   gradient norm :     0.0035634 Eh/α   predicted    -0.1361242E-03 ( -20.36%)
   displ. norm   :     0.5684832 α      lambda       -0.1805950E-03
   maximum displ.:     0.3505130 α      in ANC's #1, #2, #7, ...

........................................................................
.............................. CYCLE   39 ..............................
........................................................................
   1   -197.0702281 -0.197070E+03  0.597E-02    1.03       0.0  T
   2   -197.0702311 -0.291050E-05  0.341E-02    1.03       1.0  T
   3   -197.0702109  0.201073E-04  0.123E-02    1.03       1.0  T
   4   -197.0702333 -0.223168E-04  0.261E-03    1.03       3.8  T
   5   -197.0702336 -0.381501E-06  0.153E-03    1.03       6.4  T
   6   -197.0702338 -0.143462E-06  0.656E-04    1.03      14.9  T
   7   -197.0702338 -0.332058E-07  0.280E-04    1.03      35.1  T
     SCC iter.                  ...        0 min,  0.100 sec
     gradient                   ...        0 min,  0.035 sec
 * total energy  :  -194.1001982 Eh     change       -0.1490992E-03 Eh
   gradient norm :     0.0030484 Eh/α   predicted    -0.1194853E-03 ( -19.86%)
   displ. norm   :     0.5933605 α      lambda       -0.1609418E-03
   maximum displ.:     0.3719697 α      in ANC's #1, #2, #7, ...

........................................................................
.............................. CYCLE   40 ..............................
........................................................................
   1   -197.0678821 -0.197068E+03  0.625E-02    1.03       0.0  T
   2   -197.0678847 -0.259017E-05  0.358E-02    1.03       1.0  T
   3   -197.0678621  0.225550E-04  0.127E-02    1.03       1.0  T
   4   -197.0678869 -0.248159E-04  0.255E-03    1.03       3.9  T
   5   -197.0678873 -0.320929E-06  0.153E-03    1.03       6.4  T
   6   -197.0678874 -0.147119E-06  0.621E-04    1.03      15.8  T
   7   -197.0678874 -0.286737E-07  0.252E-04    1.03      38.9  T
     SCC iter.                  ...        0 min,  0.101 sec
     gradient                   ...        0 min,  0.035 sec
 * total energy  :  -194.1003338 Eh     change       -0.1356801E-03 Eh
   gradient norm :     0.0027294 Eh/α   predicted    -0.1088091E-03 ( -19.80%)
   displ. norm   :     0.4785404 α      lambda       -0.1323429E-03
   maximum displ.:     0.3092775 α      in ANC's #1, #2, #7, ...

........................................................................
.............................. CYCLE   41 ..............................
........................................................................
   1   -197.0686105 -0.197069E+03  0.502E-02    1.03       0.0  T
   2   -197.0686121 -0.161663E-05  0.288E-02    1.03       1.0  T
   3   -197.0685910  0.211200E-04  0.120E-02    1.03       1.0  T
   4   -197.0686141 -0.231654E-04  0.205E-03    1.03       4.8  T
   5   -197.0686143 -0.170749E-06  0.126E-03    1.03       7.8  T
   6   -197.0686144 -0.843310E-07  0.516E-04    1.03      19.0  T
   7   -197.0686144 -0.219038E-07  0.198E-04    1.03      49.5  T
     SCC iter.                  ...        0 min,  0.102 sec
     gradient                   ...        0 min,  0.034 sec
 * total energy  :  -194.1004500 Eh     change       -0.1161854E-03 Eh
   gradient norm :     0.0030039 Eh/α   predicted    -0.8132814E-04 ( -30.00%)
   displ. norm   :     0.5247593 α      lambda       -0.1492329E-03
   maximum displ.:     0.3445261 α      in ANC's #1, #2, #7, ...

........................................................................
.............................. CYCLE   42 ..............................
........................................................................
   1   -197.0704354 -0.197070E+03  0.536E-02    1.03       0.0  T
   2   -197.0704366 -0.119996E-05  0.310E-02    1.03       1.0  T
   3   -197.0704039  0.327468E-04  0.147E-02    1.02       1.0  T
   4   -197.0704395 -0.356460E-04  0.204E-03    1.03       4.8  T
   5   -197.0704396 -0.781891E-07  0.134E-03    1.03       7.3  T
   6   -197.0704397 -0.975218E-07  0.529E-04    1.03      18.5  T
   7   -197.0704397 -0.265721E-07  0.219E-04    1.03      44.7  T
     SCC iter.                  ...        0 min,  0.101 sec
     gradient                   ...        0 min,  0.035 sec
 * total energy  :  -194.1005762 Eh     change       -0.1261686E-03 Eh
   gradient norm :     0.0038180 Eh/α   predicted    -0.9516685E-04 ( -24.57%)
   displ. norm   :     0.5780603 α      lambda       -0.1666499E-03
   maximum displ.:     0.3834634 α      in ANC's #1, #2, #7, ...
 * RMSD in coord.:     0.8681761 α      energy gain  -0.2960932E-02 Eh

generating ANC from model Hessian ...
Using Lindh-Hessian (1995)
 Shifting diagonal of input Hessian by   9.993117329002713E-003
 Lowest  eigenvalues of input Hessian
    0.000000    0.000000    0.000000    0.000000    0.000000    0.000000
    0.010000    0.010025    0.010045    0.010069    0.010126    0.010168
    0.010249    0.010392    0.010436    0.010648    0.010919    0.010980
 Highest eigenvalues
    2.286769    2.292727    2.595424    2.598530    2.651218    2.658775
 

........................................................................
.............................. CYCLE   43 ..............................
........................................................................
   1   -197.0710434 -0.197071E+03  0.666E-02    1.03       0.0  T
   2   -197.0710467 -0.333701E-05  0.380E-02    1.03       1.0  T
   3   -197.0710285  0.181756E-04  0.116E-02    1.03       1.0  T
   4   -197.0710491 -0.206272E-04  0.229E-03    1.03       4.3  T
   5   -197.0710492 -0.219622E-07  0.152E-03    1.03       6.5  T
   6   -197.0710493 -0.172308E-06  0.539E-04    1.03      18.2  T
   7   -197.0710494 -0.232328E-07  0.235E-04    1.03      41.8  T
     SCC iter.                  ...        0 min,  0.102 sec
     gradient                   ...        0 min,  0.035 sec
 * total energy  :  -194.1007131 Eh     change       -0.1368887E-03 Eh
   gradient norm :     0.0045729 Eh/α   predicted     0.0000000E+00 (-100.00%)
   displ. norm   :     0.0425851 α      lambda       -0.1328346E-04
   maximum displ.:     0.0210728 α      in ANC's #1, #2, #11, ...

........................................................................
.............................. CYCLE   44 ..............................
........................................................................
   1   -197.0720202 -0.197072E+03  0.113E-02    1.03       0.0  T
   2   -197.0720204 -0.251538E-06  0.650E-03    1.03       1.5  T
   3   -197.0720191  0.134850E-05  0.349E-03    1.03       2.8  T
   4   -197.0720206 -0.150126E-05  0.830E-04    1.03      11.8  T
   5   -197.0720207 -0.660251E-07  0.398E-04    1.03      24.6  T
   6   -197.0720207 -0.103878E-07  0.157E-04    1.03      62.5  T
     SCC iter.                  ...        0 min,  0.089 sec
     gradient                   ...        0 min,  0.035 sec
 * total energy  :  -194.1007443 Eh     change       -0.3123273E-04 Eh
   gradient norm :     0.0019682 Eh/α   predicted    -0.2002155E-04 ( -35.90%)
   displ. norm   :     0.1974895 α      lambda       -0.7715321E-04
   maximum displ.:     0.0964970 α      in ANC's #1, #2, #11, ...

........................................................................
.............................. CYCLE   45 ..............................
........................................................................
   1   -197.0727604 -0.197073E+03  0.472E-02    1.03       0.0  T
   2   -197.0727629 -0.244527E-05  0.268E-02    1.03       1.0  T
   3   -197.0727209  0.419963E-04  0.175E-02    1.04       1.0  T
   4   -197.0727675 -0.466433E-04  0.310E-03    1.03       3.2  T
   5   -197.0727683 -0.780964E-06  0.141E-03    1.03       6.9  T
   6   -197.0727684 -0.895071E-07  0.561E-04    1.03      17.5  T
   7   -197.0727684 -0.145188E-07  0.241E-04    1.03      40.7  T
     SCC iter.                  ...        0 min,  0.102 sec
     gradient                   ...        0 min,  0.035 sec
 * total energy  :  -194.1007969 Eh     change       -0.5255576E-04 Eh
   gradient norm :     0.0067469 Eh/α   predicted    -0.3925081E-04 ( -25.32%)
   displ. norm   :     0.1120602 α      lambda       -0.6260889E-04
   maximum displ.:     0.0563516 α      in ANC's #1, #2, #11, ...

........................................................................
.............................. CYCLE   46 ..............................
........................................................................
   1   -197.0720367 -0.197072E+03  0.296E-02    1.03       0.0  T
   2   -197.0720378 -0.106609E-05  0.167E-02    1.03       1.0  T
   3   -197.0720324  0.538327E-05  0.714E-03    1.03       1.4  T
   4   -197.0720386 -0.625985E-05  0.112E-03    1.03       8.8  T
   5   -197.0720387 -0.441091E-07  0.661E-04    1.03      14.8  T
   6   -197.0720387 -0.256126E-07  0.273E-04    1.03      35.9  T
     SCC iter.                  ...        0 min,  0.088 sec
     gradient                   ...        0 min,  0.035 sec
 * total energy  :  -194.1008212 Eh     change       -0.2430435E-04 Eh
   gradient norm :     0.0050377 Eh/α   predicted    -0.3169984E-04 (  30.43%)
   displ. norm   :     0.0792851 α      lambda       -0.5767636E-04
   maximum displ.:     0.0421619 α      in ANC's #1, #2, #11, ...

........................................................................
.............................. CYCLE   47 ..............................
........................................................................
   1   -197.0712449 -0.197071E+03  0.265E-02    1.03       0.0  T
   2   -197.0712459 -0.979524E-06  0.147E-02    1.03       1.0  T
   3   -197.0712448  0.109773E-05  0.365E-03    1.03       2.7  T
   4   -197.0712463 -0.156325E-05  0.736E-04    1.03      13.3  T
   5   -197.0712463 -0.530744E-08  0.449E-04    1.03      21.8  T
   6   -197.0712464 -0.136311E-07  0.185E-04    1.03      52.9  T
     SCC iter.                  ...        0 min,  0.088 sec
     gradient                   ...        0 min,  0.035 sec
 * total energy  :  -194.1008568 Eh     change       -0.3558028E-04 Eh
   gradient norm :     0.0032135 Eh/α   predicted    -0.2901957E-04 ( -18.44%)
   displ. norm   :     0.1422222 α      lambda       -0.8459286E-04
   maximum displ.:     0.0761941 α      in ANC's #1, #2, #3, ...

........................................................................
.............................. CYCLE   48 ..............................
........................................................................
   1   -197.0711792 -0.197071E+03  0.357E-02    1.03       0.0  T
   2   -197.0711808 -0.156935E-05  0.200E-02    1.03       1.0  T
   3   -197.0711741  0.674584E-05  0.741E-03    1.03       1.3  T
   4   -197.0711818 -0.774543E-05  0.153E-03    1.03       6.4  T
   5   -197.0711819 -0.139609E-06  0.834E-04    1.03      11.8  T
   6   -197.0711820 -0.395214E-07  0.318E-04    1.03      30.9  T
     SCC iter.                  ...        0 min,  0.087 sec
     gradient                   ...        0 min,  0.035 sec
 * total energy  :  -194.1008940 Eh     change       -0.3720334E-04 Eh
   gradient norm :     0.0046999 Eh/α   predicted    -0.4315385E-04 (  15.99%)
   displ. norm   :     0.1416615 α      lambda       -0.6209896E-04
   maximum displ.:     0.0767142 α      in ANC's #1, #2, #3, ...

........................................................................
.............................. CYCLE   49 ..............................
........................................................................
   1   -197.0714890 -0.197071E+03  0.352E-02    1.03       0.0  T
   2   -197.0714906 -0.159199E-05  0.196E-02    1.03       1.0  T
   3   -197.0714889  0.168572E-05  0.469E-03    1.03       2.1  T
   4   -197.0714913 -0.239205E-05  0.108E-03    1.03       9.0  T
   5   -197.0714913 -0.234726E-07  0.717E-04    1.03      13.7  T
   6   -197.0714914 -0.389027E-07  0.243E-04    1.03      40.4  T
     SCC iter.                  ...        0 min,  0.087 sec
     gradient                   ...        0 min,  0.035 sec
 * total energy  :  -194.1009348 Eh     change       -0.4084970E-04 Eh
   gradient norm :     0.0035950 Eh/α   predicted    -0.3167349E-04 ( -22.46%)
   displ. norm   :     0.1972400 α      lambda       -0.6332411E-04
   maximum displ.:     0.1088537 α      in ANC's #1, #2, #3, ...

........................................................................
.............................. CYCLE   50 ..............................
........................................................................
   1   -197.0719237 -0.197072E+03  0.284E-02    1.03       0.0  T
   2   -197.0719245 -0.746227E-06  0.160E-02    1.03       1.0  T
   3   -197.0719200  0.445459E-05  0.590E-03    1.03       1.7  T
   4   -197.0719250 -0.500733E-05  0.125E-03    1.03       7.8  T
   5   -197.0719251 -0.521159E-07  0.756E-04    1.03      13.0  T
   6   -197.0719251 -0.457607E-07  0.231E-04    1.03      42.4  T
     SCC iter.                  ...        0 min,  0.087 sec
     gradient                   ...        0 min,  0.035 sec
 * total energy  :  -194.1009858 Eh     change       -0.5098431E-04 Eh
   gradient norm :     0.0021640 Eh/α   predicted    -0.3289747E-04 ( -35.48%)
   displ. norm   :     0.2839241 α      lambda       -0.7378866E-04
   maximum displ.:     0.1590638 α      in ANC's #1, #2, #3, ...

........................................................................
.............................. CYCLE   51 ..............................
........................................................................
   1   -197.0722192 -0.197072E+03  0.341E-02    1.03       0.0  T
   2   -197.0722201 -0.953047E-06  0.193E-02    1.03       1.0  T
   3   -197.0722130  0.713814E-05  0.745E-03    1.03       1.3  T
   4   -197.0722210 -0.796870E-05  0.156E-03    1.03       6.3  T
   5   -197.0722210 -0.556137E-07  0.986E-04    1.03       9.9  T
   6   -197.0722211 -0.771003E-07  0.315E-04    1.03      31.1  T
     SCC iter.                  ...        0 min,  0.086 sec
     gradient                   ...        0 min,  0.035 sec
 * total energy  :  -194.1010459 Eh     change       -0.6005737E-04 Eh
   gradient norm :     0.0024398 Eh/α   predicted    -0.3986897E-04 ( -33.62%)
   displ. norm   :     0.3307375 α      lambda       -0.7656888E-04
   maximum displ.:     0.1879114 α      in ANC's #1, #2, #3, ...

........................................................................
.............................. CYCLE   52 ..............................
........................................................................
   1   -197.0723977 -0.197072E+03  0.357E-02    1.03       0.0  T
   2   -197.0723989 -0.115886E-05  0.201E-02    1.03       1.0  T
   3   -197.0723939  0.494974E-05  0.647E-03    1.03       1.5  T
   4   -197.0723995 -0.562484E-05  0.167E-03    1.03       5.9  T
   5   -197.0723996 -0.694894E-07  0.106E-03    1.03       9.2  T
   6   -197.0723997 -0.988383E-07  0.290E-04    1.03      33.8  T
   7   -197.0723997 -0.505719E-08  0.143E-04    1.03      68.5  T
     SCC iter.                  ...        0 min,  0.102 sec
     gradient                   ...        0 min,  0.035 sec
 * total energy  :  -194.1011103 Eh     change       -0.6445673E-04 Eh
   gradient norm :     0.0032615 Eh/α   predicted    -0.4247425E-04 ( -34.10%)
   displ. norm   :     0.3599630 α      lambda       -0.8234647E-04
   maximum displ.:     0.2073625 α      in ANC's #1, #2, #3, ...

........................................................................
.............................. CYCLE   53 ..............................
........................................................................
   1   -197.0723007 -0.197072E+03  0.344E-02    1.03       0.0  T
   2   -197.0723017 -0.103379E-05  0.194E-02    1.03       1.0  T
   3   -197.0722958  0.593221E-05  0.701E-03    1.03       1.4  T
   4   -197.0723025 -0.670417E-05  0.156E-03    1.03       6.3  T
   5   -197.0723025 -0.298761E-07  0.951E-04    1.03      10.3  T
   6   -197.0723026 -0.783350E-07  0.310E-04    1.03      31.6  T
     SCC iter.                  ...        0 min,  0.088 sec
     gradient                   ...        0 min,  0.035 sec
 * total energy  :  -194.1011837 Eh     change       -0.7338576E-04 Eh
   gradient norm :     0.0029172 Eh/α   predicted    -0.4651146E-04 ( -36.62%)
   displ. norm   :     0.4124678 α      lambda       -0.9834207E-04
   maximum displ.:     0.2405851 α      in ANC's #1, #2, #3, ...

........................................................................
.............................. CYCLE   54 ..............................
........................................................................
   1   -197.0723498 -0.197072E+03  0.352E-02    1.03       0.0  T
   2   -197.0723510 -0.119727E-05  0.199E-02    1.03       1.0  T
   3   -197.0723456  0.547808E-05  0.684E-03    1.03       1.4  T
   4   -197.0723517 -0.615658E-05  0.177E-03    1.03       5.5  T
   5   -197.0723518 -0.967290E-07  0.104E-03    1.03       9.5  T
   6   -197.0723519 -0.879000E-07  0.345E-04    1.03      28.4  T
   7   -197.0723519 -0.854556E-08  0.143E-04    1.03      68.7  T
     SCC iter.                  ...        0 min,  0.108 sec
     gradient                   ...        0 min,  0.035 sec
 * total energy  :  -194.1012723 Eh     change       -0.8860680E-04 Eh
   gradient norm :     0.0022150 Eh/α   predicted    -0.5753680E-04 ( -35.07%)
   displ. norm   :     0.4825865 α      lambda       -0.1153863E-03
   maximum displ.:     0.2838049 α      in ANC's #1, #2, #3, ...

........................................................................
.............................. CYCLE   55 ..............................
........................................................................
   1   -197.0723647 -0.197072E+03  0.384E-02    1.03       0.0  T
   2   -197.0723661 -0.145228E-05  0.217E-02    1.03       1.0  T
   3   -197.0723596  0.648988E-05  0.746E-03    1.03       1.3  T
   4   -197.0723669 -0.721759E-05  0.205E-03    1.03       4.8  T
   5   -197.0723670 -0.175538E-06  0.117E-03    1.03       8.4  T
   6   -197.0723671 -0.105298E-06  0.387E-04    1.03      25.3  T
   7   -197.0723672 -0.950294E-08  0.169E-04    1.03      58.2  T
     SCC iter.                  ...        0 min,  0.106 sec
     gradient                   ...        0 min,  0.035 sec
 * total energy  :  -194.1013758 Eh     change       -0.1034526E-03 Eh
   gradient norm :     0.0021154 Eh/α   predicted    -0.7113271E-04 ( -31.24%)
   displ. norm   :     0.5297519 α      lambda       -0.1225068E-03
   maximum displ.:     0.3135252 α      in ANC's #1, #2, #3, ...

........................................................................
.............................. CYCLE   56 ..............................
........................................................................
   1   -197.0724208 -0.197072E+03  0.413E-02    1.03       0.0  T
   2   -197.0724225 -0.165188E-05  0.233E-02    1.03       1.0  T
   3   -197.0724176  0.489683E-05  0.690E-03    1.03       1.4  T
   4   -197.0724231 -0.550081E-05  0.220E-03    1.03       4.5  T
   5   -197.0724233 -0.210088E-06  0.124E-03    1.03       7.9  T
   6   -197.0724234 -0.127819E-06  0.385E-04    1.03      25.5  T
   7   -197.0724234 -0.817883E-08  0.178E-04    1.03      55.2  T
     SCC iter.                  ...        0 min,  0.108 sec
     gradient                   ...        0 min,  0.035 sec
 * total energy  :  -194.1014871 Eh     change       -0.1113745E-03 Eh
   gradient norm :     0.0025783 Eh/α   predicted    -0.7844789E-04 ( -29.56%)
   displ. norm   :     0.5780156 α      lambda       -0.1335565E-03
   maximum displ.:     0.3435121 α      in ANC's #1, #2, #3, ...

........................................................................
.............................. CYCLE   57 ..............................
........................................................................
   1   -197.0724021 -0.197072E+03  0.464E-02    1.03       0.0  T
   2   -197.0724042 -0.200619E-05  0.261E-02    1.03       1.0  T
   3   -197.0724008  0.332685E-05  0.626E-03    1.03       1.6  T
   4   -197.0724047 -0.387615E-05  0.239E-03    1.03       4.1  T
   5   -197.0724049 -0.247077E-06  0.127E-03    1.03       7.7  T
   6   -197.0724051 -0.148293E-06  0.378E-04    1.03      25.9  T
   7   -197.0724051 -0.748557E-08  0.182E-04    1.03      54.0  T
     SCC iter.                  ...        0 min,  0.106 sec
     gradient                   ...        0 min,  0.035 sec
 * total energy  :  -194.1016087 Eh     change       -0.1215636E-03 Eh
   gradient norm :     0.0026429 Eh/α   predicted    -0.8909367E-04 ( -26.71%)
   displ. norm   :     0.6180836 α      lambda       -0.1465456E-03
   maximum displ.:     0.3684646 α      in ANC's #1, #2, #3, ...

........................................................................
.............................. CYCLE   58 ..............................
........................................................................
   1   -197.0726306 -0.197073E+03  0.529E-02    1.03       0.0  T
   2   -197.0726331 -0.246886E-05  0.298E-02    1.03       1.0  T
   3   -197.0726282  0.493142E-05  0.708E-03    1.03       1.4  T
   4   -197.0726338 -0.562375E-05  0.273E-03    1.03       3.6  T
   5   -197.0726342 -0.380531E-06  0.136E-03    1.03       7.2  T
   6   -197.0726343 -0.163420E-06  0.416E-04    1.03      23.6  T
   7   -197.0726343 -0.103611E-07  0.212E-04    1.03      46.1  T
     SCC iter.                  ...        0 min,  0.109 sec
     gradient                   ...        0 min,  0.034 sec
 * total energy  :  -194.1017436 Eh     change       -0.1349033E-03 Eh
   gradient norm :     0.0026469 Eh/α   predicted    -0.1012660E-03 ( -24.93%)
   displ. norm   :     0.6680472 α      lambda       -0.1666529E-03
   maximum displ.:     0.3993939 α      in ANC's #1, #2, #3, ...

........................................................................
.............................. CYCLE   59 ..............................
........................................................................
   1   -197.0725129 -0.197073E+03  0.614E-02    1.03       0.0  T
   2   -197.0725160 -0.308035E-05  0.345E-02    1.03       1.0  T
   3   -197.0725049  0.110979E-04  0.965E-03    1.02       1.0  T
   4   -197.0725173 -0.123916E-04  0.311E-03    1.03       3.2  T
   5   -197.0725177 -0.434514E-06  0.164E-03    1.03       6.0  T
   6   -197.0725179 -0.222105E-06  0.485E-04    1.03      20.2  T
   7   -197.0725179 -0.149861E-07  0.240E-04    1.03      40.9  T
     SCC iter.                  ...        0 min,  0.104 sec
     gradient                   ...        0 min,  0.035 sec
 * total energy  :  -194.1018966 Eh     change       -0.1529849E-03 Eh
   gradient norm :     0.0025256 Eh/α   predicted    -0.1205153E-03 ( -21.22%)
   displ. norm   :     0.7064116 α      lambda       -0.1817770E-03
   maximum displ.:     0.4227492 α      in ANC's #1, #2, #3, ...

........................................................................
.............................. CYCLE   60 ..............................
........................................................................
   1   -197.0727807 -0.197073E+03  0.720E-02    1.02       0.0  T
   2   -197.0727848 -0.412746E-05  0.406E-02    1.02       1.0  T
[...]
    71   6 C        1.939     0.125    28.017     8.548
    72   7 N        0.911    -0.239    26.247     7.410
    73   6 C        1.932     0.121    28.126     8.565
    74   7 N        0.911    -0.232    26.071     7.385
    75   1 H        0.925     0.077     2.008     2.216
    76   1 H        0.926     0.060     2.203     2.321
    77   1 H        0.926     0.054     2.273     2.358
    78   1 H        0.925     0.045     2.384     2.415
    79   1 H        0.925     0.036     2.503     2.474
    80   1 H        0.926     0.030     2.583     2.513
    81   1 H        0.926     0.032     2.560     2.502
    82   1 H        0.925     0.035     2.510     2.478
    83   1 H        0.925     0.041     2.439     2.442
    84   1 H        0.925     0.039     2.467     2.456
    85   1 H        0.925     0.044     2.401     2.423
    86   1 H        0.924     0.049     2.334     2.389
    87   1 H        0.924     0.054     2.269     2.356
    88   1 H        0.925     0.045     2.387     2.416
    89   1 H        0.925     0.047     2.361     2.403
    90   1 H        0.925     0.053     2.287     2.365
    91   1 H        0.926     0.066     2.129     2.282
    92   1 H        0.924     0.056     2.245     2.343
    93   1 H        0.925     0.070     2.085     2.258
    94   1 H        0.925     0.056     2.245     2.343
    95   1 H        0.925     0.053     2.278     2.360
    96   1 H        0.925     0.049     2.330     2.387
    97   1 H        0.924     0.060     2.205     2.322
    98   1 H        0.924     0.057     2.237     2.339
    99   1 H        0.925     0.056     2.247     2.344
   100   1 H        0.925     0.052     2.295     2.369
   101   1 H        0.925     0.060     2.201     2.320
   102   1 H        0.925     0.082     1.956     2.187
   103   1 H        0.926     0.092     1.859     2.132
   104   1 H        0.926     0.085     1.924     2.169

 Mol. C6AA /au·bohr⁶  :     216416.569404
 Mol. C8AA /au·bohr⁸  :    6239830.250638
 Mol. α(0) /au        :        738.414551


Wiberg/Mayer (AO) data.
largest (>0.10) Wiberg bond orders for each atom

 ---------------------------------------------------------------------------
     #   Z sym  total        # sym  WBO       # sym  WBO       # sym  WBO
 ---------------------------------------------------------------------------
     1   6 C    3.950 --     2 C    1.570    24 C    1.231    75 H    0.941
     2   6 C    3.955 --     1 C    1.570    11 C    1.127     3 C    1.007
     3   6 C    3.925 --     4 O    1.774     5 C    1.024     2 C    1.007
     4   8 O    2.054 --     3 C    1.774
     5   6 C    3.970 --     6 C    1.380    10 C    1.306     3 C    1.024
     6   6 C    3.983 --     7 C    1.446     5 C    1.380    76 H    0.964
     7   6 C    3.957 --     6 C    1.446     8 C    1.325    23 C    0.996
     8   6 C    3.967 --     9 C    1.451     7 C    1.325    17 C    0.997
     9   6 C    3.980 --     8 C    1.451    10 C    1.366    77 H    0.960
    10   6 C    3.979 --     9 C    1.366     5 C    1.306    11 C    1.087
    11   6 C    3.975 --    12 C    1.481     2 C    1.127    10 C    1.087
    12   6 C    3.971 --    11 C    1.481    13 C    1.103    15 C    1.096
    13   6 C    3.946 --    14 N    2.762    12 C    1.103
    14   7 N    2.968 --    13 C    2.762
    15   6 C    3.947 --    16 N    2.765    12 C    1.096
    16   7 N    2.977 --    15 C    2.765
    17   6 C    3.985 --     8 C    0.997    23 C    0.978    78 H    0.960
                            18 C    0.947
    18   6 C    3.990 --    19 C    1.010    22 C    0.985    79 H    0.972
                            17 C    0.947
    19   6 C    3.987 --    20 C    1.924    18 C    1.010    80 H    0.972
    20   6 C    3.987 --    19 C    1.924    21 C    1.010    81 H    0.972
    21   6 C    3.989 --    20 C    1.010    22 C    0.985    82 H    0.972
                            23 C    0.947
    22   6 C    3.993 --    18 C    0.985    21 C    0.985    84 H    0.978
                            83 H    0.977
    23   6 C    3.985 --     7 C    0.996    17 C    0.978    85 H    0.960
                            21 C    0.947
    24   6 C    3.922 --    25 C    1.414     1 C    1.231    30 S    1.070
    25   6 C    3.967 --    24 C    1.414    28 C    1.301    26 C    1.017
    26   6 C    3.993 --    25 C    1.017    27 C    0.992    87 H    0.971
                            86 H    0.963
    27   6 C    3.988 --    26 C    0.992    90 H    0.987    88 H    0.986
                            89 H    0.984
    28   6 C    3.928 --    29 C    1.327    25 C    1.301    33 S    1.093
    29   6 C    3.936 --    28 C    1.327    31 C    1.254    30 S    1.122
    30  16 S    2.550 --    29 C    1.122    24 C    1.070
    31   6 C    3.935 --    32 C    1.299    29 C    1.254    54 N    1.158
    32   6 C    3.920 --    31 C    1.299    34 C    1.276    33 S    1.118
    33  16 S    2.523 --    32 C    1.118    28 C    1.093
    34   6 C    3.952 --    32 C    1.276    53 C    1.266    35 C    1.171
    35   6 C    3.973 --    36 N    1.428    34 C    1.171    39 C    1.167
                            37 S    0.101
    36   7 N    3.075 --    35 C    1.428    37 S    1.394    38 N    0.148
    37  16 S    3.111 --    36 N    1.394    38 N    1.394    39 C    0.101
                            35 C    0.101
    38   7 N    3.074 --    39 C    1.428    37 S    1.394    36 N    0.148
    39   6 C    3.973 --    38 N    1.428    40 C    1.171    35 C    1.167
                            37 S    0.101
    40   6 C    3.954 --    41 C    1.272    52 C    1.271    39 C    1.171
    41   6 C    3.916 --    48 C    1.296    40 C    1.272    42 S    1.121
    42  16 S    2.522 --    41 C    1.121    43 C    1.093
    43   6 C    3.932 --    44 C    1.362    47 C    1.294    42 S    1.093
    44   6 C    3.968 --    45 C    1.416    43 C    1.362    91 H    0.960
    45   6 C    3.927 --    44 C    1.416    57 C    1.256    46 S    1.076
    46  16 S    2.562 --    47 C    1.132    45 C    1.076
    47   6 C    3.934 --    43 C    1.294    48 C    1.272    46 S    1.132
    48   6 C    3.940 --    41 C    1.296    47 C    1.272    49 N    1.146
    49   7 N    3.530 --    52 C    1.160    48 C    1.146    50 C    0.975
    50   6 C    3.961 --    51 C    1.005    49 N    0.975    92 H    0.968
                            93 H    0.958
    51   6 C    3.987 --    50 C    1.005    96 H    0.987    95 H    0.984
                            94 H    0.982
    52   6 C    3.924 --    40 C    1.271    53 C    1.230    49 N    1.160
    53   6 C    3.928 --    34 C    1.266    52 C    1.230    54 N    1.168
    54   7 N    3.560 --    53 C    1.168    31 C    1.158    55 C    0.983
    55   6 C    3.965 --    56 C    1.006    54 N    0.983    98 H    0.966
                            97 H    0.965
    56   6 C    3.986 --    55 C    1.006    99 H    0.983   101 H    0.979
                           100 H    0.978
    57   6 C    3.942 --    58 C    1.537    45 C    1.256   102 H    0.945
    58   6 C    3.950 --    57 C    1.537    69 C    1.138    59 C    1.017
    59   6 C    3.925 --    60 O    1.781    58 C    1.017    61 C    1.011
    60   8 O    2.056 --    59 C    1.781
    61   6 C    3.973 --    62 C    1.421    68 C    1.287    59 C    1.011
    62   6 C    3.977 --    61 C    1.421    63 C    1.386   103 H    0.959
    63   6 C    3.914 --    62 C    1.386    65 C    1.344    64 Cl   1.013
    64  17 Cl   1.162 --    63 C    1.013
    65   6 C    3.921 --    67 C    1.391    63 C    1.344    66 Cl   1.015
    66  17 Cl   1.168 --    65 C    1.015
    67   6 C    3.972 --    68 C    1.405    65 C    1.391   104 H    0.956
    68   6 C    3.982 --    67 C    1.405    61 C    1.287    69 C    1.078
    69   6 C    3.971 --    70 C    1.482    58 C    1.138    68 C    1.078
    70   6 C    3.965 --    69 C    1.482    73 C    1.100    71 C    1.095
    71   6 C    3.947 --    72 N    2.766    70 C    1.095
    72   7 N    2.976 --    71 C    2.766
    73   6 C    3.946 --    74 N    2.766    70 C    1.100
    74   7 N    2.969 --    73 C    2.766
    75   1 H    0.991 --     1 C    0.941
    76   1 H    0.996 --     6 C    0.964
    77   1 H    0.997 --     9 C    0.960
    78   1 H    0.996 --    17 C    0.960
    79   1 H    0.998 --    18 C    0.972
    80   1 H    0.999 --    19 C    0.972
    81   1 H    0.999 --    20 C    0.972
    82   1 H    0.998 --    21 C    0.972
    83   1 H    0.996 --    22 C    0.977
    84   1 H    0.998 --    22 C    0.978
    85   1 H    0.996 --    23 C    0.960
    86   1 H    0.996 --    26 C    0.963
    87   1 H    0.996 --    26 C    0.971
    88   1 H    0.998 --    27 C    0.986
    89   1 H    0.996 --    27 C    0.984
    90   1 H    0.997 --    27 C    0.987
    91   1 H    0.995 --    44 C    0.960
    92   1 H    0.995 --    50 C    0.968
    93   1 H    0.994 --    50 C    0.958
    94   1 H    0.996 --    51 C    0.982
    95   1 H    0.997 --    51 C    0.984
    96   1 H    0.998 --    51 C    0.987
    97   1 H    0.994 --    55 C    0.965
    98   1 H    0.996 --    55 C    0.966
    99   1 H    0.996 --    56 C    0.983
   100   1 H    0.997 --    56 C    0.978
   101   1 H    0.996 --    56 C    0.979
   102   1 H    0.991 --    57 C    0.945
   103   1 H    0.991 --    62 C    0.959
   104   1 H    0.992 --    67 C    0.956
 ---------------------------------------------------------------------------

Topologies differ in bond orders
Writing corrected topology to xtbtopo.mol

molecular dipole:
                 x           y           z       tot (Debye)
 q only:       -2.301      -1.026      -0.243
   full:       -2.178      -2.113      -0.722       7.929
molecular quadrupole (traceless):
                xx          xy          yy          xz          yz          zz
 q only:      -51.974      26.821      12.064     -17.385      35.671      39.910
  q+dip:      -37.324       8.003       7.318      -8.465      26.730      30.006
   full:      -36.507      13.219       9.844      -8.673      21.774      26.663

           -------------------------------------------------
          |                Geometry Summary                 |
           -------------------------------------------------

      molecular mass/u    :     1090.1324165
   center of mass at/Å    :        1.3300525       0.1697865       1.2084070
  moments of inertia/u·Å² :        0.1964176E+05   0.4738310E+05   0.6384035E+05
rotational constants/cm⁻¹ :        0.8582547E-03   0.3557731E-03   0.2640592E-03

 * 102 selected distances

     #   Z          #   Z                                           value/Å
     1   6 C        2   6 C                                       1.3599795
     3   6 C        4   8 O                                       1.2104628
     5   6 C        6   6 C                                       1.3931131
     6   6 C        7   6 C                                       1.3743941
     7   6 C        8   6 C                                       1.4018884
     8   6 C        9   6 C                                       1.3743358
     5   6 C       10   6 C                                       1.4115748
     9   6 C       10   6 C                                       1.3965595
    11   6 C       12   6 C                                       1.3710888
    13   6 C       14   7 N                                       1.1484001
    15   6 C       16   7 N                                       1.1481697
     8   6 C       17   6 C                                       1.5077566
    17   6 C       18   6 C                                       1.5487335
    19   6 C       20   6 C                                       1.3263207
    18   6 C       22   6 C                                       1.5369917
    21   6 C       22   6 C                                       1.5371115
     7   6 C       23   6 C                                       1.5082675
    17   6 C       23   6 C                                       1.5611997
    21   6 C       23   6 C                                       1.5491994
     1   6 C       24   6 C                                       1.4141057
    24   6 C       25   6 C                                       1.3874942
    25   6 C       26   6 C                                       1.4909999
    26   6 C       27   6 C                                       1.5305439
    25   6 C       28   6 C                                       1.3998418
    28   6 C       29   6 C                                       1.4003433
    29   6 C       30  16 S                                       1.7231887
    29   6 C       31   6 C                                       1.3971532
    31   6 C       32   6 C                                       1.4009489
    28   6 C       33  16 S                                       1.7480812
    32   6 C       33  16 S                                       1.7283563
    32   6 C       34   6 C                                       1.4019096
    34   6 C       35   6 C                                       1.4130421
    35   6 C       36   7 N                                       1.3237001
    36   7 N       37  16 S                                       1.6178917
    37  16 S       38   7 N                                       1.6180450
    35   6 C       39   6 C                                       1.4347872
    38   7 N       39   6 C                                       1.3236671
    39   6 C       40   6 C                                       1.4128029
    40   6 C       41   6 C                                       1.4027736
    41   6 C       42  16 S                                       1.7291356
    42  16 S       43   6 C                                       1.7491201 (max)
    43   6 C       44   6 C                                       1.3884693
    44   6 C       45   6 C                                       1.3868462
    43   6 C       47   6 C                                       1.4067724
    46  16 S       47   6 C                                       1.7205719
    41   6 C       48   6 C                                       1.4012125
    47   6 C       48   6 C                                       1.3926340
    48   6 C       49   7 N                                       1.3722575
    49   7 N       50   6 C                                       1.4497831
    50   6 C       51   6 C                                       1.5288862
    40   6 C       52   6 C                                       1.4252382
    49   7 N       52   6 C                                       1.3856521
    34   6 C       53   6 C                                       1.4254793
    52   6 C       53   6 C                                       1.4172135
    31   6 C       54   7 N                                       1.3675779
    53   6 C       54   7 N                                       1.3813171
    54   7 N       55   6 C                                       1.4453885
    55   6 C       56   6 C                                       1.5292770
    45   6 C       57   6 C                                       1.4084333
    57   6 C       58   6 C                                       1.3652117
    59   6 C       60   8 O                                       1.2087288
    61   6 C       62   6 C                                       1.3795856
    62   6 C       63   6 C                                       1.3899787
    63   6 C       64  17 Cl                                      1.7173962
    63   6 C       65   6 C                                       1.3991943
    65   6 C       66  17 Cl                                      1.7171678
    65   6 C       67   6 C                                       1.3908061
    61   6 C       68   6 C                                       1.4069851
    67   6 C       68   6 C                                       1.3838190
    69   6 C       70   6 C                                       1.3710645
    71   6 C       72   7 N                                       1.1480743
    73   6 C       74   7 N                                       1.1479990
     1   6 C       75   1 H                                       1.0859404
     6   6 C       76   1 H                                       1.0787480
     9   6 C       77   1 H                                       1.0779075
    17   6 C       78   1 H                                       1.0880728
    18   6 C       79   1 H                                       1.0867054
    19   6 C       80   1 H                                       1.0743974
    20   6 C       81   1 H                                       1.0743555 (min)
    21   6 C       82   1 H                                       1.0867563
    22   6 C       83   1 H                                       1.0889736
    22   6 C       84   1 H                                       1.0890392
    23   6 C       85   1 H                                       1.0881461
    26   6 C       86   1 H                                       1.0921572
    26   6 C       87   1 H                                       1.0916697
    27   6 C       88   1 H                                       1.0872649
    27   6 C       89   1 H                                       1.0867033
    27   6 C       90   1 H                                       1.0867228
    44   6 C       91   1 H                                       1.0744239
    50   6 C       92   1 H                                       1.0946754
    50   6 C       93   1 H                                       1.0827798
    51   6 C       94   1 H                                       1.0865527
    51   6 C       95   1 H                                       1.0869015
    51   6 C       96   1 H                                       1.0880063
    55   6 C       97   1 H                                       1.0961032
    55   6 C       98   1 H                                       1.0905345
    56   6 C       99   1 H                                       1.0862585
    56   6 C      100   1 H                                       1.0876471
    56   6 C      101   1 H                                       1.0866312
    57   6 C      102   1 H                                       1.0858534
    62   6 C      103   1 H                                       1.0784897
    67   6 C      104   1 H                                       1.0780098

 * 7 distinct bonds (by element types)

   Z      Z             #   av. dist./Å        max./Å        min./Å
   1 H    6 C          30     1.0855476     1.0961032     1.0743555
   6 C    6 C          48     1.4258827     1.5611997     1.3263207
   6 C    7 N          12     1.3034989     1.4497831     1.1479990
   6 C    8 O           2     1.2095958     1.2104628     1.2087288
   6 C   16 S           6     1.7330756     1.7491201     1.7205719
   7 N   16 S           2     1.6179683     1.6180450     1.6178917
   6 C   17 Cl          2     1.7172820     1.7173962     1.7171678


optimized geometry written to: xtbopt.mol


           -------------------------------------------------
          | TOTAL ENERGY             -194.104080907534 Eh   |
          | GRADIENT NORM               0.000393162177 Eh/α |
          | HOMO-LUMO GAP               1.015970146742 eV   |
           -------------------------------------------------

------------------------------------------------------------------------
 * finished run on 2022/02/11 at 01:47:04.972     
------------------------------------------------------------------------
 total:
 * wall-time:     0 d,  0 h,  0 min, 19.542 sec
 *  cpu-time:     0 d,  0 h,  2 min, 33.336 sec
 * ratio c/w:     7.846 speedup
 SCF:
 * wall-time:     0 d,  0 h,  0 min,  0.298 sec
 *  cpu-time:     0 d,  0 h,  0 min,  2.375 sec
 * ratio c/w:     7.968 speedup
 ANC optimizer:
 * wall-time:     0 d,  0 h,  0 min, 19.166 sec
 *  cpu-time:     0 d,  0 h,  2 min, 30.446 sec
 * ratio c/w:     7.850 speedup

