      -----------------------------------------------------------      
     |                   =====================                   |     
     |                           x T B                           |     
     |                   =====================                   |     
     |                         S. Grimme                         |     
     |          Mulliken Center for Theoretical Chemistry        |     
     |                    University of Bonn                     |     
      -----------------------------------------------------------      

   * xtb version 6.4.1 (unknown) compiled by 'oda6@login1.crc.pitt.edu' on 2021-06-25

   xtb is free software: you can redistribute it and/or modify it under
   the terms of the GNU Lesser General Public License as published by
   the Free Software Foundation, either version 3 of the License, or
   (at your option) any later version.
   
   xtb is distributed in the hope that it will be useful,
   but WITHOUT ANY WARRANTY; without even the implied warranty of
   MERCHANTABILITY or FITNESS FOR A PARTICULAR PURPOSE.  See the
   GNU Lesser General Public License for more details.
   
   Cite this work as:
   * C. Bannwarth, E. Caldeweyher, S. Ehlert, A. Hansen, P. Pracht,
     J. Seibert, S. Spicher, S. Grimme, WIREs Comput. Mol. Sci., 2020, 11,
     e01493. DOI: 10.1002/wcms.1493
   
   for GFN2-xTB:
   * C. Bannwarth, S. Ehlert and S. Grimme., J. Chem. Theory Comput., 2019,
     15, 1652-1671. DOI: 10.1021/acs.jctc.8b01176
   for GFN1-xTB:
   * S. Grimme, C. Bannwarth, P. Shushkov, J. Chem. Theory Comput., 2017,
     13, 1989-2009. DOI: 10.1021/acs.jctc.7b00118
   for GFN0-xTB:
   * P. Pracht, E. Caldeweyher, S. Ehlert, S. Grimme, ChemRxiv, 2019, preprint.
     DOI: 10.26434/chemrxiv.8326202.v1
   for GFN-FF:
   * S. Spicher and S. Grimme, Angew. Chem. Int. Ed., 2020, 59, 15665-15673.
     DOI: 10.1002/anie.202004239
   
   for DFT-D4:
   * E. Caldeweyher, C. Bannwarth and S. Grimme, J. Chem. Phys., 2017,
     147, 034112. DOI: 10.1063/1.4993215
   * E. Caldeweyher, S. Ehlert, A. Hansen, H. Neugebauer, S. Spicher,
     C. Bannwarth and S. Grimme, J. Chem. Phys., 2019, 150, 154122.
     DOI: 10.1063/1.5090222
   * E. Caldeweyher, J.-M. Mewes, S. Ehlert and S. Grimme, Phys. Chem. Chem. Phys.
     2020, 22, 8499-8512. DOI: 10.1039/D0CP00502A
   
   for sTDA-xTB:
   * S. Grimme and C. Bannwarth, J. Chem. Phys., 2016, 145, 054103.
     DOI: 10.1063/1.4959605
   
   in the mass-spec context:
   * V. Asgeirsson, C. Bauer and S. Grimme, Chem. Sci., 2017, 8, 4879.
     DOI: 10.1039/c7sc00601b
   * J. Koopman and S. Grimme, ACS Omega 2019, 4, 12, 15120-15133.
     DOI: 10.1021/acsomega.9b02011
   
   for metadynamics refer to:
   * S. Grimme, J. Chem. Theory Comput., 2019, 155, 2847-2862
     DOI: 10.1021/acs.jctc.9b00143
   
   for SPH calculations refer to:
   * S. Spicher and S. Grimme, J. Chem. Theory Comput., 2021, 17, 1701-1714
     DOI: 10.1021/acs.jctc.0c01306
   
   with help from (in alphabetical order)
   P. Atkinson, C. Bannwarth, F. Bohle, G. Brandenburg, E. Caldeweyher
   M. Checinski, S. Dohm, S. Ehlert, S. Ehrlich, I. Gerasimov, J. Koopman
   C. Lavigne, S. Lehtola, F. März, M. Müller, F. Musil, H. Neugebauer
   J. Pisarek, C. Plett, P. Pracht, J. Seibert, P. Shushkov, S. Spicher
   M. Stahn, M. Steiner, T. Strunk, J. Stückrath, T. Rose, and J. Unsleber
   
 * started run on 2022/02/10 at 22:55:23.554     

           -------------------------------------------------
          |                Calculation Setup                |
           -------------------------------------------------

          program call               : /ihome/ghutchison/oda6/xtb/xtb-641/bin/xtb ../../FF_optimized/39_135_48.mol -opt
          hostname                   : smp-n28
          coordinate file            : ../../FF_optimized/39_135_48.mol
          omp threads                :                     8
          number of atoms            :                   107
          number of electrons        :                   338
          charge                     :                     0
          spin                       :                   0.0
          first test random number   :      0.25076323063805

   ID    Z sym.   atoms
    1    6 C      1-3, 5-13, 15, 17-24, 26-29, 33, 34, 36-40, 42, 43, 45, 46,
                  48-58, 61-63, 65-70
    2    8 O      4, 59, 64
    3    7 N      14, 16, 30, 32, 44, 47, 60
    4   34 Se     25
    5   16 S      31, 35, 41
    6    1 H      71-107
########################################################################
[WARNING] Please study the warnings concerning your input carefully
-1- prog_main_parseArguments: the use of '-opt' is discouraged, please use '--opt' next time
########################################################################

           -------------------------------------------------
          |                 G F N 2 - x T B                 |
           -------------------------------------------------

        Reference                      10.1021/acs.jctc.8b01176
      * Hamiltonian:
        H0-scaling (s, p, d)           1.850000    2.230000    2.230000
        zeta-weighting                 0.500000
      * Dispersion:
        s8                             2.700000
        a1                             0.520000
        a2                             5.000000
        s9                             5.000000
      * Repulsion:
        kExp                           1.500000    1.000000
        rExp                           1.000000
      * Coulomb:
        alpha                          2.000000
        third order                    shell-resolved
        anisotropic                    true
        a3                             3.000000
        a5                             4.000000
        cn-shift                       1.200000
        cn-exp                         4.000000
        max-rad                        5.000000


          ...................................................
          :                      SETUP                      :
          :.................................................:
          :  # basis functions                 341          :
          :  # atomic orbitals                 337          :
          :  # shells                          181          :
          :  # electrons                       338          :
          :  max. iterations                   250          :
          :  Hamiltonian                  GFN2-xTB          :
          :  restarted?                      false          :
          :  GBSA solvation                  false          :
          :  PC potential                    false          :
          :  electronic temp.          300.0000000     K    :
          :  accuracy                    1.0000000          :
          :  -> integral cutoff          0.2500000E+02      :
          :  -> integral neglect         0.1000000E-07      :
          :  -> SCF convergence          0.1000000E-05 Eh   :
          :  -> wf. convergence          0.1000000E-03 e    :
          :  Broyden damping             0.4000000          :
          ...................................................

 iter      E             dE          RMSdq      gap      omega  full diag
   1   -185.9806632 -0.185981E+03  0.493E+00    0.83       0.0  T
   2   -185.5335928  0.447070E+00  0.358E+00    0.28       1.0  T
   3   -183.4196986  0.211389E+01  0.415E+00    0.07       1.0  T
   4   -185.4768098 -0.205711E+01  0.255E+00    0.62       1.0  T
   5   -186.1124861 -0.635676E+00  0.149E+00    0.36       1.0  T
   6   -186.4985138 -0.386028E+00  0.557E-01    0.66       1.0  T
   7   -186.4969076  0.160620E-02  0.705E-01    0.63       1.0  T
   8   -186.5069205 -0.100129E-01  0.382E-01    0.63       1.0  T
   9   -186.5171114 -0.101909E-01  0.272E-01    0.71       1.0  T
  10   -186.5064884  0.106229E-01  0.335E-01    0.74       1.0  T
  11   -186.5227331 -0.162447E-01  0.107E-01    0.71       1.0  T
  12   -186.5235148 -0.781693E-03  0.644E-02    0.71       1.0  T
  13   -186.5239104 -0.395630E-03  0.328E-02    0.71       1.0  T
  14   -186.5240250 -0.114545E-03  0.105E-02    0.71       1.0  T
  15   -186.5240374 -0.124275E-04  0.577E-03    0.70       1.7  T
  16   -186.5240346  0.283995E-05  0.715E-03    0.70       1.4  T
  17   -186.5240388 -0.422026E-05  0.392E-03    0.70       2.5  T
  18   -186.5240404 -0.159586E-05  0.143E-03    0.70       6.8  T
  19   -186.5240405 -0.975807E-07  0.864E-04    0.70      11.2  T
  20   -186.5240405 -0.629884E-07  0.415E-04    0.70      23.3  T

   *** convergence criteria satisfied after 20 iterations ***

         #    Occupation            Energy/Eh            Energy/eV
      -------------------------------------------------------------
         1        2.0000           -0.7742456             -21.0683
       ...           ...                  ...                  ...
       163        2.0000           -0.3966184             -10.7925
       164        2.0000           -0.3932328             -10.7004
       165        2.0000           -0.3923428             -10.6762
       166        2.0000           -0.3873057             -10.5391
       167        2.0000           -0.3846361             -10.4665
       168        2.0000           -0.3740721             -10.1790
       169        2.0000           -0.3715702             -10.1109 (HOMO)
       170        0.0000           -0.3456763              -9.4063 (LUMO)
       171        0.0000           -0.3431383              -9.3373
       172                         -0.3229773              -8.7887
       173                         -0.3199300              -8.7057
       174                         -0.3098328              -8.4310
       ...                                ...                  ...
       337                          3.2955738              89.6771
      -------------------------------------------------------------
                  HL-Gap            0.0258939 Eh            0.7046 eV
             Fermi-level           -0.3586220 Eh           -9.7586 eV

 SCC (total)                   0 d,  0 h,  0 min,  0.325 sec
 SCC setup                      ...        0 min,  0.001 sec (  0.201%)
 Dispersion                     ...        0 min,  0.004 sec (  1.202%)
 classical contributions        ...        0 min,  0.000 sec (  0.041%)
 integral evaluation            ...        0 min,  0.013 sec (  3.886%)
 iterations                     ...        0 min,  0.272 sec ( 83.648%)
 molecular gradient             ...        0 min,  0.035 sec ( 10.709%)
 printout                       ...        0 min,  0.001 sec (  0.287%)

         :::::::::::::::::::::::::::::::::::::::::::::::::::::
         ::                     SUMMARY                     ::
         :::::::::::::::::::::::::::::::::::::::::::::::::::::
         :: total energy            -183.221943867264 Eh    ::
         :: gradient norm              1.552975468319 Eh/a0 ::
         :: HOMO-LUMO gap              0.704608159928 eV    ::
         ::.................................................::
         :: SCC energy              -186.524040541642 Eh    ::
         :: -> isotropic ES            0.155970733600 Eh    ::
         :: -> anisotropic ES          0.009609653068 Eh    ::
         :: -> anisotropic XC          0.107156571478 Eh    ::
         :: -> dispersion             -0.166745191021 Eh    ::
         :: repulsion energy           3.299947219764 Eh    ::
         :: add. restraining           0.000000000000 Eh    ::
         :: total charge              -0.000000000000 e     ::
         :::::::::::::::::::::::::::::::::::::::::::::::::::::

      ----------------------------------------------------------- 
     |                   =====================                   |
     |                        A N C O P T                        |
     |                   =====================                   |
     |               Approximate Normal Coordinate               |
     |                Rational Function Optimizer                |
      ----------------------------------------------------------- 

          ...................................................
          :                      SETUP                      :
          :.................................................:
          :   optimization level            normal          :
          :   max. optcycles                   321          :
          :   ANC micro-cycles                  20          :
          :   degrees of freedom               315          :
          :.................................................:
          :   RF solver                   davidson          :
          :   write xtbopt.log                true          :
          :   linear?                        false          :
          :   energy convergence         0.5000000E-05 Eh   :
          :   grad. convergence          0.1000000E-02 Eh/α :
          :   maximium RF displ.         1.0000000          :
          :   Hlow (freq-cutoff)         0.1000000E-01      :
          :   Hmax (freq-cutoff)         5.0000000          :
          :   S6 in model hess.         20.0000000          :
          ...................................................

generating ANC from model Hessian ...
Using Lindh-Hessian (1995)
 Shifting diagonal of input Hessian by   1.010728804415922E-002
 Lowest  eigenvalues of input Hessian
    0.010000    0.000000    0.000000    0.000000    0.000000    0.000000
    0.000000    0.010114    0.010133    0.010164    0.010193    0.010235
    0.010361    0.010429    0.010559    0.010631    0.010866    0.011109
 Highest eigenvalues
    2.498129    2.533561    2.775729    2.820778    2.942157    3.873232
 

........................................................................
.............................. CYCLE    1 ..............................
........................................................................
   1   -186.5240406 -0.186524E+03  0.182E-04    0.70       0.0  T
   2   -186.5240404  0.196692E-06  0.111E-03    0.70       8.7  T
   3   -186.5240406 -0.193711E-06  0.206E-04    0.70      46.8  T
   4   -186.5240406 -0.533268E-08  0.999E-05    0.70      96.7  T
     SCC iter.                  ...        0 min,  0.056 sec
     gradient                   ...        0 min,  0.034 sec
 * total energy  :  -183.2219439 Eh     change       -0.1734156E-07 Eh
   gradient norm :     1.5529764 Eh/α   predicted     0.0000000E+00 (-100.00%)
   displ. norm   :     0.5560535 α      lambda       -0.7713478E+00
   maximum displ.:     0.2227978 α      in ANC's #315, #312, #281, ...

........................................................................
.............................. CYCLE    2 ..............................
........................................................................
   1   -186.6848541 -0.186685E+03  0.650E-01    0.82       0.0  T
   2   -186.6920226 -0.716851E-02  0.433E-01    0.90       1.0  T
   3   -186.6915234  0.499139E-03  0.222E-01    0.77       1.0  T
   4   -186.6796293  0.118941E-01  0.355E-01    0.91       1.0  T
   5   -186.6950603 -0.154309E-01  0.999E-02    0.85       1.0  T
   6   -186.6959052 -0.844855E-03  0.562E-02    0.84       1.0  T
   7   -186.6961376 -0.232441E-03  0.247E-02    0.83       1.0  T
   8   -186.6962013 -0.637572E-04  0.770E-03    0.84       1.3  T
   9   -186.6962060 -0.460535E-05  0.420E-03    0.84       2.3  T
  10   -186.6962069 -0.992193E-06  0.225E-03    0.84       4.3  T
  11   -186.6962072 -0.206728E-06  0.105E-03    0.84       9.2  T
  12   -186.6962072 -0.471792E-07  0.565E-04    0.84      17.1  T
  13   -186.6962072 -0.901161E-08  0.369E-04    0.84      26.2  T
     SCC iter.                  ...        0 min,  0.170 sec
     gradient                   ...        0 min,  0.034 sec
 * total energy  :  -183.7333596 Eh     change       -0.5114157E+00 Eh
   gradient norm :     0.6894251 Eh/α   predicted    -0.5049461E+00 (  -1.27%)
   displ. norm   :     0.6872578 α      lambda       -0.4143228E+00
   maximum displ.:     0.2597391 α      in ANC's #190, #184, #161, ...

........................................................................
.............................. CYCLE    3 ..............................
........................................................................
   1   -187.0008325 -0.187001E+03  0.572E-01    0.95       0.0  T
   2   -187.0075058 -0.667328E-02  0.368E-01    1.01       1.0  T
   3   -187.0070016  0.504216E-03  0.247E-01    0.92       1.0  T
   4   -187.0081540 -0.115242E-02  0.145E-01    0.96       1.0  T
   5   -187.0101330 -0.197896E-02  0.433E-02    0.95       1.0  T
   6   -187.0102685 -0.135528E-03  0.267E-02    0.95       1.0  T
   7   -187.0103378 -0.692883E-04  0.783E-03    0.96       1.2  T
   8   -187.0103399 -0.207412E-05  0.473E-03    0.95       2.0  T
   9   -187.0103412 -0.135648E-05  0.286E-03    0.95       3.4  T
  10   -187.0103417 -0.444681E-06  0.151E-03    0.95       6.4  T
  11   -187.0103417 -0.648016E-07  0.908E-04    0.95      10.7  T
  12   -187.0103418 -0.393710E-07  0.348E-04    0.95      27.8  T
     SCC iter.                  ...        0 min,  0.154 sec
     gradient                   ...        0 min,  0.034 sec
 * total energy  :  -184.0329853 Eh     change       -0.2996257E+00 Eh
   gradient norm :     0.3714865 Eh/α   predicted    -0.3050106E+00 (   1.80%)
   displ. norm   :     0.5548192 α      lambda       -0.1441565E+00
   maximum displ.:     0.1514288 α      in ANC's #314, #147, #92, ...

........................................................................
.............................. CYCLE    4 ..............................
........................................................................
   1   -187.0321366 -0.187032E+03  0.427E-01    1.02       0.0  T
   2   -187.0319835  0.153100E-03  0.305E-01    0.99       1.0  T
   3   -187.0335748 -0.159124E-02  0.215E-01    1.01       1.0  T
   4   -187.0358641 -0.228933E-02  0.977E-02    1.02       1.0  T
   5   -187.0367459 -0.881742E-03  0.278E-02    1.00       1.0  T
   6   -187.0368002 -0.543413E-04  0.134E-02    1.01       1.0  T
   7   -187.0368073 -0.707913E-05  0.630E-03    1.01       1.5  T
   8   -187.0368084 -0.112101E-05  0.359E-03    1.01       2.7  T
   9   -187.0368085 -0.767677E-07  0.245E-03    1.01       4.0  T
  10   -187.0368088 -0.321609E-06  0.106E-03    1.01       9.1  T
  11   -187.0368089 -0.835459E-07  0.448E-04    1.01      21.6  T
  12   -187.0368089 -0.776097E-08  0.277E-04    1.01      34.9  T
     SCC iter.                  ...        0 min,  0.163 sec
     gradient                   ...        0 min,  0.034 sec
 * total energy  :  -184.1389716 Eh     change       -0.1059863E+00 Eh
   gradient norm :     0.2780790 Eh/α   predicted    -0.9426573E-01 ( -11.06%)
   displ. norm   :     0.5716490 α      lambda       -0.9957062E-01
   maximum displ.:     0.2127268 α      in ANC's #314, #92, #161, ...

........................................................................
.............................. CYCLE    5 ..............................
........................................................................
   1   -187.0904339 -0.187090E+03  0.457E-01    1.10       0.0  T
   2   -187.0913161 -0.882278E-03  0.314E-01    1.08       1.0  T
   3   -187.0944668 -0.315069E-02  0.204E-01    1.09       1.0  T
   4   -187.0961000 -0.163312E-02  0.104E-01    1.11       1.0  T
   5   -187.0970160 -0.915997E-03  0.329E-02    1.08       1.0  T
   6   -187.0971059 -0.899636E-04  0.138E-02    1.09       1.0  T
   7   -187.0971166 -0.106662E-04  0.714E-03    1.09       1.4  T
   8   -187.0971189 -0.227378E-05  0.392E-03    1.09       2.5  T
   9   -187.0971197 -0.849388E-06  0.201E-03    1.09       4.8  T
  10   -187.0971198 -0.508499E-07  0.116E-03    1.09       8.4  T
  11   -187.0971198 -0.656393E-07  0.501E-04    1.09      19.3  T
  12   -187.0971198 -0.137956E-07  0.238E-04    1.09      40.6  T
     SCC iter.                  ...        0 min,  0.158 sec
     gradient                   ...        0 min,  0.033 sec
 * total energy  :  -184.1999497 Eh     change       -0.6097810E-01 Eh
   gradient norm :     0.3349350 Eh/α   predicted    -0.6605423E-01 (   8.32%)
   displ. norm   :     0.5052189 α      lambda       -0.8368788E-01
   maximum displ.:     0.1964399 α      in ANC's #314, #39, #63, ...

........................................................................
.............................. CYCLE    6 ..............................
........................................................................
   1   -187.0342462 -0.187034E+03  0.401E-01    1.16       0.0  T
   2   -187.0355646 -0.131834E-02  0.240E-01    1.10       1.0  T
   3   -187.0357174 -0.152859E-03  0.179E-01    1.15       1.0  T
   4   -187.0372805 -0.156310E-02  0.767E-02    1.15       1.0  T
   5   -187.0377606 -0.480043E-03  0.278E-02    1.13       1.0  T
   6   -187.0378307 -0.700888E-04  0.102E-02    1.14       1.0  T
   7   -187.0378358 -0.513738E-05  0.575E-03    1.14       1.7  T
   8   -187.0378373 -0.147705E-05  0.297E-03    1.14       3.3  T
   9   -187.0378377 -0.425926E-06  0.145E-03    1.14       6.7  T
  10   -187.0378378 -0.364386E-07  0.776E-04    1.14      12.5  T
  11   -187.0378378 -0.303139E-07  0.336E-04    1.14      28.8  T
     SCC iter.                  ...        0 min,  0.147 sec
     gradient                   ...        0 min,  0.034 sec
 * total energy  :  -184.2493345 Eh     change       -0.4938481E-01 Eh
   gradient norm :     0.2386194 Eh/α   predicted    -0.5252446E-01 (   6.36%)
   displ. norm   :     0.4671220 α      lambda       -0.5881594E-01
   maximum displ.:     0.1455180 α      in ANC's #314, #148, #34, ...

........................................................................
.............................. CYCLE    7 ..............................
........................................................................
   1   -187.0524047 -0.187052E+03  0.331E-01    1.24       0.0  T
   2   -187.0533713 -0.966652E-03  0.189E-01    1.18       1.0  T
   3   -187.0532378  0.133542E-03  0.117E-01    1.22       1.0  T
   4   -187.0538277 -0.589949E-03  0.365E-02    1.21       1.0  T
   5   -187.0539069 -0.792040E-04  0.118E-02    1.20       1.0  T
   6   -187.0539122 -0.528698E-05  0.520E-03    1.20       1.9  T
   7   -187.0539130 -0.809232E-06  0.282E-03    1.21       3.4  T
   8   -187.0539134 -0.342275E-06  0.155E-03    1.20       6.2  T
   9   -187.0539134 -0.848336E-07  0.794E-04    1.20      12.2  T
  10   -187.0539135 -0.152613E-07  0.433E-04    1.20      22.3  T
     SCC iter.                  ...        0 min,  0.134 sec
     gradient                   ...        0 min,  0.034 sec
 * total energy  :  -184.2917408 Eh     change       -0.4240622E-01 Eh
   gradient norm :     0.1463867 Eh/α   predicted    -0.3582487E-01 ( -15.52%)
   displ. norm   :     0.4698859 α      lambda       -0.3647394E-01
   maximum displ.:     0.1062706 α      in ANC's #314, #21, #12, ...

........................................................................
.............................. CYCLE    8 ..............................
........................................................................
   1   -187.1108832 -0.187111E+03  0.316E-01    1.26       0.0  T
   2   -187.1112267 -0.343483E-03  0.186E-01    1.21       1.0  T
   3   -187.1101051  0.112158E-02  0.125E-01    1.28       1.0  T
   4   -187.1115220 -0.141687E-02  0.333E-02    1.24       1.0  T
   5   -187.1116130 -0.910604E-04  0.128E-02    1.24       1.0  T
   6   -187.1116204 -0.738082E-05  0.603E-03    1.24       1.6  T
   7   -187.1116227 -0.224790E-05  0.282E-03    1.24       3.4  T
   8   -187.1116228 -0.135683E-06  0.155E-03    1.24       6.2  T
   9   -187.1116229 -0.701471E-07  0.857E-04    1.24      11.3  T
  10   -187.1116229 -0.337700E-07  0.384E-04    1.24      25.2  T
     SCC iter.                  ...        0 min,  0.132 sec
     gradient                   ...        0 min,  0.034 sec
 * total energy  :  -184.3133889 Eh     change       -0.2164817E-01 Eh
   gradient norm :     0.0812178 Eh/α   predicted    -0.2226357E-01 (   2.84%)
   displ. norm   :     0.5029474 α      lambda       -0.1538575E-01
   maximum displ.:     0.1616215 α      in ANC's #21, #23, #34, ...

........................................................................
.............................. CYCLE    9 ..............................
........................................................................
   1   -187.1378649 -0.187138E+03  0.249E-01    1.24       0.0  T
   2   -187.1380176 -0.152671E-03  0.142E-01    1.27       1.0  T
   3   -187.1372558  0.761791E-03  0.969E-02    1.25       1.0  T
   4   -187.1381726 -0.916836E-03  0.204E-02    1.26       1.0  T
   5   -187.1382060 -0.333933E-04  0.104E-02    1.26       1.0  T
   6   -187.1382132 -0.721317E-05  0.399E-03    1.26       2.4  T
   7   -187.1382136 -0.384739E-06  0.210E-03    1.26       4.6  T
   8   -187.1382138 -0.162512E-06  0.887E-04    1.26      10.9  T
   9   -187.1382138 -0.191676E-08  0.600E-04    1.26      16.1  T
     SCC iter.                  ...        0 min,  0.121 sec
     gradient                   ...        0 min,  0.034 sec
 * total energy  :  -184.3234664 Eh     change       -0.1007750E-01 Eh
   gradient norm :     0.0637198 Eh/α   predicted    -0.9638654E-02 (  -4.35%)
   displ. norm   :     0.5890984 α      lambda       -0.9372398E-02
   maximum displ.:     0.1965925 α      in ANC's #21, #23, #28, ...

........................................................................
.............................. CYCLE   10 ..............................
........................................................................
   1   -187.1568778 -0.187157E+03  0.191E-01    1.25       0.0  T
   2   -187.1569295 -0.517470E-04  0.109E-01    1.28       1.0  T
   3   -187.1565696  0.359886E-03  0.648E-02    1.26       1.0  T
   4   -187.1569898 -0.420140E-03  0.120E-02    1.28       1.0  T
   5   -187.1569938 -0.400150E-05  0.832E-03    1.28       1.2  T
   6   -187.1569981 -0.434962E-05  0.267E-03    1.28       3.6  T
   7   -187.1569985 -0.377805E-06  0.129E-03    1.28       7.5  T
   8   -187.1569986 -0.474272E-07  0.693E-04    1.28      14.0  T
   9   -187.1569986 -0.108038E-07  0.420E-04    1.28      23.0  T
     SCC iter.                  ...        0 min,  0.119 sec
     gradient                   ...        0 min,  0.034 sec
 * total energy  :  -184.3308859 Eh     change       -0.7419443E-02 Eh
   gradient norm :     0.0499062 Eh/α   predicted    -0.6312452E-02 ( -14.92%)
   displ. norm   :     0.6874664 α      lambda       -0.8021606E-02
   maximum displ.:     0.2356691 α      in ANC's #21, #8, #23, ...

........................................................................
.............................. CYCLE   11 ..............................
........................................................................
   1   -187.1622519 -0.187162E+03  0.192E-01    1.26       0.0  T
   2   -187.1623005 -0.486580E-04  0.112E-01    1.29       1.0  T
   3   -187.1617015  0.599033E-03  0.798E-02    1.26       1.0  T
   4   -187.1624097 -0.708261E-03  0.132E-02    1.28       1.0  T
   5   -187.1624176 -0.781963E-05  0.783E-03    1.28       1.2  T
   6   -187.1624211 -0.352837E-05  0.313E-03    1.28       3.1  T
   7   -187.1624215 -0.430489E-06  0.161E-03    1.28       6.0  T
   8   -187.1624216 -0.917897E-07  0.903E-04    1.28      10.7  T
   9   -187.1624216 -0.138546E-07  0.574E-04    1.28      16.8  T
     SCC iter.                  ...        0 min,  0.119 sec
     gradient                   ...        0 min,  0.034 sec
 * total energy  :  -184.3370151 Eh     change       -0.6129189E-02 Eh
   gradient norm :     0.0381166 Eh/α   predicted    -0.5906329E-02 (  -3.64%)
   displ. norm   :     0.7311952 α      lambda       -0.7311580E-02
   maximum displ.:     0.2594804 α      in ANC's #8, #21, #23, ...

........................................................................
.............................. CYCLE   12 ..............................
........................................................................
   1   -187.1743697 -0.187174E+03  0.254E-01    1.27       0.0  T
   2   -187.1744589 -0.892612E-04  0.144E-01    1.29       1.0  T
   3   -187.1739428  0.516191E-03  0.779E-02    1.27       1.0  T
   4   -187.1745462 -0.603429E-03  0.112E-02    1.28       1.0  T
   5   -187.1745474 -0.121456E-05  0.964E-03    1.28       1.0  T
   6   -187.1745532 -0.579689E-05  0.297E-03    1.28       3.3  T
   7   -187.1745536 -0.397798E-06  0.126E-03    1.28       7.7  T
   8   -187.1745537 -0.838065E-07  0.687E-04    1.28      14.1  T
   9   -187.1745537 -0.148031E-07  0.395E-04    1.28      24.5  T
     SCC iter.                  ...        0 min,  0.118 sec
     gradient                   ...        0 min,  0.033 sec
 * total energy  :  -184.3413154 Eh     change       -0.4300310E-02 Eh
   gradient norm :     0.0352986 Eh/α   predicted    -0.5610327E-02 (  30.46%)
   displ. norm   :     0.6202882 α      lambda       -0.5570360E-02
   maximum displ.:     0.2516440 α      in ANC's #8, #21, #23, ...

........................................................................
.............................. CYCLE   13 ..............................
........................................................................
   1   -187.1790495 -0.187179E+03  0.163E-01    1.29       0.0  T
   2   -187.1790752 -0.257018E-04  0.959E-02    1.30       1.0  T
   3   -187.1785849  0.490296E-03  0.728E-02    1.28       1.0  T
   4   -187.1791727 -0.587718E-03  0.971E-03    1.30       1.0  T
   5   -187.1791775 -0.482412E-05  0.555E-03    1.29       1.7  T
   6   -187.1791793 -0.184471E-05  0.235E-03    1.30       4.1  T
   7   -187.1791795 -0.204195E-06  0.119E-03    1.30       8.1  T
   8   -187.1791796 -0.673427E-07  0.601E-04    1.30      16.1  T
   9   -187.1791796 -0.103724E-07  0.354E-04    1.30      27.3  T
     SCC iter.                  ...        0 min,  0.118 sec
     gradient                   ...        0 min,  0.034 sec
 * total energy  :  -184.3457104 Eh     change       -0.4395046E-02 Eh
   gradient norm :     0.0285450 Eh/α   predicted    -0.3856795E-02 ( -12.25%)
   displ. norm   :     0.6603072 α      lambda       -0.4744352E-02
   maximum displ.:     0.2845266 α      in ANC's #8, #21, #13, ...

........................................................................
.............................. CYCLE   14 ..............................
........................................................................
   1   -187.1828019 -0.187183E+03  0.161E-01    1.31       0.0  T
   2   -187.1828308 -0.288557E-04  0.931E-02    1.31       1.0  T
   3   -187.1825121  0.318641E-03  0.588E-02    1.30       1.0  T
   4   -187.1828755 -0.363412E-03  0.820E-03    1.31       1.2  T
   5   -187.1828797 -0.414592E-05  0.439E-03    1.31       2.2  T
   6   -187.1828806 -0.869334E-06  0.203E-03    1.31       4.8  T
   7   -187.1828808 -0.231068E-06  0.793E-04    1.31      12.2  T
   8   -187.1828808 -0.167709E-07  0.399E-04    1.31      24.3  T
     SCC iter.                  ...        0 min,  0.107 sec
     gradient                   ...        0 min,  0.033 sec
 * total energy  :  -184.3494143 Eh     change       -0.3703846E-02 Eh
   gradient norm :     0.0298473 Eh/α   predicted    -0.3406464E-02 (  -8.03%)
   displ. norm   :     0.7208810 α      lambda       -0.4392846E-02
   maximum displ.:     0.3410805 α      in ANC's #8, #21, #28, ...

........................................................................
.............................. CYCLE   15 ..............................
........................................................................
   1   -187.1955620 -0.187196E+03  0.154E-01    1.32       0.0  T
   2   -187.1956596 -0.975917E-04  0.908E-02    1.32       1.0  T
   3   -187.1953376  0.321941E-03  0.568E-02    1.32       1.0  T
   4   -187.1957109 -0.373260E-03  0.126E-02    1.32       1.0  T
   5   -187.1957274 -0.164887E-04  0.425E-03    1.32       2.3  T
   6   -187.1957283 -0.903319E-06  0.215E-03    1.32       4.5  T
   7   -187.1957284 -0.130949E-06  0.860E-04    1.32      11.2  T
   8   -187.1957285 -0.412975E-07  0.399E-04    1.32      24.3  T
     SCC iter.                  ...        0 min,  0.112 sec
     gradient                   ...        0 min,  0.034 sec
 * total energy  :  -184.3525057 Eh     change       -0.3091467E-02 Eh
   gradient norm :     0.0423360 Eh/α   predicted    -0.3337833E-02 (   7.97%)
   displ. norm   :     0.6567281 α      lambda       -0.4017635E-02
   maximum displ.:     0.3327114 α      in ANC's #8, #10, #21, ...

........................................................................
.............................. CYCLE   16 ..............................
........................................................................
   1   -187.1983991 -0.187198E+03  0.155E-01    1.31       0.0  T
   2   -187.1985324 -0.133293E-03  0.913E-02    1.32       1.0  T
   3   -187.1983434  0.189002E-03  0.417E-02    1.31       1.0  T
   4   -187.1985466 -0.203164E-03  0.152E-02    1.31       1.0  T
   5   -187.1985728 -0.262173E-04  0.451E-03    1.31       2.1  T
   6   -187.1985739 -0.112053E-05  0.229E-03    1.31       4.2  T
   7   -187.1985741 -0.178427E-06  0.101E-03    1.31       9.5  T
   8   -187.1985741 -0.665072E-07  0.401E-04    1.31      24.1  T
   9   -187.1985741 -0.695593E-08  0.233E-04    1.31      41.4  T
     SCC iter.                  ...        0 min,  0.119 sec
     gradient                   ...        0 min,  0.034 sec
 * total energy  :  -184.3550856 Eh     change       -0.2579912E-02 Eh
   gradient norm :     0.0349735 Eh/α   predicted    -0.2875202E-02 (  11.45%)
   displ. norm   :     0.6486126 α      lambda       -0.3648106E-02
   maximum displ.:     0.3645258 α      in ANC's #8, #10, #13, ...

........................................................................
.............................. CYCLE   17 ..............................
........................................................................
   1   -187.1807069 -0.187181E+03  0.166E-01    1.31       0.0  T
   2   -187.1809427 -0.235765E-03  0.981E-02    1.30       1.0  T
   3   -187.1807195  0.223242E-03  0.542E-02    1.30       1.0  T
   4   -187.1809810 -0.261561E-03  0.190E-02    1.31       1.0  T
   5   -187.1810238 -0.427565E-04  0.505E-03    1.30       1.9  T
   6   -187.1810254 -0.167847E-05  0.237E-03    1.30       4.1  T
   7   -187.1810256 -0.134647E-06  0.124E-03    1.30       7.8  T
   8   -187.1810257 -0.118686E-06  0.469E-04    1.30      20.6  T
   9   -187.1810257 -0.104411E-07  0.253E-04    1.30      38.2  T
     SCC iter.                  ...        0 min,  0.120 sec
     gradient                   ...        0 min,  0.034 sec
 * total energy  :  -184.3566834 Eh     change       -0.1597800E-02 Eh
   gradient norm :     0.0582008 Eh/α   predicted    -0.2591438E-02 (  62.19%)
   displ. norm   :     0.4609367 α      lambda       -0.3834910E-02
   maximum displ.:     0.2827013 α      in ANC's #8, #10, #13, ...

........................................................................
.............................. CYCLE   18 ..............................
........................................................................
   1   -187.2021004 -0.187202E+03  0.123E-01    1.31       0.0  T
   2   -187.2021552 -0.548022E-04  0.709E-02    1.31       1.0  T
   3   -187.2020724  0.827507E-04  0.310E-02    1.31       1.0  T
   4   -187.2021699 -0.974569E-04  0.785E-03    1.31       1.2  T
   5   -187.2021751 -0.518695E-05  0.334E-03    1.31       2.9  T
   6   -187.2021757 -0.624439E-06  0.161E-03    1.31       6.0  T
   7   -187.2021758 -0.134345E-06  0.738E-04    1.31      13.1  T
   8   -187.2021758 -0.294814E-07  0.320E-04    1.31      30.2  T
     SCC iter.                  ...        0 min,  0.106 sec
     gradient                   ...        0 min,  0.033 sec
 * total energy  :  -184.3590528 Eh     change       -0.2369406E-02 Eh
   gradient norm :     0.0240469 Eh/α   predicted    -0.2324841E-02 (  -1.88%)
   displ. norm   :     0.5763306 α      lambda       -0.2742799E-02
   maximum displ.:     0.3693930 α      in ANC's #8, #10, #14, ...

........................................................................
.............................. CYCLE   19 ..............................
........................................................................
   1   -187.2075197 -0.187208E+03  0.105E-01    1.30       0.0  T
   2   -187.2075431 -0.233932E-04  0.603E-02    1.31       1.0  T
   3   -187.2074859  0.571945E-04  0.240E-02    1.30       1.0  T
   4   -187.2075521 -0.661258E-04  0.604E-03    1.31       1.6  T
   5   -187.2075541 -0.205627E-05  0.320E-03    1.30       3.0  T
   6   -187.2075546 -0.434124E-06  0.153E-03    1.30       6.3  T
   7   -187.2075547 -0.126753E-06  0.509E-04    1.30      19.0  T
   8   -187.2075547 -0.653580E-08  0.344E-04    1.30      28.1  T
     SCC iter.                  ...        0 min,  0.109 sec
     gradient                   ...        0 min,  0.033 sec
 * total energy  :  -184.3610064 Eh     change       -0.1953585E-02 Eh
   gradient norm :     0.0282351 Eh/α   predicted    -0.1826921E-02 (  -6.48%)
   displ. norm   :     0.6619258 α      lambda       -0.3069396E-02
   maximum displ.:     0.4619801 α      in ANC's #8, #10, #14, ...

........................................................................
.............................. CYCLE   20 ..............................
........................................................................
   1   -187.2136195 -0.187214E+03  0.161E-01    1.29       0.0  T
   2   -187.2136655 -0.460732E-04  0.908E-02    1.29       1.0  T
   3   -187.2135819  0.836149E-04  0.283E-02    1.29       1.0  T
   4   -187.2136800 -0.980697E-04  0.820E-03    1.29       1.2  T
   5   -187.2136843 -0.428765E-05  0.387E-03    1.29       2.5  T
   6   -187.2136847 -0.446906E-06  0.209E-03    1.29       4.6  T
   7   -187.2136850 -0.322340E-06  0.687E-04    1.29      14.1  T
   8   -187.2136851 -0.271547E-07  0.323E-04    1.29      30.0  T
     SCC iter.                  ...        0 min,  0.105 sec
     gradient                   ...        0 min,  0.033 sec
 * total energy  :  -184.3627025 Eh     change       -0.1696089E-02 Eh
   gradient norm :     0.0348084 Eh/α   predicted    -0.2207129E-02 (  30.13%)
   displ. norm   :     0.6018748 α      lambda       -0.2991146E-02
   maximum displ.:     0.4143865 α      in ANC's #8, #10, #14, ...
 * RMSD in coord.:     0.7859607 α      energy gain  -0.1140759E+01 Eh

generating ANC from model Hessian ...
Using Lindh-Hessian (1995)
 Shifting diagonal of input Hessian by   1.060642040125083E-002
 Lowest  eigenvalues of input Hessian
    0.010000    0.000000    0.000000    0.000000    0.000000    0.000000
    0.000000    0.010619    0.010638    0.010701    0.010718    0.010767
    0.010841    0.010931    0.011161    0.011215    0.011315    0.011610
 Highest eigenvalues
    2.253160    2.279677    2.297530    2.415071    2.599465    2.636023
 

........................................................................
.............................. CYCLE   21 ..............................
........................................................................
   1   -187.2060535 -0.187206E+03  0.114E-01    1.29       0.0  T
   2   -187.2060726 -0.191602E-04  0.660E-02    1.29       1.0  T
   3   -187.2059856  0.870331E-04  0.321E-02    1.29       1.0  T
   4   -187.2060843 -0.986852E-04  0.514E-03    1.29       1.9  T
   5   -187.2060843 -0.222187E-08  0.379E-03    1.29       2.6  T
   6   -187.2060851 -0.789816E-06  0.126E-03    1.29       7.7  T
   7   -187.2060851 -0.715153E-07  0.614E-04    1.29      15.7  T
   8   -187.2060852 -0.296991E-07  0.275E-04    1.29      35.2  T
     SCC iter.                  ...        0 min,  0.107 sec
     gradient                   ...        0 min,  0.033 sec
 * total energy  :  -184.3648799 Eh     change       -0.2177365E-02 Eh
   gradient norm :     0.0186872 Eh/α   predicted     0.0000000E+00 (-100.00%)
   displ. norm   :     0.2437810 α      lambda       -0.1253029E-02
   maximum displ.:     0.1566148 α      in ANC's #8, #25, #13, ...

........................................................................
.............................. CYCLE   22 ..............................
........................................................................
   1   -187.2111632 -0.187211E+03  0.634E-02    1.30       0.0  T
   2   -187.2111717 -0.845112E-05  0.359E-02    1.30       1.0  T
   3   -187.2111500  0.217191E-04  0.153E-02    1.30       1.0  T
   4   -187.2111758 -0.258604E-04  0.336E-03    1.30       2.9  T
   5   -187.2111765 -0.622618E-06  0.163E-03    1.30       5.9  T
   6   -187.2111766 -0.106340E-06  0.780E-04    1.30      12.4  T
   7   -187.2111766 -0.313798E-07  0.295E-04    1.30      32.8  T
     SCC iter.                  ...        0 min,  0.093 sec
     gradient                   ...        0 min,  0.033 sec
 * total energy  :  -184.3659602 Eh     change       -0.1080299E-02 Eh
   gradient norm :     0.0089533 Eh/α   predicted    -0.6638297E-03 ( -38.55%)
   displ. norm   :     0.6093016 α      lambda       -0.2281729E-02
   maximum displ.:     0.3798789 α      in ANC's #8, #13, #25, ...

........................................................................
.............................. CYCLE   23 ..............................
........................................................................
   1   -187.2126635 -0.187213E+03  0.154E-01    1.30       0.0  T
   2   -187.2127040 -0.404938E-04  0.865E-02    1.30       1.0  T
   3   -187.2126305  0.735037E-04  0.310E-02    1.30       1.0  T
   4   -187.2127237 -0.931724E-04  0.621E-03    1.30       1.6  T
   5   -187.2127246 -0.973540E-06  0.361E-03    1.30       2.7  T
   6   -187.2127253 -0.622059E-06  0.151E-03    1.30       6.4  T
   7   -187.2127254 -0.139269E-06  0.609E-04    1.30      15.9  T
   8   -187.2127254 -0.268938E-07  0.323E-04    1.30      29.9  T
     SCC iter.                  ...        0 min,  0.104 sec
     gradient                   ...        0 min,  0.034 sec
 * total energy  :  -184.3677162 Eh     change       -0.1755984E-02 Eh
   gradient norm :     0.0187115 Eh/α   predicted    -0.1564409E-02 ( -10.91%)
   displ. norm   :     0.6605312 α      lambda       -0.2012496E-02
   maximum displ.:     0.4119712 α      in ANC's #8, #6, #11, ...

........................................................................
.............................. CYCLE   24 ..............................
........................................................................
   1   -187.2127534 -0.187213E+03  0.155E-01    1.31       0.0  T
   2   -187.2127893 -0.359587E-04  0.874E-02    1.31       1.0  T
   3   -187.2126990  0.903395E-04  0.334E-02    1.30       1.0  T
   4   -187.2128094 -0.110383E-03  0.509E-03    1.31       1.9  T
   5   -187.2128096 -0.232212E-06  0.348E-03    1.31       2.8  T
   6   -187.2128101 -0.471747E-06  0.126E-03    1.31       7.7  T
   7   -187.2128101 -0.761181E-07  0.497E-04    1.31      19.5  T
   8   -187.2128102 -0.130964E-07  0.270E-04    1.31      35.8  T
     SCC iter.                  ...        0 min,  0.104 sec
     gradient                   ...        0 min,  0.033 sec
 * total energy  :  -184.3690260 Eh     change       -0.1309829E-02 Eh
   gradient norm :     0.0218092 Eh/α   predicted    -0.1445275E-02 (  10.34%)
   displ. norm   :     0.5578340 α      lambda       -0.1783855E-02
   maximum displ.:     0.3715135 α      in ANC's #8, #6, #11, ...

........................................................................
.............................. CYCLE   25 ..............................
........................................................................
   1   -187.2133652 -0.187213E+03  0.120E-01    1.31       0.0  T
   2   -187.2133849 -0.197222E-04  0.680E-02    1.31       1.0  T
   3   -187.2133267  0.582208E-04  0.254E-02    1.30       1.0  T
   4   -187.2133975 -0.707480E-04  0.409E-03    1.31       2.4  T
   5   -187.2133974  0.230067E-07  0.262E-03    1.31       3.7  T
   6   -187.2133978 -0.365749E-06  0.104E-03    1.31       9.3  T
   7   -187.2133979 -0.781136E-07  0.407E-04    1.31      23.8  T
   8   -187.2133979 -0.660751E-08  0.249E-04    1.31      38.8  T
     SCC iter.                  ...        0 min,  0.106 sec
     gradient                   ...        0 min,  0.033 sec
 * total energy  :  -184.3704971 Eh     change       -0.1471123E-02 Eh
   gradient norm :     0.0215373 Eh/α   predicted    -0.1169488E-02 ( -20.50%)
   displ. norm   :     0.5904585 α      lambda       -0.2142504E-02
   maximum displ.:     0.4079886 α      in ANC's #8, #6, #11, ...

........................................................................
.............................. CYCLE   26 ..............................
........................................................................
   1   -187.2165117 -0.187217E+03  0.151E-01    1.30       0.0  T
   2   -187.2165518 -0.401156E-04  0.846E-02    1.30       1.0  T
   3   -187.2164761  0.757550E-04  0.290E-02    1.30       1.0  T
   4   -187.2165696 -0.934987E-04  0.565E-03    1.30       1.7  T
   5   -187.2165706 -0.103520E-05  0.319E-03    1.30       3.0  T
   6   -187.2165710 -0.363130E-06  0.155E-03    1.30       6.2  T
   7   -187.2165711 -0.163130E-06  0.569E-04    1.30      17.0  T
   8   -187.2165712 -0.158619E-07  0.330E-04    1.30      29.3  T
     SCC iter.                  ...        0 min,  0.104 sec
     gradient                   ...        0 min,  0.033 sec
 * total energy  :  -184.3719824 Eh     change       -0.1485317E-02 Eh
   gradient norm :     0.0180252 Eh/α   predicted    -0.1444734E-02 (  -2.73%)
   displ. norm   :     0.6792270 α      lambda       -0.1782833E-02
   maximum displ.:     0.4628527 α      in ANC's #8, #6, #11, ...

........................................................................
.............................. CYCLE   27 ..............................
........................................................................
   1   -187.2181966 -0.187218E+03  0.102E-01    1.31       0.0  T
   2   -187.2182114 -0.148395E-04  0.582E-02    1.31       1.0  T
   3   -187.2181528  0.586590E-04  0.253E-02    1.30       1.0  T
   4   -187.2182209 -0.680934E-04  0.462E-03    1.30       2.1  T
   5   -187.2182209 -0.339690E-07  0.271E-03    1.30       3.6  T
   6   -187.2182214 -0.458645E-06  0.104E-03    1.30       9.3  T
   7   -187.2182214 -0.573493E-07  0.472E-04    1.30      20.5  T
   8   -187.2182214 -0.940898E-08  0.231E-04    1.30      41.8  T
     SCC iter.                  ...        0 min,  0.106 sec
     gradient                   ...        0 min,  0.033 sec
 * total energy  :  -184.3734020 Eh     change       -0.1419610E-02 Eh
   gradient norm :     0.0125790 Eh/α   predicted    -0.1302671E-02 (  -8.24%)
   displ. norm   :     0.7596209 α      lambda       -0.1632242E-02
   maximum displ.:     0.5136272 α      in ANC's #8, #6, #11, ...

........................................................................
.............................. CYCLE   28 ..............................
........................................................................
   1   -187.2033651 -0.187203E+03  0.160E-01    1.30       0.0  T
   2   -187.2033999 -0.348382E-04  0.906E-02    1.30       1.0  T
   3   -187.2032039  0.195982E-03  0.475E-02    1.30       1.0  T
   4   -187.2034314 -0.227491E-03  0.729E-03    1.30       1.3  T
   5   -187.2034324 -0.946448E-06  0.471E-03    1.30       2.1  T
   6   -187.2034342 -0.180257E-05  0.165E-03    1.30       5.9  T
   7   -187.2034343 -0.154061E-06  0.627E-04    1.30      15.4  T
   8   -187.2034343 -0.213150E-07  0.314E-04    1.30      30.7  T
     SCC iter.                  ...        0 min,  0.107 sec
     gradient                   ...        0 min,  0.033 sec
 * total energy  :  -184.3741948 Eh     change       -0.7927685E-03 Eh
   gradient norm :     0.0359399 Eh/α   predicted    -0.1287049E-02 (  62.35%)
   displ. norm   :     0.4577930 α      lambda       -0.1883721E-02
   maximum displ.:     0.3342753 α      in ANC's #8, #6, #11, ...

........................................................................
.............................. CYCLE   29 ..............................
........................................................................
   1   -187.2168864 -0.187217E+03  0.665E-02    1.31       0.0  T
   2   -187.2168977 -0.112799E-04  0.383E-02    1.30       1.0  T
   3   -187.2168383  0.594415E-04  0.251E-02    1.31       1.0  T
   4   -187.2169066 -0.683063E-04  0.452E-03    1.30       2.1  T
   5   -187.2169073 -0.667129E-06  0.257E-03    1.30       3.8  T
   6   -187.2169077 -0.482037E-06  0.109E-03    1.30       8.9  T
   7   -187.2169078 -0.463506E-07  0.459E-04    1.30      21.1  T
   8   -187.2169078 -0.114204E-07  0.195E-04    1.30      49.5  T
     SCC iter.                  ...        0 min,  0.105 sec
     gradient                   ...        0 min,  0.033 sec
 * total energy  :  -184.3755163 Eh     change       -0.1321483E-02 Eh
   gradient norm :     0.0122479 Eh/α   predicted    -0.1139250E-02 ( -13.79%)
   displ. norm   :     0.6960051 α      lambda       -0.1280495E-02
   maximum displ.:     0.5074974 α      in ANC's #8, #6, #11, ...

........................................................................
.............................. CYCLE   30 ..............................
........................................................................
   1   -187.2183593 -0.187218E+03  0.100E-01    1.30       0.0  T
   2   -187.2183695 -0.101886E-04  0.564E-02    1.30       1.0  T
   3   -187.2183352  0.342631E-04  0.197E-02    1.30       1.0  T
   4   -187.2183759 -0.407071E-04  0.443E-03    1.30       2.2  T
   5   -187.2183760 -0.471546E-07  0.268E-03    1.30       3.6  T
   6   -187.2183765 -0.528515E-06  0.858E-04    1.30      11.3  T
   7   -187.2183765 -0.517583E-07  0.388E-04    1.30      24.9  T
     SCC iter.                  ...        0 min,  0.093 sec
     gradient                   ...        0 min,  0.033 sec
 * total energy  :  -184.3766532 Eh     change       -0.1136911E-02 Eh
   gradient norm :     0.0110802 Eh/α   predicted    -0.9503985E-03 ( -16.41%)
   displ. norm   :     0.7845765 α      lambda       -0.1392919E-02
   maximum displ.:     0.5756382 α      in ANC's #8, #6, #4, ...

........................................................................
.............................. CYCLE   31 ..............................
........................................................................
   1   -187.2194093 -0.187219E+03  0.132E-01    1.31       0.0  T
   2   -187.2194296 -0.203013E-04  0.744E-02    1.31       1.0  T
   3   -187.2193883  0.412650E-04  0.227E-02    1.30       1.0  T
   4   -187.2194396 -0.512391E-04  0.569E-03    1.31       1.7  T
   5   -187.2194399 -0.324613E-06  0.321E-03    1.30       3.0  T
   6   -187.2194408 -0.902405E-06  0.106E-03    1.31       9.1  T
   7   -187.2194409 -0.839908E-07  0.458E-04    1.31      21.1  T
   8   -187.2194409 -0.892862E-08  0.233E-04    1.31      41.6  T
     SCC iter.                  ...        0 min,  0.106 sec
     gradient                   ...        0 min,  0.033 sec
 * total energy  :  -184.3778218 Eh     change       -0.1168576E-02 Eh
   gradient norm :     0.0128215 Eh/α   predicted    -0.1125173E-02 (  -3.71%)
   displ. norm   :     0.7952030 α      lambda       -0.1379931E-02
   maximum displ.:     0.5753115 α      in ANC's #8, #4, #6, ...

........................................................................
.............................. CYCLE   32 ..............................
........................................................................
   1   -187.2187283 -0.187219E+03  0.113E-01    1.31       0.0  T
   2   -187.2187437 -0.154460E-04  0.646E-02    1.31       1.0  T
   3   -187.2186864  0.573492E-04  0.259E-02    1.31       1.0  T
   4   -187.2187531 -0.667204E-04  0.551E-03    1.31       1.8  T
   5   -187.2187535 -0.430409E-06  0.314E-03    1.31       3.1  T
   6   -187.2187542 -0.648355E-06  0.135E-03    1.31       7.2  T
   7   -187.2187543 -0.139770E-06  0.489E-04    1.31      19.8  T
   8   -187.2187543 -0.129009E-07  0.258E-04    1.31      37.4  T
     SCC iter.                  ...        0 min,  0.109 sec
     gradient                   ...        0 min,  0.033 sec
 * total energy  :  -184.3787783 Eh     change       -0.9565461E-03 Eh
   gradient norm :     0.0124492 Eh/α   predicted    -0.1126264E-02 (  17.74%)
   displ. norm   :     0.7214201 α      lambda       -0.1088052E-02
   maximum displ.:     0.5293477 α      in ANC's #8, #6, #4, ...

........................................................................
.............................. CYCLE   33 ..............................
........................................................................
   1   -187.2158957 -0.187216E+03  0.113E-01    1.31       0.0  T
   2   -187.2159078 -0.120551E-04  0.640E-02    1.31       1.0  T
   3   -187.2158295  0.783249E-04  0.292E-02    1.30       1.0  T
   4   -187.2159187 -0.892028E-04  0.532E-03    1.31       1.8  T
   5   -187.2159189 -0.194952E-06  0.337E-03    1.31       2.9  T
   6   -187.2159199 -0.109242E-05  0.837E-04    1.31      11.5  T
   7   -187.2159200 -0.381400E-07  0.414E-04    1.31      23.3  T
   8   -187.2159200 -0.106953E-07  0.188E-04    1.31      51.4  T
     SCC iter.                  ...        0 min,  0.104 sec
     gradient                   ...        0 min,  0.033 sec
 * total energy  :  -184.3796646 Eh     change       -0.8863148E-03 Eh
   gradient norm :     0.0115920 Eh/α   predicted    -0.8271645E-03 (  -6.67%)
   displ. norm   :     0.6787189 α      lambda       -0.9980705E-03
   maximum displ.:     0.4847172 α      in ANC's #8, #4, #2, ...

........................................................................
.............................. CYCLE   34 ..............................
........................................................................
   1   -187.2288586 -0.187229E+03  0.102E-01    1.31       0.0  T
   2   -187.2288694 -0.108180E-04  0.580E-02    1.31       1.0  T
   3   -187.2288219  0.474901E-04  0.221E-02    1.31       1.0  T
   4   -187.2288762 -0.543126E-04  0.476E-03    1.31       2.0  T
   5   -187.2288766 -0.360595E-06  0.276E-03    1.31       3.5  T
   6   -187.2288771 -0.500849E-06  0.114E-03    1.31       8.4  T
   7   -187.2288772 -0.875540E-07  0.431E-04    1.31      22.4  T
   8   -187.2288772 -0.877435E-08  0.198E-04    1.31      48.8  T
     SCC iter.                  ...        0 min,  0.102 sec
     gradient                   ...        0 min,  0.033 sec
 * total energy  :  -184.3803806 Eh     change       -0.7159376E-03 Eh
   gradient norm :     0.0117008 Eh/α   predicted    -0.7289218E-03 (   1.81%)
   displ. norm   :     0.7891280 α      lambda       -0.9611227E-03
   maximum displ.:     0.5688046 α      in ANC's #8, #4, #6, ...

........................................................................
.............................. CYCLE   35 ..............................
........................................................................
   1   -187.2192231 -0.187219E+03  0.113E-01    1.30       0.0  T
   2   -187.2192368 -0.137417E-04  0.639E-02    1.30       1.0  T
   3   -187.2191622  0.745660E-04  0.287E-02    1.30       1.0  T
   4   -187.2192484 -0.861467E-04  0.528E-03    1.30       1.8  T
   5   -187.2192485 -0.166809E-06  0.330E-03    1.30       2.9  T
   6   -187.2192494 -0.874510E-06  0.109E-03    1.30       8.8  T
   7   -187.2192495 -0.892622E-07  0.457E-04    1.30      21.1  T
   8   -187.2192495 -0.131635E-07  0.211E-04    1.30      45.7  T
     SCC iter.                  ...        0 min,  0.103 sec
     gradient                   ...        0 min,  0.033 sec
 * total energy  :  -184.3811041 Eh     change       -0.7235056E-03 Eh
   gradient norm :     0.0115198 Eh/α   predicted    -0.7798219E-03 (   7.78%)
   displ. norm   :     0.6413688 α      lambda       -0.7013976E-03
   maximum displ.:     0.4390013 α      in ANC's #8, #4, #2, ...

........................................................................
.............................. CYCLE   36 ..............................
........................................................................
   1   -187.2212781 -0.187221E+03  0.848E-02    1.30       0.0  T
   2   -187.2212847 -0.656120E-05  0.482E-02    1.30       1.0  T
   3   -187.2212413  0.434014E-04  0.200E-02    1.30       1.0  T
   4   -187.2212908 -0.494686E-04  0.373E-03    1.30       2.6  T
   5   -187.2212909 -0.155287E-06  0.207E-03    1.30       4.7  T
   6   -187.2212913 -0.338481E-06  0.819E-04    1.30      11.8  T
   7   -187.2212913 -0.518709E-07  0.322E-04    1.30      30.0  T
     SCC iter.                  ...        0 min,  0.091 sec
     gradient                   ...        0 min,  0.034 sec
 * total energy  :  -184.3816802 Eh     change       -0.5760643E-03 Eh
   gradient norm :     0.0073716 Eh/α   predicted    -0.4949658E-03 ( -14.08%)
   displ. norm   :     0.6772098 α      lambda       -0.7280270E-03
   maximum displ.:     0.4291602 α      in ANC's #8, #2, #4, ...

........................................................................
.............................. CYCLE   37 ..............................
........................................................................
   1   -187.2266500 -0.187227E+03  0.909E-02    1.30       0.0  T
   2   -187.2266588 -0.872311E-05  0.518E-02    1.30       1.0  T
   3   -187.2266126  0.462048E-04  0.199E-02    1.30       1.0  T
   4   -187.2266649 -0.522975E-04  0.433E-03    1.30       2.2  T
   5   -187.2266654 -0.525219E-06  0.247E-03    1.30       3.9  T
   6   -187.2266658 -0.413179E-06  0.921E-04    1.30      10.5  T
   7   -187.2266659 -0.648932E-07  0.312E-04    1.30      31.0  T
     SCC iter.                  ...        0 min,  0.091 sec
     gradient                   ...        0 min,  0.033 sec
 * total energy  :  -184.3822570 Eh     change       -0.5768525E-03 Eh
   gradient norm :     0.0114666 Eh/α   predicted    -0.5309574E-03 (  -7.96%)
   displ. norm   :     0.7022238 α      lambda       -0.6469681E-03
   maximum displ.:     0.4239329 α      in ANC's #8, #2, #4, ...

........................................................................
.............................. CYCLE   38 ..............................
........................................................................
   1   -187.2304119 -0.187230E+03  0.882E-02    1.30       0.0  T
   2   -187.2304181 -0.625072E-05  0.501E-02    1.30       1.0  T
   3   -187.2303976  0.205253E-04  0.142E-02    1.30       1.0  T
   4   -187.2304216 -0.240197E-04  0.364E-03    1.30       2.7  T
   5   -187.2304220 -0.330318E-06  0.155E-03    1.30       6.2  T
   6   -187.2304222 -0.182799E-06  0.523E-04    1.30      18.5  T
   7   -187.2304222 -0.152446E-07  0.266E-04    1.30      36.3  T
     SCC iter.                  ...        0 min,  0.090 sec
     gradient                   ...        0 min,  0.033 sec
 * total energy  :  -184.3827723 Eh     change       -0.5152879E-03 Eh
   gradient norm :     0.0081336 Eh/α   predicted    -0.4830047E-03 (  -6.27%)
   displ. norm   :     0.7304921 α      lambda       -0.5729599E-03
   maximum displ.:     0.4358622 α      in ANC's #8, #2, #4, ...

........................................................................
.............................. CYCLE   39 ..............................
........................................................................
   1   -187.2259393 -0.187226E+03  0.945E-02    1.30       0.0  T
   2   -187.2259479 -0.857937E-05  0.534E-02    1.30       1.0  T
   3   -187.2259275  0.203411E-04  0.152E-02    1.30       1.0  T
   4   -187.2259522 -0.246793E-04  0.394E-03    1.30       2.5  T
   5   -187.2259523 -0.139611E-06  0.218E-03    1.30       4.4  T
   6   -187.2259528 -0.441583E-06  0.666E-04    1.30      14.5  T
   7   -187.2259528 -0.303375E-07  0.300E-04    1.30      32.2  T
     SCC iter.                  ...        0 min,  0.090 sec
     gradient                   ...        0 min,  0.033 sec
 * total energy  :  -184.3832300 Eh     change       -0.4577423E-03 Eh
   gradient norm :     0.0105678 Eh/α   predicted    -0.4393569E-03 (  -4.02%)
   displ. norm   :     0.6428472 α      lambda       -0.5718833E-03
   maximum displ.:     0.2880774 α      in ANC's #2, #4, #8, ...

........................................................................
.............................. CYCLE   40 ..............................
........................................................................
   1   -187.2355617 -0.187236E+03  0.705E-02    1.31       0.0  T
   2   -187.2355676 -0.592527E-05  0.410E-02    1.30       1.0  T
   3   -187.2355370  0.305670E-04  0.174E-02    1.31       1.0  T
   4   -187.2355710 -0.339858E-04  0.384E-03    1.30       2.5  T
   5   -187.2355719 -0.882780E-06  0.169E-03    1.30       5.7  T
   6   -187.2355720 -0.714864E-07  0.837E-04    1.30      11.6  T
   7   -187.2355720 -0.445165E-07  0.356E-04    1.30      27.1  T
     SCC iter.                  ...        0 min,  0.092 sec
     gradient                   ...        0 min,  0.033 sec
 * total energy  :  -184.3836017 Eh     change       -0.3716987E-03 Eh
   gradient norm :     0.0103874 Eh/α   predicted    -0.4041102E-03 (   8.72%)
   displ. norm   :     0.6837719 α      lambda       -0.5014251E-03
   maximum displ.:     0.3760781 α      in ANC's #8, #2, #4, ...

........................................................................
.............................. CYCLE   41 ..............................
........................................................................
   1   -187.2246728 -0.187225E+03  0.848E-02    1.30       0.0  T
   2   -187.2246786 -0.572380E-05  0.482E-02    1.30       1.0  T
   3   -187.2246362  0.423645E-04  0.198E-02    1.30       1.0  T
   4   -187.2246836 -0.473626E-04  0.410E-03    1.30       2.4  T
   5   -187.2246839 -0.375141E-06  0.229E-03    1.30       4.2  T
   6   -187.2246843 -0.383889E-06  0.649E-04    1.30      14.9  T
   7   -187.2246844 -0.277510E-07  0.286E-04    1.30      33.8  T
     SCC iter.                  ...        0 min,  0.089 sec
     gradient                   ...        0 min,  0.033 sec
 * total energy  :  -184.3839354 Eh     change       -0.3336483E-03 Eh
   gradient norm :     0.0091401 Eh/α   predicted    -0.3679320E-03 (  10.28%)
   displ. norm   :     0.4548758 α      lambda       -0.4187225E-03
   maximum displ.:     0.2250331 α      in ANC's #2, #4, #9, ...

........................................................................
.............................. CYCLE   42 ..............................
........................................................................
   1   -187.2253204 -0.187225E+03  0.572E-02    1.30       0.0  T
   2   -187.2253248 -0.444629E-05  0.326E-02    1.30       1.0  T
   3   -187.2253100  0.148279E-04  0.118E-02    1.30       1.0  T
   4   -187.2253267 -0.167124E-04  0.318E-03    1.30       3.0  T
   5   -187.2253274 -0.705398E-06  0.144E-03    1.30       6.7  T
   6   -187.2253275 -0.590710E-07  0.636E-04    1.30      15.2  T
   7   -187.2253275 -0.225284E-07  0.263E-04    1.30      36.7  T
     SCC iter.                  ...        0 min,  0.091 sec
     gradient                   ...        0 min,  0.033 sec
 * total energy  :  -184.3841883 Eh     change       -0.2528856E-03 Eh
   gradient norm :     0.0110364 Eh/α   predicted    -0.2526830E-03 (  -0.08%)
   displ. norm   :     0.4845862 α      lambda       -0.4121406E-03
   maximum displ.:     0.2427263 α      in ANC's #2, #4, #9, ...
 * RMSD in coord.:     1.2213335 α      energy gain  -0.2148575E-01 Eh

generating ANC from model Hessian ...
Using Lindh-Hessian (1995)
 Shifting diagonal of input Hessian by   1.053556760053303E-002
 Lowest  eigenvalues of input Hessian
    0.010000    0.000000    0.000000    0.000000    0.000000    0.000000
    0.000000    0.010549    0.010562    0.010626    0.010645    0.010704
    0.010785    0.010913    0.011108    0.011173    0.011283    0.011606
 Highest eigenvalues
    2.246687    2.269667    2.296173    2.411886    2.600427    2.650075
 

........................................................................
.............................. CYCLE   43 ..............................
........................................................................
   1   -187.2269236 -0.187227E+03  0.508E-02    1.30       0.0  T
   2   -187.2269272 -0.360238E-05  0.290E-02    1.30       1.0  T
   3   -187.2269214  0.578852E-05  0.831E-03    1.30       1.2  T
   4   -187.2269284 -0.697137E-05  0.233E-03    1.30       4.2  T
   5   -187.2269287 -0.290906E-06  0.121E-03    1.30       8.0  T
   6   -187.2269287 -0.726573E-07  0.524E-04    1.30      18.4  T
   7   -187.2269287 -0.188926E-07  0.201E-04    1.30      48.1  T
     SCC iter.                  ...        0 min,  0.090 sec
     gradient                   ...        0 min,  0.033 sec
 * total energy  :  -184.3845102 Eh     change       -0.3219553E-03 Eh
   gradient norm :     0.0081995 Eh/α   predicted     0.0000000E+00 (-100.00%)
   displ. norm   :     0.0978978 α      lambda       -0.2238187E-03
   maximum displ.:     0.0365711 α      in ANC's #4, #2, #13, ...

........................................................................
.............................. CYCLE   44 ..............................
........................................................................
   1   -187.2293681 -0.187229E+03  0.345E-02    1.30       0.0  T
   2   -187.2293699 -0.181954E-05  0.194E-02    1.30       1.0  T
   3   -187.2293672  0.266730E-05  0.582E-03    1.30       1.7  T
   4   -187.2293707 -0.350176E-05  0.145E-03    1.30       6.7  T
   5   -187.2293708 -0.822986E-07  0.748E-04    1.30      12.9  T
   6   -187.2293708 -0.250042E-07  0.263E-04    1.30      36.7  T
     SCC iter.                  ...        0 min,  0.078 sec
     gradient                   ...        0 min,  0.033 sec
 * total energy  :  -184.3846809 Eh     change       -0.1706813E-03 Eh
   gradient norm :     0.0043678 Eh/α   predicted    -0.1129822E-03 ( -33.81%)
   displ. norm   :     0.2793534 α      lambda       -0.3967711E-03
   maximum displ.:     0.1124225 α      in ANC's #4, #2, #20, ...

........................................................................
.............................. CYCLE   45 ..............................
........................................................................
   1   -187.2321005 -0.187232E+03  0.587E-02    1.30       0.0  T
   2   -187.2321046 -0.409944E-05  0.338E-02    1.30       1.0  T
   3   -187.2320900  0.145896E-04  0.142E-02    1.30       1.0  T
   4   -187.2321071 -0.170997E-04  0.301E-03    1.30       3.2  T
   5   -187.2321075 -0.389489E-06  0.158E-03    1.30       6.1  T
   6   -187.2321076 -0.106426E-06  0.691E-04    1.30      14.0  T
   7   -187.2321076 -0.470424E-07  0.234E-04    1.30      41.3  T
     SCC iter.                  ...        0 min,  0.090 sec
     gradient                   ...        0 min,  0.033 sec
 * total energy  :  -184.3848910 Eh     change       -0.2100902E-03 Eh
   gradient norm :     0.0070910 Eh/α   predicted    -0.2138985E-03 (   1.81%)
   displ. norm   :     0.2563268 α      lambda       -0.2794573E-03
   maximum displ.:     0.1080742 α      in ANC's #2, #4, #13, ...

........................................................................
.............................. CYCLE   46 ..............................
........................................................................
   1   -187.2303602 -0.187230E+03  0.678E-02    1.30       0.0  T
   2   -187.2303672 -0.698710E-05  0.379E-02    1.30       1.0  T
   3   -187.2303589  0.825615E-05  0.967E-03    1.29       1.0  T
   4   -187.2303701 -0.111704E-04  0.243E-03    1.30       4.0  T
   5   -187.2303705 -0.349291E-06  0.135E-03    1.30       7.2  T
   6   -187.2303706 -0.938677E-07  0.443E-04    1.30      21.8  T
   7   -187.2303706 -0.930606E-08  0.174E-04    1.30      55.5  T
     SCC iter.                  ...        0 min,  0.090 sec
     gradient                   ...        0 min,  0.033 sec
 * total energy  :  -184.3850614 Eh     change       -0.1703906E-03 Eh
   gradient norm :     0.0088499 Eh/α   predicted    -0.1489099E-03 ( -12.61%)
   displ. norm   :     0.3007076 α      lambda       -0.2983757E-03
   maximum displ.:     0.1323571 α      in ANC's #2, #4, #9, ...

........................................................................
.............................. CYCLE   47 ..............................
........................................................................
   1   -187.2291648 -0.187229E+03  0.803E-02    1.30       0.0  T
   2   -187.2291737 -0.889666E-05  0.447E-02    1.30       1.0  T
   3   -187.2291722  0.148238E-05  0.643E-03    1.29       1.5  T
   4   -187.2291767 -0.451744E-05  0.244E-03    1.30       4.0  T
   5   -187.2291770 -0.268273E-06  0.130E-03    1.30       7.4  T
   6   -187.2291771 -0.970353E-07  0.462E-04    1.30      20.9  T
   7   -187.2291771 -0.116825E-07  0.201E-04    1.30      48.1  T
     SCC iter.                  ...        0 min,  0.089 sec
     gradient                   ...        0 min,  0.033 sec
 * total energy  :  -184.3852051 Eh     change       -0.1437339E-03 Eh
   gradient norm :     0.0088656 Eh/α   predicted    -0.1626783E-03 (  13.18%)
   displ. norm   :     0.3537817 α      lambda       -0.4443162E-03
   maximum displ.:     0.1655020 α      in ANC's #2, #4, #9, ...

........................................................................
.............................. CYCLE   48 ..............................
........................................................................
   1   -187.2288186 -0.187229E+03  0.452E-02    1.30       0.0  T
   2   -187.2288203 -0.168264E-05  0.263E-02    1.30       1.0  T
   3   -187.2288141  0.619876E-05  0.744E-03    1.30       1.3  T
   4   -187.2288211 -0.703105E-05  0.192E-03    1.30       5.0  T
   5   -187.2288212 -0.136135E-06  0.106E-03    1.30       9.1  T
   6   -187.2288213 -0.586935E-07  0.482E-04    1.30      20.1  T
   7   -187.2288213 -0.172353E-07  0.175E-04    1.30      55.4  T
     SCC iter.                  ...        0 min,  0.089 sec
     gradient                   ...        0 min,  0.033 sec
 * total energy  :  -184.3854848 Eh     change       -0.2796982E-03 Eh
   gradient norm :     0.0075303 Eh/α   predicted    -0.2499687E-03 ( -10.63%)
   displ. norm   :     0.3320478 α      lambda       -0.2193832E-03
   maximum displ.:     0.1643755 α      in ANC's #2, #4, #9, ...

........................................................................
.............................. CYCLE   49 ..............................
........................................................................
   1   -187.2275337 -0.187228E+03  0.364E-02    1.30       0.0  T
   2   -187.2275347 -0.981721E-06  0.210E-02    1.30       1.0  T
   3   -187.2275307  0.405521E-05  0.638E-03    1.30       1.5  T
   4   -187.2275353 -0.464653E-05  0.146E-03    1.30       6.6  T
   5   -187.2275354 -0.577867E-07  0.831E-04    1.30      11.6  T
   6   -187.2275354 -0.464502E-07  0.359E-04    1.30      26.9  T
     SCC iter.                  ...        0 min,  0.077 sec
     gradient                   ...        0 min,  0.033 sec
 * total energy  :  -184.3856668 Eh     change       -0.1819758E-03 Eh
   gradient norm :     0.0053701 Eh/α   predicted    -0.1217898E-03 ( -33.07%)
   displ. norm   :     0.4258171 α      lambda       -0.2909050E-03
   maximum displ.:     0.2218769 α      in ANC's #2, #4, #9, ...

........................................................................
.............................. CYCLE   50 ..............................
........................................................................
   1   -187.2288966 -0.187229E+03  0.468E-02    1.30       0.0  T
   2   -187.2288992 -0.261921E-05  0.269E-02    1.29       1.0  T
   3   -187.2288909  0.826243E-05  0.918E-03    1.30       1.1  T
   4   -187.2289002 -0.931541E-05  0.241E-03    1.29       4.0  T
   5   -187.2289007 -0.487354E-06  0.113E-03    1.30       8.5  T
   6   -187.2289008 -0.467990E-07  0.450E-04    1.30      21.5  T
   7   -187.2289008 -0.116537E-07  0.208E-04    1.30      46.5  T
     SCC iter.                  ...        0 min,  0.089 sec
     gradient                   ...        0 min,  0.033 sec
 * total energy  :  -184.3859019 Eh     change       -0.2350939E-03 Eh
   gradient norm :     0.0043036 Eh/α   predicted    -0.1718290E-03 ( -26.91%)
   displ. norm   :     0.4926507 α      lambda       -0.2624315E-03
   maximum displ.:     0.2638260 α      in ANC's #2, #4, #9, ...

........................................................................
.............................. CYCLE   51 ..............................
........................................................................
   1   -187.2294757 -0.187229E+03  0.520E-02    1.29       0.0  T
   2   -187.2294787 -0.300484E-05  0.298E-02    1.29       1.0  T
   3   -187.2294705  0.826877E-05  0.920E-03    1.29       1.1  T
   4   -187.2294800 -0.952245E-05  0.243E-03    1.29       4.0  T
   5   -187.2294805 -0.456212E-06  0.115E-03    1.29       8.4  T
   6   -187.2294805 -0.466135E-07  0.418E-04    1.29      23.1  T
   7   -187.2294805 -0.104872E-07  0.197E-04    1.29      49.0  T
     SCC iter.                  ...        0 min,  0.089 sec
     gradient                   ...        0 min,  0.033 sec
 * total energy  :  -184.3861181 Eh     change       -0.2162224E-03 Eh
   gradient norm :     0.0052033 Eh/α   predicted    -0.1630665E-03 ( -24.58%)
   displ. norm   :     0.4700542 α      lambda       -0.2293202E-03
   maximum displ.:     0.2624994 α      in ANC's #2, #4, #9, ...

........................................................................
.............................. CYCLE   52 ..............................
........................................................................
   1   -187.2311013 -0.187231E+03  0.441E-02    1.29       0.0  T
   2   -187.2311031 -0.180743E-05  0.254E-02    1.29       1.0  T
   3   -187.2310973  0.583178E-05  0.766E-03    1.29       1.3  T
   4   -187.2311040 -0.671073E-05  0.184E-03    1.29       5.3  T
   5   -187.2311042 -0.223350E-06  0.938E-04    1.29      10.3  T
   6   -187.2311042 -0.362829E-07  0.335E-04    1.29      28.9  T
     SCC iter.                  ...        0 min,  0.077 sec
     gradient                   ...        0 min,  0.033 sec
 * total energy  :  -184.3863139 Eh     change       -0.1957901E-03 Eh
   gradient norm :     0.0050675 Eh/α   predicted    -0.1399971E-03 ( -28.50%)
   displ. norm   :     0.4791784 α      lambda       -0.2256320E-03
   maximum displ.:     0.2743102 α      in ANC's #2, #4, #9, ...

........................................................................
.............................. CYCLE   53 ..............................
........................................................................
   1   -187.2316552 -0.187232E+03  0.417E-02    1.29       0.0  T
   2   -187.2316564 -0.115350E-05  0.241E-02    1.29       1.0  T
   3   -187.2316505  0.586114E-05  0.693E-03    1.29       1.4  T
   4   -187.2316572 -0.666751E-05  0.151E-03    1.29       6.4  T
   5   -187.2316572 -0.677628E-07  0.985E-04    1.29       9.8  T
   6   -187.2316573 -0.611822E-07  0.305E-04    1.29      31.7  T
     SCC iter.                  ...        0 min,  0.077 sec
     gradient                   ...        0 min,  0.033 sec
 * total energy  :  -184.3865139 Eh     change       -0.1999641E-03 Eh
   gradient norm :     0.0044238 Eh/α   predicted    -0.1387216E-03 ( -30.63%)
   displ. norm   :     0.4942134 α      lambda       -0.2452808E-03
   maximum displ.:     0.2930502 α      in ANC's #2, #4, #3, ...

........................................................................
.............................. CYCLE   54 ..............................
........................................................................
   1   -187.2331984 -0.187233E+03  0.407E-02    1.29       0.0  T
   2   -187.2331994 -0.996335E-06  0.236E-02    1.29       1.0  T
   3   -187.2331904  0.899696E-05  0.820E-03    1.29       1.2  T
   4   -187.2332004 -0.994995E-05  0.166E-03    1.29       5.8  T
   5   -187.2332005 -0.119606E-06  0.100E-03    1.29       9.7  T
   6   -187.2332006 -0.565857E-07  0.294E-04    1.29      32.8  T
   7   -187.2332006 -0.324982E-08  0.148E-04    1.29      65.3  T
     SCC iter.                  ...        0 min,  0.092 sec
     gradient                   ...        0 min,  0.033 sec
 * total energy  :  -184.3867305 Eh     change       -0.2166364E-03 Eh
   gradient norm :     0.0048994 Eh/α   predicted    -0.1525952E-03 ( -29.56%)
   displ. norm   :     0.5458284 α      lambda       -0.2644921E-03
   maximum displ.:     0.3280104 α      in ANC's #2, #4, #3, ...

........................................................................
.............................. CYCLE   55 ..............................
........................................................................
   1   -187.2319358 -0.187232E+03  0.458E-02    1.29       0.0  T
   2   -187.2319371 -0.128605E-05  0.266E-02    1.29       1.0  T
   3   -187.2319255  0.115860E-04  0.952E-03    1.29       1.0  T
   4   -187.2319383 -0.127360E-04  0.204E-03    1.29       4.7  T
   5   -187.2319385 -0.265989E-06  0.108E-03    1.29       9.0  T
   6   -187.2319386 -0.560752E-07  0.357E-04    1.29      27.1  T
   7   -187.2319386 -0.621191E-08  0.154E-04    1.29      62.6  T
     SCC iter.                  ...        0 min,  0.091 sec
     gradient                   ...        0 min,  0.033 sec
 * total energy  :  -184.3869654 Eh     change       -0.2349391E-03 Eh
   gradient norm :     0.0045593 Eh/α   predicted    -0.1716475E-03 ( -26.94%)
   displ. norm   :     0.5666756 α      lambda       -0.2831015E-03
   maximum displ.:     0.3462379 α      in ANC's #2, #4, #3, ...

........................................................................
.............................. CYCLE   56 ..............................
........................................................................
   1   -187.2326030 -0.187233E+03  0.537E-02    1.29       0.0  T
   2   -187.2326054 -0.237602E-05  0.308E-02    1.29       1.0  T
   3   -187.2325955  0.990658E-05  0.952E-03    1.29       1.0  T
   4   -187.2326068 -0.113221E-04  0.227E-03    1.29       4.3  T
   5   -187.2326071 -0.274015E-06  0.131E-03    1.29       7.4  T
   6   -187.2326072 -0.895325E-07  0.437E-04    1.29      22.1  T
   7   -187.2326072 -0.106791E-07  0.173E-04    1.29      55.8  T
     SCC iter.                  ...        0 min,  0.091 sec
     gradient                   ...        0 min,  0.033 sec
 * total energy  :  -184.3872161 Eh     change       -0.2506357E-03 Eh
   gradient norm :     0.0051637 Eh/α   predicted    -0.1870067E-03 ( -25.39%)
   displ. norm   :     0.6044298 α      lambda       -0.2956993E-03
   maximum displ.:     0.3730782 α      in ANC's #2, #4, #3, ...

........................................................................
.............................. CYCLE   57 ..............................
........................................................................
   1   -187.2308844 -0.187231E+03  0.575E-02    1.29       0.0  T
   2   -187.2308871 -0.269974E-05  0.330E-02    1.29       1.0  T
   3   -187.2308803  0.685922E-05  0.845E-03    1.29       1.1  T
   4   -187.2308884 -0.809402E-05  0.228E-03    1.29       4.2  T
[...]
    89   1 H        0.924     0.058     2.227     2.334
    90   1 H        0.925     0.050     2.321     2.382
    91   1 H        0.925     0.069     2.100     2.266
    92   1 H        0.925     0.050     2.323     2.383
    93   1 H        0.925     0.063     2.169     2.303
    94   1 H        0.924     0.065     2.142     2.289
    95   1 H        0.925     0.047     2.357     2.401
    96   1 H        0.925     0.051     2.312     2.378
    97   1 H        0.925     0.047     2.353     2.399
    98   1 H        0.926     0.051     2.312     2.378
    99   1 H        0.926     0.070     2.081     2.256
   100   1 H        0.924     0.069     2.092     2.262
   101   1 H        0.924     0.070     2.087     2.259
   102   1 H        0.925     0.050     2.321     2.382
   103   1 H        0.925     0.050     2.323     2.384
   104   1 H        0.925     0.049     2.334     2.389
   105   1 H        0.926     0.070     2.087     2.259
   106   1 H        0.926     0.047     2.361     2.403
   107   1 H        0.926     0.049     2.330     2.387

 Mol. C6AA /au·bohr⁶  :     193990.309846
 Mol. C8AA /au·bohr⁸  :    5427551.672485
 Mol. α(0) /au        :        697.965471


Wiberg/Mayer (AO) data.
largest (>0.10) Wiberg bond orders for each atom

 ---------------------------------------------------------------------------
     #   Z sym  total        # sym  WBO       # sym  WBO       # sym  WBO
 ---------------------------------------------------------------------------
     1   6 C    3.946 --     2 C    1.513    24 C    1.282    71 H    0.938
     2   6 C    3.950 --     1 C    1.513    11 C    1.130     3 C    1.045
     3   6 C    3.920 --     4 O    1.725     2 C    1.045     5 C    1.029
     4   8 O    2.036 --     3 C    1.725
     5   6 C    3.974 --     6 C    1.378    10 C    1.311     3 C    1.029
     6   6 C    3.982 --     7 C    1.446     5 C    1.378    72 H    0.964
     7   6 C    3.957 --     6 C    1.446     8 C    1.326    23 C    0.995
     8   6 C    3.966 --     9 C    1.451     7 C    1.326    17 C    0.997
     9   6 C    3.979 --     8 C    1.451    10 C    1.365    73 H    0.959
    10   6 C    3.977 --     9 C    1.365     5 C    1.311    11 C    1.088
    11   6 C    3.973 --    12 C    1.489     2 C    1.130    10 C    1.088
    12   6 C    3.950 --    11 C    1.489    13 C    1.097    15 C    1.095
    13   6 C    3.944 --    14 N    2.762    12 C    1.097
    14   7 N    2.968 --    13 C    2.762
    15   6 C    3.945 --    16 N    2.756    12 C    1.095
    16   7 N    2.964 --    15 C    2.756
    17   6 C    3.985 --     8 C    0.997    23 C    0.978    74 H    0.960
                            18 C    0.947
    18   6 C    3.990 --    19 C    1.011    22 C    0.985    75 H    0.972
                            17 C    0.947
    19   6 C    3.987 --    20 C    1.924    18 C    1.011    76 H    0.972
    20   6 C    3.987 --    19 C    1.924    21 C    1.010    77 H    0.972
    21   6 C    3.989 --    20 C    1.010    22 C    0.985    78 H    0.972
                            23 C    0.948
    22   6 C    3.993 --    21 C    0.985    18 C    0.985    79 H    0.978
                            80 H    0.977
    23   6 C    3.985 --     7 C    0.995    17 C    0.978    81 H    0.960
                            21 C    0.948
    24   6 C    3.940 --    49 C    1.416     1 C    1.282    25 Se   1.079
    25  34 Se   2.648 --    26 C    1.178    24 C    1.079    49 C    0.115
    26   6 C    3.941 --    27 C    1.276    48 C    1.267    25 Se   1.178
    27   6 C    3.958 --    26 C    1.276    46 C    1.264    28 C    1.174
    28   6 C    3.973 --    32 N    1.427    27 C    1.174    29 C    1.165
                            31 S    0.100
    29   6 C    3.974 --    30 N    1.427    33 C    1.172    28 C    1.165
                            31 S    0.103
    30   7 N    3.074 --    29 C    1.427    31 S    1.394    32 N    0.149
    31  16 S    3.102 --    30 N    1.394    32 N    1.386    29 C    0.103
                            28 C    0.100
    32   7 N    3.083 --    28 C    1.427    31 S    1.386    30 N    0.149
    33   6 C    3.950 --    45 C    1.282    34 C    1.261    29 C    1.172
    34   6 C    3.932 --    43 C    1.324    33 C    1.261    35 S    1.108
    35  16 S    2.517 --    34 C    1.108    36 C    1.099
    36   6 C    3.924 --    42 C    1.368    37 C    1.247    35 S    1.099
    37   6 C    3.976 --    40 C    1.527    36 C    1.247    38 C    1.010
    38   6 C    3.995 --    37 C    1.010    39 C    1.001    83 H    0.974
                            82 H    0.964
    39   6 C    3.993 --    38 C    1.001    85 H    0.986    86 H    0.985
                            84 H    0.985
    40   6 C    3.915 --    37 C    1.527    54 C    1.083    41 S    1.082
    41  16 S    2.542 --    42 C    1.114    40 C    1.082
    42   6 C    3.935 --    36 C    1.368    43 C    1.231    41 S    1.114
    43   6 C    3.935 --    34 C    1.324    42 C    1.231    44 N    1.155
    44   7 N    3.534 --    43 C    1.155    45 C    1.151    52 C    0.980
    45   6 C    3.935 --    33 C    1.282    46 C    1.227    44 N    1.151
    46   6 C    3.923 --    27 C    1.264    45 C    1.227    47 N    1.176
    47   7 N    3.551 --    46 C    1.176    48 C    1.144    50 C    0.981
    48   6 C    3.941 --    49 C    1.326    26 C    1.267    47 N    1.144
    49   6 C    3.949 --    24 C    1.416    48 C    1.326    87 H    0.930
                            25 Se   0.115
    50   6 C    3.967 --    51 C    1.007    47 N    0.981    89 H    0.966
                            88 H    0.964
    51   6 C    3.986 --    50 C    1.007    92 H    0.984    90 H    0.982
                            91 H    0.981
    52   6 C    3.964 --    53 C    1.006    44 N    0.980    94 H    0.965
                            93 H    0.957
    53   6 C    3.989 --    52 C    1.006    97 H    0.987    95 H    0.985
                            96 H    0.983
    54   6 C    3.979 --    55 C    1.451    69 C    1.227    40 C    1.083
    55   6 C    3.981 --    54 C    1.451    56 C    1.375    98 H    0.964
    56   6 C    3.973 --    57 C    1.448    55 C    1.375    99 H    0.963
    57   6 C    3.972 --    56 C    1.448    70 C    1.255    58 C    1.030
    58   6 C    3.945 --    59 O    1.694    60 N    1.126    57 C    1.030
    59   8 O    2.011 --    58 C    1.694    60 N    0.137
    60   7 N    3.575 --    63 C    1.130    58 C    1.126    61 C    0.964
                            64 O    0.138    59 O    0.137
    61   6 C    3.954 --    62 C    1.010   101 H    0.968   100 H    0.968
                            60 N    0.964
    62   6 C    3.992 --    61 C    1.010   104 H    0.987   103 H    0.987
                           102 H    0.983
    63   6 C    3.947 --    64 O    1.696    60 N    1.130    65 C    1.026
    64   8 O    2.016 --    63 C    1.696    60 N    0.138
    65   6 C    3.986 --    66 C    1.463    70 C    1.257    63 C    1.026
                            68 C    0.104
    66   6 C    3.974 --    65 C    1.463    67 C    1.356   105 H    0.964
    67   6 C    3.986 --    68 C    1.524    66 C    1.356   106 H    0.969
    68   6 C    3.985 --    67 C    1.524    69 C    1.295   107 H    0.963
                            65 C    0.104
    69   6 C    3.985 --    68 C    1.295    70 C    1.255    54 C    1.227
    70   6 C    3.990 --    65 C    1.257    57 C    1.255    69 C    1.255
    71   1 H    0.995 --     1 C    0.938
    72   1 H    0.996 --     6 C    0.964
    73   1 H    0.996 --     9 C    0.959
    74   1 H    0.997 --    17 C    0.960
    75   1 H    0.998 --    18 C    0.972
    76   1 H    0.999 --    19 C    0.972
    77   1 H    0.999 --    20 C    0.972
    78   1 H    0.999 --    21 C    0.972
    79   1 H    0.998 --    22 C    0.978
    80   1 H    0.996 --    22 C    0.977
    81   1 H    0.996 --    23 C    0.960
    82   1 H    0.997 --    38 C    0.964
    83   1 H    0.998 --    38 C    0.974
    84   1 H    0.998 --    39 C    0.985
    85   1 H    0.999 --    39 C    0.986
    86   1 H    0.997 --    39 C    0.985
    87   1 H    0.990 --    49 C    0.930
    88   1 H    0.996 --    50 C    0.964
    89   1 H    0.994 --    50 C    0.966
    90   1 H    0.997 --    51 C    0.982
    91   1 H    0.995 --    51 C    0.981
    92   1 H    0.997 --    51 C    0.984
    93   1 H    0.994 --    52 C    0.957
    94   1 H    0.995 --    52 C    0.965
    95   1 H    0.998 --    53 C    0.985
    96   1 H    0.997 --    53 C    0.983
    97   1 H    0.998 --    53 C    0.987
    98   1 H    0.996 --    55 C    0.964
    99   1 H    0.993 --    56 C    0.963
   100   1 H    0.995 --    61 C    0.968
   101   1 H    0.995 --    61 C    0.968
   102   1 H    0.997 --    62 C    0.983
   103   1 H    0.998 --    62 C    0.987
   104   1 H    0.998 --    62 C    0.987
   105   1 H    0.994 --    66 C    0.964
   106   1 H    0.997 --    67 C    0.969
   107   1 H    0.997 --    68 C    0.963
 ---------------------------------------------------------------------------

Topologies differ in bond orders
Writing corrected topology to xtbtopo.mol

molecular dipole:
                 x           y           z       tot (Debye)
 q only:       -0.509       1.120       1.641
   full:       -0.812       1.213       2.184       6.677
molecular quadrupole (traceless):
                xx          xy          yy          xz          yz          zz
 q only:      -25.967      82.432     -49.177      30.430     -36.024      75.143
  q+dip:      -28.651      93.555     -48.193      38.885     -44.560      76.844
   full:      -29.745     102.769     -43.793      37.623     -46.717      73.538

           -------------------------------------------------
          |                Geometry Summary                 |
           -------------------------------------------------

      molecular mass/u    :     1031.0939062
   center of mass at/Å    :        0.3822276      -0.1933633      -0.7454232
  moments of inertia/u·Å² :        0.1143224E+05   0.5889984E+05   0.6868447E+05
rotational constants/cm⁻¹ :        0.1474569E-02   0.2862084E-03   0.2454358E-03

 * 107 selected distances

     #   Z          #   Z                                           value/Å
     1   6 C        2   6 C                                       1.3721142
     3   6 C        4   8 O                                       1.2180827
     5   6 C        6   6 C                                       1.3929178
     6   6 C        7   6 C                                       1.3734525
     7   6 C        8   6 C                                       1.4013444
     8   6 C        9   6 C                                       1.3748244
     5   6 C       10   6 C                                       1.4075231
     9   6 C       10   6 C                                       1.3977020
    11   6 C       12   6 C                                       1.3707695
    13   6 C       14   7 N                                       1.1482824
    15   6 C       16   7 N                                       1.1487678
     8   6 C       17   6 C                                       1.5080532
    17   6 C       18   6 C                                       1.5490838
    19   6 C       20   6 C                                       1.3263315
    18   6 C       22   6 C                                       1.5371454
    21   6 C       22   6 C                                       1.5369280
     7   6 C       23   6 C                                       1.5081612
    17   6 C       23   6 C                                       1.5612451
    21   6 C       23   6 C                                       1.5488340
     1   6 C       24   6 C                                       1.4061098
    25  34 Se      26   6 C                                       1.8432235 (max)
    26   6 C       27   6 C                                       1.4013575
    27   6 C       28   6 C                                       1.4104889
    28   6 C       29   6 C                                       1.4342312
    29   6 C       30   7 N                                       1.3241175
    30   7 N       31  16 S                                       1.6186979
    28   6 C       32   7 N                                       1.3232912
    31  16 S       32   7 N                                       1.6204398
    29   6 C       33   6 C                                       1.4132334
    33   6 C       34   6 C                                       1.4048493
    34   6 C       35  16 S                                       1.7311891
    35  16 S       36   6 C                                       1.7480461
    36   6 C       37   6 C                                       1.4126313
    38   6 C       39   6 C                                       1.5290245
    37   6 C       40   6 C                                       1.3718028
    36   6 C       42   6 C                                       1.3933701
    41  16 S       42   6 C                                       1.7262961
    34   6 C       43   6 C                                       1.3959261
    42   6 C       43   6 C                                       1.4015074
    43   6 C       44   7 N                                       1.3695999
    33   6 C       45   6 C                                       1.4235480
    44   7 N       45   6 C                                       1.3887460
    27   6 C       46   6 C                                       1.4236229
    45   6 C       46   6 C                                       1.4176061
    46   6 C       47   7 N                                       1.3788853
    26   6 C       48   6 C                                       1.4078687
    47   7 N       48   6 C                                       1.3736577
    24   6 C       49   6 C                                       1.3861252
    48   6 C       49   6 C                                       1.3890909
    47   7 N       50   6 C                                       1.4459729
    50   6 C       51   6 C                                       1.5285310
    44   7 N       52   6 C                                       1.4475123
    52   6 C       53   6 C                                       1.5272158
    54   6 C       55   6 C                                       1.3836536
    55   6 C       56   6 C                                       1.3912207
    56   6 C       57   6 C                                       1.3801748
    58   6 C       59   8 O                                       1.2146116
    58   6 C       60   7 N                                       1.3852835
    60   7 N       61   6 C                                       1.4597193
    61   6 C       62   6 C                                       1.5232952
    60   7 N       63   6 C                                       1.3841198
    63   6 C       64   8 O                                       1.2144746
    65   6 C       66   6 C                                       1.3789236
    66   6 C       67   6 C                                       1.3953884
    67   6 C       68   6 C                                       1.3715712
    54   6 C       69   6 C                                       1.4257307
    68   6 C       69   6 C                                       1.4095681
    57   6 C       70   6 C                                       1.4091415
    65   6 C       70   6 C                                       1.4099670
    69   6 C       70   6 C                                       1.4189502
     1   6 C       71   1 H                                       1.0856575
     6   6 C       72   1 H                                       1.0789423
     9   6 C       73   1 H                                       1.0770677
    17   6 C       74   1 H                                       1.0881023
    18   6 C       75   1 H                                       1.0866290
    19   6 C       76   1 H                                       1.0743062
    20   6 C       77   1 H                                       1.0743969
    21   6 C       78   1 H                                       1.0869849
    22   6 C       79   1 H                                       1.0891140
    22   6 C       80   1 H                                       1.0890143
    23   6 C       81   1 H                                       1.0883293
    38   6 C       82   1 H                                       1.0932434
    38   6 C       83   1 H                                       1.0910553
    39   6 C       84   1 H                                       1.0870818
    39   6 C       85   1 H                                       1.0878192
    39   6 C       86   1 H                                       1.0867720
    49   6 C       87   1 H                                       1.0740794 (min)
    50   6 C       88   1 H                                       1.0911320
    50   6 C       89   1 H                                       1.0961296
    51   6 C       90   1 H                                       1.0865020
    51   6 C       91   1 H                                       1.0862348
    51   6 C       92   1 H                                       1.0870035
    52   6 C       93   1 H                                       1.0857832
    52   6 C       94   1 H                                       1.0930237
    53   6 C       95   1 H                                       1.0881512
    53   6 C       96   1 H                                       1.0866348
    53   6 C       97   1 H                                       1.0877680
    55   6 C       98   1 H                                       1.0789094
    56   6 C       99   1 H                                       1.0794942
    61   6 C      100   1 H                                       1.0913761
    61   6 C      101   1 H                                       1.0912836
    62   6 C      102   1 H                                       1.0862654
    62   6 C      103   1 H                                       1.0875868
    62   6 C      104   1 H                                       1.0876496
    66   6 C      105   1 H                                       1.0794663
    67   6 C      106   1 H                                       1.0794898
    68   6 C      107   1 H                                       1.0788494

 * 7 distinct bonds (by element types)

   Z      Z             #   av. dist./Å        max./Å        min./Å
   1 H    6 C          37     1.0856035     1.0961296     1.0740794
   6 C    6 C          48     1.4279616     1.5612451     1.3263315
   6 C    7 N          13     1.3521504     1.4597193     1.1482824
   6 C    8 O           3     1.2157230     1.2180827     1.2144746
   6 C   16 S           3     1.7351771     1.7480461     1.7262961
   7 N   16 S           2     1.6195688     1.6204398     1.6186979
   6 C   34 Se          1     1.8432235     1.8432235     1.8432235


optimized geometry written to: xtbopt.mol


           -------------------------------------------------
          | TOTAL ENERGY             -184.398371130436 Eh   |
          | GRADIENT NORM               0.000416281667 Eh/α |
          | HOMO-LUMO GAP               1.290552411404 eV   |
           -------------------------------------------------

------------------------------------------------------------------------
 * finished run on 2022/02/10 at 22:55:49.383     
------------------------------------------------------------------------
 total:
 * wall-time:     0 d,  0 h,  0 min, 25.829 sec
 *  cpu-time:     0 d,  0 h,  3 min, 26.520 sec
 * ratio c/w:     7.996 speedup
 SCF:
 * wall-time:     0 d,  0 h,  0 min,  0.327 sec
 *  cpu-time:     0 d,  0 h,  0 min,  2.603 sec
 * ratio c/w:     7.957 speedup
 ANC optimizer:
 * wall-time:     0 d,  0 h,  0 min, 25.444 sec
 *  cpu-time:     0 d,  0 h,  3 min, 23.528 sec
 * ratio c/w:     7.999 speedup

