      -----------------------------------------------------------      
     |                   =====================                   |     
     |                           x T B                           |     
     |                   =====================                   |     
     |                         S. Grimme                         |     
     |          Mulliken Center for Theoretical Chemistry        |     
     |                    University of Bonn                     |     
      -----------------------------------------------------------      

   * xtb version 6.4.1 (unknown) compiled by 'oda6@login1.crc.pitt.edu' on 2021-06-25

   xtb is free software: you can redistribute it and/or modify it under
   the terms of the GNU Lesser General Public License as published by
   the Free Software Foundation, either version 3 of the License, or
   (at your option) any later version.
   
   xtb is distributed in the hope that it will be useful,
   but WITHOUT ANY WARRANTY; without even the implied warranty of
   MERCHANTABILITY or FITNESS FOR A PARTICULAR PURPOSE.  See the
   GNU Lesser General Public License for more details.
   
   Cite this work as:
   * C. Bannwarth, E. Caldeweyher, S. Ehlert, A. Hansen, P. Pracht,
     J. Seibert, S. Spicher, S. Grimme, WIREs Comput. Mol. Sci., 2020, 11,
     e01493. DOI: 10.1002/wcms.1493
   
   for GFN2-xTB:
   * C. Bannwarth, S. Ehlert and S. Grimme., J. Chem. Theory Comput., 2019,
     15, 1652-1671. DOI: 10.1021/acs.jctc.8b01176
   for GFN1-xTB:
   * S. Grimme, C. Bannwarth, P. Shushkov, J. Chem. Theory Comput., 2017,
     13, 1989-2009. DOI: 10.1021/acs.jctc.7b00118
   for GFN0-xTB:
   * P. Pracht, E. Caldeweyher, S. Ehlert, S. Grimme, ChemRxiv, 2019, preprint.
     DOI: 10.26434/chemrxiv.8326202.v1
   for GFN-FF:
   * S. Spicher and S. Grimme, Angew. Chem. Int. Ed., 2020, 59, 15665-15673.
     DOI: 10.1002/anie.202004239
   
   for DFT-D4:
   * E. Caldeweyher, C. Bannwarth and S. Grimme, J. Chem. Phys., 2017,
     147, 034112. DOI: 10.1063/1.4993215
   * E. Caldeweyher, S. Ehlert, A. Hansen, H. Neugebauer, S. Spicher,
     C. Bannwarth and S. Grimme, J. Chem. Phys., 2019, 150, 154122.
     DOI: 10.1063/1.5090222
   * E. Caldeweyher, J.-M. Mewes, S. Ehlert and S. Grimme, Phys. Chem. Chem. Phys.
     2020, 22, 8499-8512. DOI: 10.1039/D0CP00502A
   
   for sTDA-xTB:
   * S. Grimme and C. Bannwarth, J. Chem. Phys., 2016, 145, 054103.
     DOI: 10.1063/1.4959605
   
   in the mass-spec context:
   * V. Asgeirsson, C. Bauer and S. Grimme, Chem. Sci., 2017, 8, 4879.
     DOI: 10.1039/c7sc00601b
   * J. Koopman and S. Grimme, ACS Omega 2019, 4, 12, 15120-15133.
     DOI: 10.1021/acsomega.9b02011
   
   for metadynamics refer to:
   * S. Grimme, J. Chem. Theory Comput., 2019, 155, 2847-2862
     DOI: 10.1021/acs.jctc.9b00143
   
   for SPH calculations refer to:
   * S. Spicher and S. Grimme, J. Chem. Theory Comput., 2021, 17, 1701-1714
     DOI: 10.1021/acs.jctc.0c01306
   
   with help from (in alphabetical order)
   P. Atkinson, C. Bannwarth, F. Bohle, G. Brandenburg, E. Caldeweyher
   M. Checinski, S. Dohm, S. Ehlert, S. Ehrlich, I. Gerasimov, J. Koopman
   C. Lavigne, S. Lehtola, F. März, M. Müller, F. Musil, H. Neugebauer
   J. Pisarek, C. Plett, P. Pracht, J. Seibert, P. Shushkov, S. Spicher
   M. Stahn, M. Steiner, T. Strunk, J. Stückrath, T. Rose, and J. Unsleber
   
 * started run on 2022/02/10 at 19:41:48.345     

           -------------------------------------------------
          |                Calculation Setup                |
           -------------------------------------------------

          program call               : /ihome/ghutchison/oda6/xtb/xtb-641/bin/xtb ../../FF_optimized/39_100_23.mol -opt
          hostname                   : smp-n32
          coordinate file            : ../../FF_optimized/39_100_23.mol
          omp threads                :                     8
          number of atoms            :                   127
          number of electrons        :                   412
          charge                     :                     0
          spin                       :                   0.0
          first test random number   :      0.12513585511434

   ID    Z sym.   atoms
    1    6 C      1-3, 5-13, 15, 17-34, 36-39, 43, 44, 46-56, 58, 59, 61, 62,
                  64, 65, 67-73, 75, 77, 79-83, 85
    2    8 O      4, 74
    3    7 N      14, 16, 40, 42, 60, 63, 84, 86
    4   16 S      35, 41, 45, 57, 66, 76
    5   35 Br     78
    6    1 H      87-127
########################################################################
[WARNING] Please study the warnings concerning your input carefully
-1- prog_main_parseArguments: the use of '-opt' is discouraged, please use '--opt' next time
########################################################################

           -------------------------------------------------
          |                 G F N 2 - x T B                 |
           -------------------------------------------------

        Reference                      10.1021/acs.jctc.8b01176
      * Hamiltonian:
        H0-scaling (s, p, d)           1.850000    2.230000    2.230000
        zeta-weighting                 0.500000
      * Dispersion:
        s8                             2.700000
        a1                             0.520000
        a2                             5.000000
        s9                             5.000000
      * Repulsion:
        kExp                           1.500000    1.000000
        rExp                           1.000000
      * Coulomb:
        alpha                          2.000000
        third order                    shell-resolved
        anisotropic                    true
        a3                             3.000000
        a5                             4.000000
        cn-shift                       1.200000
        cn-exp                         4.000000
        max-rad                        5.000000


          ...................................................
          :                      SETUP                      :
          :.................................................:
          :  # basis functions                 427          :
          :  # atomic orbitals                 420          :
          :  # shells                          220          :
          :  # electrons                       412          :
          :  max. iterations                   250          :
          :  Hamiltonian                  GFN2-xTB          :
          :  restarted?                      false          :
          :  GBSA solvation                  false          :
          :  PC potential                    false          :
          :  electronic temp.          300.0000000     K    :
          :  accuracy                    1.0000000          :
          :  -> integral cutoff          0.2500000E+02      :
          :  -> integral neglect         0.1000000E-07      :
          :  -> SCF convergence          0.1000000E-05 Eh   :
          :  -> wf. convergence          0.1000000E-03 e    :
          :  Broyden damping             0.4000000          :
          ...................................................

 iter      E             dE          RMSdq      gap      omega  full diag
   1   -226.5761590 -0.226576E+03  0.474E+00    1.33       0.0  T
   2   -226.7480599 -0.171901E+00  0.300E+00    0.71       1.0  T
   3   -226.6213245  0.126735E+00  0.199E+00    0.79       1.0  T
   4   -226.9231140 -0.301789E+00  0.704E-01    0.85       1.0  T
   5   -226.9668155 -0.437015E-01  0.235E-01    0.51       1.0  T
   6   -226.9710582 -0.424275E-02  0.130E-01    0.68       1.0  T
   7   -226.9722078 -0.114963E-02  0.505E-02    0.64       1.0  T
   8   -226.9723554 -0.147580E-03  0.269E-02    0.64       1.0  T
   9   -226.9723756 -0.201611E-04  0.175E-02    0.63       1.0  T
  10   -226.9723829 -0.730449E-05  0.129E-02    0.64       1.0  T
  11   -226.9723861 -0.320934E-05  0.877E-03    0.63       1.0  T
  12   -226.9723883 -0.220944E-05  0.594E-03    0.64       1.5  T
  13   -226.9723895 -0.120666E-05  0.331E-03    0.63       2.7  T
  14   -226.9723899 -0.422899E-06  0.164E-03    0.63       5.4  T
  15   -226.9723901 -0.139498E-06  0.869E-04    0.63      10.2  T
  16   -226.9723901 -0.284669E-07  0.520E-04    0.63      17.1  T

   *** convergence criteria satisfied after 16 iterations ***

         #    Occupation            Energy/Eh            Energy/eV
      -------------------------------------------------------------
         1        2.0000           -0.8641189             -23.5139
       ...           ...                  ...                  ...
       200        2.0000           -0.4002826             -10.8922
       201        2.0000           -0.3990110             -10.8576
       202        2.0000           -0.3981258             -10.8336
       203        2.0000           -0.3869478             -10.5294
       204        2.0000           -0.3801932             -10.3456
       205        2.0000           -0.3716314             -10.1126
       206        2.0000           -0.3632943              -9.8857 (HOMO)
       207        0.0000           -0.3399916              -9.2516 (LUMO)
       208        0.0000           -0.3360165              -9.1435
       209                         -0.3280253              -8.9260
       210                         -0.3251933              -8.8490
       211                         -0.3028345              -8.2405
       ...                                ...                  ...
       420                          1.0737037              29.2170
      -------------------------------------------------------------
                  HL-Gap            0.0233027 Eh            0.6341 eV
             Fermi-level           -0.3516501 Eh           -9.5689 eV

 SCC (total)                   0 d,  0 h,  0 min,  0.354 sec
 SCC setup                      ...        0 min,  0.001 sec (  0.234%)
 Dispersion                     ...        0 min,  0.005 sec (  1.473%)
 classical contributions        ...        0 min,  0.000 sec (  0.049%)
 integral evaluation            ...        0 min,  0.017 sec (  4.812%)
 iterations                     ...        0 min,  0.281 sec ( 79.278%)
 molecular gradient             ...        0 min,  0.049 sec ( 13.725%)
 printout                       ...        0 min,  0.001 sec (  0.404%)

         :::::::::::::::::::::::::::::::::::::::::::::::::::::
         ::                     SUMMARY                     ::
         :::::::::::::::::::::::::::::::::::::::::::::::::::::
         :: total energy            -223.510426612992 Eh    ::
         :: gradient norm              0.290406425781 Eh/a0 ::
         :: HOMO-LUMO gap              0.634099633198 eV    ::
         ::.................................................::
         :: SCC energy              -226.972390091662 Eh    ::
         :: -> isotropic ES            0.116728469271 Eh    ::
         :: -> anisotropic ES          0.018803171039 Eh    ::
         :: -> anisotropic XC          0.152002185543 Eh    ::
         :: -> dispersion             -0.208577201086 Eh    ::
         :: repulsion energy           3.459493339199 Eh    ::
         :: add. restraining           0.000000000000 Eh    ::
         :: total charge              -0.000000000003 e     ::
         :::::::::::::::::::::::::::::::::::::::::::::::::::::

      ----------------------------------------------------------- 
     |                   =====================                   |
     |                        A N C O P T                        |
     |                   =====================                   |
     |               Approximate Normal Coordinate               |
     |                Rational Function Optimizer                |
      ----------------------------------------------------------- 

          ...................................................
          :                      SETUP                      :
          :.................................................:
          :   optimization level            normal          :
          :   max. optcycles                   381          :
          :   ANC micro-cycles                  20          :
          :   degrees of freedom               375          :
          :.................................................:
          :   RF solver                   davidson          :
          :   write xtbopt.log                true          :
          :   linear?                        false          :
          :   energy convergence         0.5000000E-05 Eh   :
          :   grad. convergence          0.1000000E-02 Eh/α :
          :   maximium RF displ.         1.0000000          :
          :   Hlow (freq-cutoff)         0.1000000E-01      :
          :   Hmax (freq-cutoff)         5.0000000          :
          :   S6 in model hess.         20.0000000          :
          ...................................................

generating ANC from model Hessian ...
Using Lindh-Hessian (1995)
 Shifting diagonal of input Hessian by   1.008068177331300E-002
 Lowest  eigenvalues of input Hessian
    0.010000    0.010069    0.000000    0.000000    0.000000    0.000000
    0.000000    0.000000    0.010095    0.010104    0.010138    0.010168
    0.010191    0.010211    0.010242    0.010325    0.010392    0.010413
 Highest eigenvalues
    2.302130    2.322388    2.496962    2.506974    2.556827    2.557714
 

........................................................................
.............................. CYCLE    1 ..............................
........................................................................
   1   -226.9723901 -0.226972E+03  0.293E-04    0.63       0.0  T
   2   -226.9723901  0.354987E-10  0.251E-04    0.63      35.4  T
   3   -226.9723901 -0.339844E-08  0.183E-04    0.63      48.5  T
     SCC iter.                  ...        0 min,  0.055 sec
     gradient                   ...        0 min,  0.047 sec
 * total energy  :  -223.5104266 Eh     change       -0.1000544E-07 Eh
   gradient norm :     0.2904076 Eh/α   predicted     0.0000000E+00 (-100.00%)
   displ. norm   :     0.4651216 α      lambda       -0.9580851E-01
   maximum displ.:     0.0921815 α      in ANC's #213, #212, #233, ...

........................................................................
.............................. CYCLE    2 ..............................
........................................................................
   1   -227.1149895 -0.227115E+03  0.337E-01    0.63       0.0  T
   2   -227.1162038 -0.121423E-02  0.192E-01    0.64       1.0  T
   3   -227.1157609  0.442858E-03  0.104E-01    0.63       1.0  T
   4   -227.1164411 -0.680159E-03  0.467E-02    0.64       1.0  T
   5   -227.1165718 -0.130748E-03  0.220E-02    0.64       1.0  T
   6   -227.1165938 -0.219561E-04  0.120E-02    0.64       1.0  T
   7   -227.1165988 -0.504549E-05  0.830E-03    0.64       1.1  T
   8   -227.1166007 -0.184294E-05  0.612E-03    0.64       1.4  T
   9   -227.1166012 -0.579538E-06  0.399E-03    0.64       2.2  T
  10   -227.1166019 -0.693862E-06  0.229E-03    0.64       3.9  T
  11   -227.1166021 -0.146997E-06  0.129E-03    0.64       6.9  T
  12   -227.1166021 -0.627485E-07  0.548E-04    0.64      16.2  T
  13   -227.1166022 -0.169449E-07  0.247E-04    0.64      35.9  T
     SCC iter.                  ...        0 min,  0.218 sec
     gradient                   ...        0 min,  0.046 sec
 * total energy  :  -223.5791946 Eh     change       -0.6876801E-01 Eh
   gradient norm :     0.1311148 Eh/α   predicted    -0.5831331E-01 ( -15.20%)
   displ. norm   :     0.4558811 α      lambda       -0.3656013E-01
   maximum displ.:     0.1040953 α      in ANC's #83, #84, #57, ...

........................................................................
.............................. CYCLE    3 ..............................
........................................................................
   1   -227.1785483 -0.227179E+03  0.256E-01    0.62       0.0  T
   2   -227.1792359 -0.687572E-03  0.145E-01    0.66       1.0  T
   3   -227.1788857  0.350145E-03  0.854E-02    0.64       1.0  T
   4   -227.1794407 -0.554940E-03  0.337E-02    0.66       1.0  T
   5   -227.1795077 -0.670413E-04  0.171E-02    0.66       1.0  T
   6   -227.1795215 -0.138378E-04  0.970E-03    0.66       1.0  T
   7   -227.1795236 -0.211191E-05  0.688E-03    0.65       1.3  T
   8   -227.1795249 -0.128039E-05  0.501E-03    0.66       1.8  T
   9   -227.1795253 -0.401839E-06  0.324E-03    0.65       2.7  T
  10   -227.1795258 -0.485505E-06  0.189E-03    0.66       4.7  T
  11   -227.1795259 -0.126897E-06  0.982E-04    0.66       9.0  T
  12   -227.1795260 -0.306469E-07  0.496E-04    0.66      17.9  T
     SCC iter.                  ...        0 min,  0.210 sec
     gradient                   ...        0 min,  0.048 sec
 * total energy  :  -223.6015555 Eh     change       -0.2236086E-01 Eh
   gradient norm :     0.0370492 Eh/α   predicted    -0.2207918E-01 (  -1.26%)
   displ. norm   :     0.4651359 α      lambda       -0.9252241E-02
   maximum displ.:     0.1211246 α      in ANC's #79, #71, #83, ...

........................................................................
.............................. CYCLE    4 ..............................
........................................................................
   1   -227.1857709 -0.227186E+03  0.220E-01    0.66       0.0  T
   2   -227.1858713 -0.100375E-03  0.125E-01    0.70       1.0  T
   3   -227.1854863  0.384909E-03  0.536E-02    0.67       1.0  T
   4   -227.1859349 -0.448591E-03  0.125E-02    0.70       1.0  T
   5   -227.1859467 -0.117294E-04  0.742E-03    0.69       1.2  T
   6   -227.1859496 -0.289526E-05  0.381E-03    0.69       2.3  T
   7   -227.1859503 -0.698973E-06  0.246E-03    0.69       3.6  T
   8   -227.1859504 -0.156633E-06  0.173E-03    0.69       5.1  T
   9   -227.1859505 -0.495277E-07  0.122E-03    0.69       7.3  T
  10   -227.1859505 -0.461835E-07  0.694E-04    0.69      12.8  T
  11   -227.1859505 -0.173652E-07  0.374E-04    0.69      23.7  T
     SCC iter.                  ...        0 min,  0.189 sec
     gradient                   ...        0 min,  0.047 sec
 * total energy  :  -223.6050443 Eh     change       -0.3488862E-02 Eh
   gradient norm :     0.0342120 Eh/α   predicted    -0.5626991E-02 (  61.28%)
   displ. norm   :     0.5561640 α      lambda       -0.9929130E-02
   maximum displ.:     0.1648056 α      in ANC's #57, #19, #32, ...

........................................................................
.............................. CYCLE    5 ..............................
........................................................................
   1   -227.1893256 -0.227189E+03  0.343E-01    0.71       0.0  T
   2   -227.1895337 -0.208079E-03  0.191E-01    0.74       1.0  T
   3   -227.1890018  0.531872E-03  0.628E-02    0.71       1.0  T
   4   -227.1896516 -0.649821E-03  0.128E-02    0.74       1.0  T
   5   -227.1896619 -0.102716E-04  0.785E-03    0.73       1.1  T
   6   -227.1896655 -0.355892E-05  0.329E-03    0.73       2.7  T
   7   -227.1896663 -0.784365E-06  0.176E-03    0.73       5.0  T
   8   -227.1896663 -0.823877E-07  0.126E-03    0.73       7.0  T
   9   -227.1896664 -0.269617E-07  0.920E-04    0.73       9.6  T
  10   -227.1896664 -0.221951E-07  0.608E-04    0.73      14.6  T
     SCC iter.                  ...        0 min,  0.172 sec
     gradient                   ...        0 min,  0.047 sec
 * total energy  :  -223.6074251 Eh     change       -0.2380735E-02 Eh
   gradient norm :     0.0319412 Eh/α   predicted    -0.6500198E-02 ( 173.03%)
   displ. norm   :     0.2510655 α      lambda       -0.3594851E-02
   maximum displ.:     0.0943137 α      in ANC's #36, #43, #37, ...

........................................................................
.............................. CYCLE    6 ..............................
........................................................................
   1   -227.1864012 -0.227186E+03  0.176E-01    0.74       0.0  T
   2   -227.1864538 -0.526490E-04  0.990E-02    0.75       1.0  T
   3   -227.1861590  0.294825E-03  0.493E-02    0.73       1.0  T
   4   -227.1865023 -0.343312E-03  0.701E-03    0.75       1.3  T
   5   -227.1865053 -0.296283E-05  0.392E-03    0.74       2.3  T
   6   -227.1865060 -0.754488E-06  0.208E-03    0.75       4.3  T
   7   -227.1865062 -0.220117E-06  0.137E-03    0.75       6.5  T
   8   -227.1865063 -0.392845E-07  0.100E-03    0.75       8.8  T
   9   -227.1865063 -0.168268E-07  0.725E-04    0.75      12.2  T
  10   -227.1865063 -0.180057E-07  0.372E-04    0.75      23.9  T
     SCC iter.                  ...        0 min,  0.172 sec
     gradient                   ...        0 min,  0.047 sec
 * total energy  :  -223.6090567 Eh     change       -0.1631591E-02 Eh
   gradient norm :     0.0304418 Eh/α   predicted    -0.1910723E-02 (  17.11%)
   displ. norm   :     0.4282950 α      lambda       -0.4453102E-02
   maximum displ.:     0.1375115 α      in ANC's #44, #19, #36, ...

........................................................................
.............................. CYCLE    7 ..............................
........................................................................
   1   -227.1796454 -0.227180E+03  0.319E-01    0.76       0.0  T
   2   -227.1798027 -0.157319E-03  0.178E-01    0.78       1.0  T
   3   -227.1791497  0.653019E-03  0.699E-02    0.74       1.0  T
   4   -227.1799141 -0.764368E-03  0.109E-02    0.77       1.0  T
   5   -227.1799198 -0.570061E-05  0.643E-03    0.77       1.4  T
   6   -227.1799221 -0.233881E-05  0.330E-03    0.77       2.7  T
   7   -227.1799227 -0.589943E-06  0.208E-03    0.77       4.3  T
   8   -227.1799228 -0.905003E-07  0.151E-03    0.77       5.9  T
   9   -227.1799228 -0.328421E-07  0.114E-03    0.77       7.8  T
  10   -227.1799229 -0.483915E-07  0.582E-04    0.77      15.2  T
  11   -227.1799229 -0.121248E-07  0.339E-04    0.77      26.2  T
     SCC iter.                  ...        0 min,  0.188 sec
     gradient                   ...        0 min,  0.048 sec
 * total energy  :  -223.6080881 Eh     change        0.9685724E-03 Eh
   gradient norm :     0.0329270 Eh/α   predicted    -0.2634981E-02 (-372.05%)
   displ. norm   :     0.2205876 α      lambda       -0.4236832E-02
   maximum displ.:     0.0674203 α      in ANC's #43, #19, #1, ...

........................................................................
.............................. CYCLE    8 ..............................
........................................................................
   1   -227.1880435 -0.227188E+03  0.166E-01    0.77       0.0  T
   2   -227.1880836 -0.401455E-04  0.930E-02    0.78       1.0  T
   3   -227.1879470  0.136658E-03  0.331E-02    0.77       1.0  T
   4   -227.1881090 -0.162050E-03  0.673E-03    0.78       1.3  T
   5   -227.1881121 -0.305310E-05  0.359E-03    0.78       2.5  T
   6   -227.1881125 -0.431985E-06  0.202E-03    0.78       4.4  T
   7   -227.1881128 -0.241446E-06  0.128E-03    0.78       6.9  T
   8   -227.1881128 -0.249598E-07  0.958E-04    0.78       9.3  T
   9   -227.1881128 -0.161714E-07  0.687E-04    0.78      12.9  T
     SCC iter.                  ...        0 min,  0.155 sec
     gradient                   ...        0 min,  0.047 sec
 * total energy  :  -223.6105184 Eh     change       -0.2430250E-02 Eh
   gradient norm :     0.0186148 Eh/α   predicted    -0.2221495E-02 (  -8.59%)
   displ. norm   :     0.2993057 α      lambda       -0.1327966E-02
   maximum displ.:     0.1085577 α      in ANC's #8, #10, #19, ...

........................................................................
.............................. CYCLE    9 ..............................
........................................................................
   1   -227.1770396 -0.227177E+03  0.204E-01    0.77       0.0  T
   2   -227.1771033 -0.637038E-04  0.113E-01    0.79       1.0  T
   3   -227.1769314  0.171928E-03  0.345E-02    0.77       1.0  T
   4   -227.1771394 -0.208052E-03  0.588E-03    0.79       1.5  T
   5   -227.1771405 -0.106141E-05  0.388E-03    0.79       2.3  T
   6   -227.1771414 -0.912937E-06  0.151E-03    0.79       5.9  T
   7   -227.1771415 -0.101130E-06  0.887E-04    0.79      10.0  T
   8   -227.1771415 -0.203583E-07  0.639E-04    0.79      13.9  T
     SCC iter.                  ...        0 min,  0.140 sec
     gradient                   ...        0 min,  0.047 sec
 * total energy  :  -223.6102420 Eh     change        0.2763632E-03 Eh
   gradient norm :     0.0270643 Eh/α   predicted    -0.7234658E-03 (-361.78%)
   displ. norm   :     0.2512342 α      lambda       -0.2293020E-02
   maximum displ.:     0.1026312 α      in ANC's #1, #36, #38, ...

........................................................................
.............................. CYCLE   10 ..............................
........................................................................
   1   -227.1796043 -0.227180E+03  0.160E-01    0.80       0.0  T
   2   -227.1796365 -0.322431E-04  0.889E-02    0.81       1.0  T
   3   -227.1795821  0.544703E-04  0.191E-02    0.79       1.0  T
   4   -227.1796533 -0.712346E-04  0.387E-03    0.81       2.3  T
   5   -227.1796535 -0.164166E-06  0.240E-03    0.81       3.7  T
   6   -227.1796538 -0.379632E-06  0.899E-04    0.81       9.9  T
   7   -227.1796539 -0.740569E-07  0.336E-04    0.81      26.4  T
     SCC iter.                  ...        0 min,  0.125 sec
     gradient                   ...        0 min,  0.047 sec
 * total energy  :  -223.6113681 Eh     change       -0.1126153E-02 Eh
   gradient norm :     0.0196345 Eh/α   predicted    -0.1218875E-02 (   8.23%)
   displ. norm   :     0.2324918 α      lambda       -0.7558250E-03
   maximum displ.:     0.0897221 α      in ANC's #8, #36, #6, ...

........................................................................
.............................. CYCLE   11 ..............................
........................................................................
   1   -227.1849420 -0.227185E+03  0.744E-02    0.81       0.0  T
   2   -227.1849527 -0.106584E-04  0.421E-02    0.82       1.0  T
   3   -227.1849023  0.503628E-04  0.195E-02    0.81       1.0  T
   4   -227.1849609 -0.585946E-04  0.298E-03    0.82       3.0  T
   5   -227.1849613 -0.348448E-06  0.198E-03    0.82       4.5  T
   6   -227.1849616 -0.300703E-06  0.775E-04    0.82      11.4  T
   7   -227.1849616 -0.398072E-07  0.388E-04    0.82      22.9  T
     SCC iter.                  ...        0 min,  0.124 sec
     gradient                   ...        0 min,  0.047 sec
 * total energy  :  -223.6118421 Eh     change       -0.4739360E-03 Eh
   gradient norm :     0.0095634 Eh/α   predicted    -0.3983443E-03 ( -15.95%)
   displ. norm   :     0.4728321 α      lambda       -0.7703630E-03
   maximum displ.:     0.2011645 α      in ANC's #8, #36, #6, ...

........................................................................
.............................. CYCLE   12 ..............................
........................................................................
   1   -227.1818175 -0.227182E+03  0.973E-02    0.82       0.0  T
   2   -227.1818259 -0.832902E-05  0.558E-02    0.85       1.0  T
   3   -227.1816165  0.209413E-03  0.351E-02    0.81       1.0  T
   4   -227.1818497 -0.233207E-03  0.499E-03    0.84       1.8  T
   5   -227.1818507 -0.100926E-05  0.303E-03    0.84       2.9  T
   6   -227.1818512 -0.561148E-06  0.125E-03    0.84       7.1  T
   7   -227.1818514 -0.146097E-06  0.436E-04    0.84      20.4  T
   8   -227.1818514 -0.727641E-08  0.244E-04    0.84      36.3  T
     SCC iter.                  ...        0 min,  0.144 sec
     gradient                   ...        0 min,  0.047 sec
 * total energy  :  -223.6124905 Eh     change       -0.6484207E-03 Eh
   gradient norm :     0.0130679 Eh/α   predicted    -0.4712994E-03 ( -27.32%)
   displ. norm   :     0.6875385 α      lambda       -0.1029723E-02
   maximum displ.:     0.3094051 α      in ANC's #8, #6, #10, ...

........................................................................
.............................. CYCLE   13 ..............................
........................................................................
   1   -227.1785816 -0.227179E+03  0.138E-01    0.84       0.0  T
   2   -227.1786055 -0.239050E-04  0.784E-02    0.87       1.0  T
   3   -227.1783589  0.246513E-03  0.386E-02    0.84       1.0  T
   4   -227.1786331 -0.274177E-03  0.721E-03    0.87       1.2  T
   5   -227.1786363 -0.316453E-05  0.416E-03    0.86       2.1  T
   6   -227.1786373 -0.990076E-06  0.174E-03    0.86       5.1  T
   7   -227.1786376 -0.286087E-06  0.630E-04    0.86      14.1  T
   8   -227.1786376 -0.191305E-07  0.364E-04    0.86      24.4  T
     SCC iter.                  ...        0 min,  0.146 sec
     gradient                   ...        0 min,  0.047 sec
 * total energy  :  -223.6133159 Eh     change       -0.8254050E-03 Eh
   gradient norm :     0.0078032 Eh/α   predicted    -0.7582389E-03 (  -8.14%)
   displ. norm   :     0.6653793 α      lambda       -0.8929408E-03
   maximum displ.:     0.3182929 α      in ANC's #8, #6, #10, ...

........................................................................
.............................. CYCLE   14 ..............................
........................................................................
   1   -227.1772472 -0.227177E+03  0.127E-01    0.87       0.0  T
   2   -227.1772683 -0.211319E-04  0.720E-02    0.89       1.0  T
   3   -227.1771001  0.168224E-03  0.324E-02    0.86       1.0  T
   4   -227.1772865 -0.186363E-03  0.672E-03    0.88       1.3  T
   5   -227.1772897 -0.322795E-05  0.356E-03    0.88       2.5  T
   6   -227.1772903 -0.594073E-06  0.171E-03    0.88       5.2  T
   7   -227.1772906 -0.306180E-06  0.578E-04    0.88      15.3  T
   8   -227.1772906 -0.128459E-07  0.378E-04    0.88      23.5  T
     SCC iter.                  ...        0 min,  0.141 sec
     gradient                   ...        0 min,  0.047 sec
 * total energy  :  -223.6140514 Eh     change       -0.7355458E-03 Eh
   gradient norm :     0.0115223 Eh/α   predicted    -0.6441388E-03 ( -12.43%)
   displ. norm   :     0.6813299 α      lambda       -0.9698289E-03
   maximum displ.:     0.3263649 α      in ANC's #8, #6, #10, ...

........................................................................
.............................. CYCLE   15 ..............................
........................................................................
   1   -227.1814483 -0.227181E+03  0.111E-01    0.89       0.0  T
   2   -227.1814656 -0.172463E-04  0.632E-02    0.89       1.0  T
   3   -227.1813940  0.715805E-04  0.238E-02    0.88       1.0  T
   4   -227.1814747 -0.807449E-04  0.579E-03    0.89       1.5  T
   5   -227.1814770 -0.228723E-05  0.304E-03    0.89       2.9  T
   6   -227.1814775 -0.462445E-06  0.134E-03    0.89       6.6  T
   7   -227.1814776 -0.149880E-06  0.596E-04    0.89      14.9  T
   8   -227.1814776 -0.711137E-08  0.413E-04    0.89      21.5  T
     SCC iter.                  ...        0 min,  0.146 sec
     gradient                   ...        0 min,  0.047 sec
 * total energy  :  -223.6148782 Eh     change       -0.8267406E-03 Eh
   gradient norm :     0.0109628 Eh/α   predicted    -0.7100166E-03 ( -14.12%)
   displ. norm   :     0.7340798 α      lambda       -0.1111026E-02
   maximum displ.:     0.3548304 α      in ANC's #8, #6, #1, ...

........................................................................
.............................. CYCLE   16 ..............................
........................................................................
   1   -227.1846859 -0.227185E+03  0.138E-01    0.90       0.0  T
   2   -227.1847108 -0.248934E-04  0.778E-02    0.90       1.0  T
   3   -227.1846383  0.725050E-04  0.234E-02    0.90       1.0  T
   4   -227.1847211 -0.828183E-04  0.693E-03    0.90       1.3  T
   5   -227.1847243 -0.313348E-05  0.371E-03    0.90       2.4  T
   6   -227.1847250 -0.746888E-06  0.173E-03    0.90       5.1  T
   7   -227.1847253 -0.254934E-06  0.837E-04    0.90      10.6  T
   8   -227.1847253 -0.887442E-08  0.633E-04    0.90      14.0  T
     SCC iter.                  ...        0 min,  0.148 sec
     gradient                   ...        0 min,  0.047 sec
 * total energy  :  -223.6158043 Eh     change       -0.9261566E-03 Eh
   gradient norm :     0.0138604 Eh/α   predicted    -0.8548611E-03 (  -7.70%)
   displ. norm   :     0.7386422 α      lambda       -0.1154877E-02
   maximum displ.:     0.3502626 α      in ANC's #8, #1, #6, ...

........................................................................
.............................. CYCLE   17 ..............................
........................................................................
   1   -227.1911933 -0.227191E+03  0.113E-01    0.90       0.0  T
   2   -227.1912087 -0.153727E-04  0.641E-02    0.90       1.0  T
   3   -227.1911329  0.757856E-04  0.241E-02    0.90       1.0  T
   4   -227.1912182 -0.852646E-04  0.622E-03    0.90       1.4  T
   5   -227.1912200 -0.181969E-05  0.358E-03    0.90       2.5  T
   6   -227.1912208 -0.816942E-06  0.153E-03    0.90       5.8  T
   7   -227.1912210 -0.166111E-06  0.852E-04    0.90      10.4  T
   8   -227.1912210 -0.109802E-07  0.626E-04    0.90      14.2  T
     SCC iter.                  ...        0 min,  0.144 sec
     gradient                   ...        0 min,  0.047 sec
 * total energy  :  -223.6167144 Eh     change       -0.9100585E-03 Eh
   gradient norm :     0.0112484 Eh/α   predicted    -0.8924861E-03 (  -1.93%)
   displ. norm   :     0.8283101 α      lambda       -0.1041948E-02
   maximum displ.:     0.4129471 α      in ANC's #8, #1, #6, ...

........................................................................
.............................. CYCLE   18 ..............................
........................................................................
   1   -227.1796745 -0.227180E+03  0.139E-01    0.89       0.0  T
   2   -227.1796914 -0.169503E-04  0.795E-02    0.91       1.0  T
   3   -227.1794351  0.256319E-03  0.389E-02    0.87       1.0  T
   4   -227.1797157 -0.280620E-03  0.753E-03    0.90       1.2  T
   5   -227.1797184 -0.274104E-05  0.417E-03    0.90       2.1  T
   6   -227.1797195 -0.104055E-05  0.186E-03    0.90       4.8  T
   7   -227.1797198 -0.325229E-06  0.909E-04    0.90       9.8  T
   8   -227.1797198 -0.145771E-07  0.641E-04    0.90      13.8  T
     SCC iter.                  ...        0 min,  0.147 sec
     gradient                   ...        0 min,  0.047 sec
 * total energy  :  -223.6175566 Eh     change       -0.8421962E-03 Eh
   gradient norm :     0.0119479 Eh/α   predicted    -0.8784140E-03 (   4.30%)
   displ. norm   :     0.6885964 α      lambda       -0.1262570E-02
   maximum displ.:     0.2951988 α      in ANC's #8, #1, #6, ...

........................................................................
.............................. CYCLE   19 ..............................
........................................................................
   1   -227.1894013 -0.227189E+03  0.128E-01    0.94       0.0  T
   2   -227.1894344 -0.331627E-04  0.729E-02    0.93       1.0  T
   3   -227.1892919  0.142513E-03  0.314E-02    0.93       1.0  T
   4   -227.1894496 -0.157702E-03  0.852E-03    0.92       1.0  T
   5   -227.1894558 -0.621514E-05  0.405E-03    0.93       2.2  T
   6   -227.1894566 -0.819823E-06  0.198E-03    0.93       4.5  T
   7   -227.1894570 -0.321004E-06  0.105E-03    0.93       8.5  T
   8   -227.1894570 -0.316097E-07  0.759E-04    0.93      11.7  T
   9   -227.1894570 -0.101066E-07  0.528E-04    0.93      16.8  T
     SCC iter.                  ...        0 min,  0.156 sec
     gradient                   ...        0 min,  0.047 sec
 * total energy  :  -223.6181900 Eh     change       -0.6334369E-03 Eh
   gradient norm :     0.0221150 Eh/α   predicted    -0.9306183E-03 (  46.92%)
   displ. norm   :     0.6162001 α      lambda       -0.1148592E-02
   maximum displ.:     0.3016477 α      in ANC's #8, #1, #6, ...

........................................................................
.............................. CYCLE   20 ..............................
........................................................................
   1   -227.1878401 -0.227188E+03  0.917E-02    0.91       0.0  T
   2   -227.1878648 -0.247669E-04  0.541E-02    0.91       1.0  T
   3   -227.1876641  0.200691E-03  0.367E-02    0.90       1.0  T
   4   -227.1878941 -0.229924E-03  0.883E-03    0.91       1.0  T
   5   -227.1879015 -0.740536E-05  0.333E-03    0.91       2.7  T
   6   -227.1879018 -0.339325E-06  0.193E-03    0.91       4.6  T
   7   -227.1879021 -0.314426E-06  0.953E-04    0.91       9.3  T
   8   -227.1879022 -0.346143E-07  0.671E-04    0.91      13.2  T
     SCC iter.                  ...        0 min,  0.144 sec
     gradient                   ...        0 min,  0.047 sec
 * total energy  :  -223.6190076 Eh     change       -0.8175987E-03 Eh
   gradient norm :     0.0126096 Eh/α   predicted    -0.7923568E-03 (  -3.09%)
   displ. norm   :     0.6346259 α      lambda       -0.9485103E-03
   maximum displ.:     0.3060358 α      in ANC's #8, #1, #6, ...
 * RMSD in coord.:     0.6737340 α      energy gain  -0.1085810E+00 Eh

generating ANC from model Hessian ...
Using Lindh-Hessian (1995)
 Shifting diagonal of input Hessian by   9.992913269714179E-003
 Lowest  eigenvalues of input Hessian
    0.000000    0.000000    0.000000    0.000000    0.000000    0.000000
    0.010000    0.010013    0.010036    0.010060    0.010085    0.010117
    0.010170    0.010281    0.010303    0.010330    0.010418    0.010437
 Highest eigenvalues
    2.277672    2.286571    2.597463    2.610436    2.662276    2.663929
 

........................................................................
.............................. CYCLE   21 ..............................
........................................................................
   1   -227.1851283 -0.227185E+03  0.918E-02    0.91       0.0  T
   2   -227.1851425 -0.142106E-04  0.528E-02    0.92       1.0  T
   3   -227.1850380  0.104483E-03  0.259E-02    0.90       1.0  T
   4   -227.1851526 -0.114620E-03  0.697E-03    0.92       1.3  T
   5   -227.1851572 -0.454276E-05  0.312E-03    0.92       2.8  T
   6   -227.1851575 -0.317051E-06  0.155E-03    0.92       5.7  T
   7   -227.1851576 -0.162805E-06  0.847E-04    0.92      10.5  T
   8   -227.1851577 -0.991648E-08  0.631E-04    0.92      14.1  T
     SCC iter.                  ...        0 min,  0.142 sec
     gradient                   ...        0 min,  0.047 sec
 * total energy  :  -223.6196780 Eh     change       -0.6704077E-03 Eh
   gradient norm :     0.0138535 Eh/α   predicted     0.0000000E+00 (-100.00%)
   displ. norm   :     0.1418659 α      lambda       -0.5830954E-03
   maximum displ.:     0.0790293 α      in ANC's #5, #7, #6, ...

........................................................................
.............................. CYCLE   22 ..............................
........................................................................
   1   -227.1897836 -0.227190E+03  0.347E-02    0.93       0.0  T
   2   -227.1897858 -0.215469E-05  0.201E-02    0.92       1.0  T
   3   -227.1897755  0.103470E-04  0.823E-03    0.93       1.1  T
   4   -227.1897866 -0.111252E-04  0.270E-03    0.92       3.3  T
   5   -227.1897873 -0.701448E-06  0.121E-03    0.92       7.3  T
   6   -227.1897873 -0.562145E-07  0.666E-04    0.92      13.3  T
   7   -227.1897874 -0.327062E-07  0.377E-04    0.92      23.6  T
     SCC iter.                  ...        0 min,  0.128 sec
     gradient                   ...        0 min,  0.047 sec
 * total energy  :  -223.6200896 Eh     change       -0.4115961E-03 Eh
   gradient norm :     0.0052503 Eh/α   predicted    -0.2974229E-03 ( -27.74%)
   displ. norm   :     0.2794972 α      lambda       -0.5742304E-03
   maximum displ.:     0.1648961 α      in ANC's #5, #7, #6, ...

........................................................................
.............................. CYCLE   23 ..............................
........................................................................
   1   -227.1952202 -0.227195E+03  0.108E-01    0.94       0.0  T
   2   -227.1952367 -0.165022E-04  0.601E-02    0.93       1.0  T
   3   -227.1952242  0.124953E-04  0.114E-02    0.94       1.0  T
   4   -227.1952431 -0.188880E-04  0.374E-03    0.93       2.4  T
   5   -227.1952438 -0.733053E-06  0.211E-03    0.93       4.2  T
   6   -227.1952440 -0.235042E-06  0.994E-04    0.93       8.9  T
   7   -227.1952441 -0.548023E-07  0.661E-04    0.93      13.4  T
     SCC iter.                  ...        0 min,  0.130 sec
     gradient                   ...        0 min,  0.048 sec
 * total energy  :  -223.6202892 Eh     change       -0.1995626E-03 Eh
   gradient norm :     0.0121429 Eh/α   predicted    -0.3095448E-03 (  55.11%)
   displ. norm   :     0.2792100 α      lambda       -0.6432176E-03
   maximum displ.:     0.1569153 α      in ANC's #5, #7, #6, ...

........................................................................
.............................. CYCLE   24 ..............................
........................................................................
   1   -227.1993433 -0.227199E+03  0.796E-02    0.94       0.0  T
   2   -227.1993517 -0.840195E-05  0.443E-02    0.93       1.0  T
   3   -227.1993394  0.122845E-04  0.102E-02    0.94       1.0  T
   4   -227.1993552 -0.157134E-04  0.304E-03    0.93       2.9  T
   5   -227.1993555 -0.395280E-06  0.182E-03    0.94       4.9  T
   6   -227.1993558 -0.240342E-06  0.869E-04    0.93      10.2  T
   7   -227.1993558 -0.459781E-07  0.564E-04    0.93      15.7  T
     SCC iter.                  ...        0 min,  0.127 sec
     gradient                   ...        0 min,  0.047 sec
 * total energy  :  -223.6206563 Eh     change       -0.3670552E-03 Eh
   gradient norm :     0.0103683 Eh/α   predicted    -0.3466811E-03 (  -5.55%)
   displ. norm   :     0.2745605 α      lambda       -0.4309994E-03
   maximum displ.:     0.1685840 α      in ANC's #5, #7, #6, ...

........................................................................
.............................. CYCLE   25 ..............................
........................................................................
   1   -227.1951559 -0.227195E+03  0.514E-02    0.93       0.0  T
   2   -227.1951587 -0.281113E-05  0.289E-02    0.93       1.0  T
   3   -227.1951347  0.240221E-04  0.122E-02    0.93       1.0  T
   4   -227.1951611 -0.264178E-04  0.293E-03    0.93       3.0  T
   5   -227.1951617 -0.550359E-06  0.160E-03    0.93       5.5  T
   6   -227.1951618 -0.162687E-06  0.765E-04    0.93      11.6  T
   7   -227.1951619 -0.358341E-07  0.439E-04    0.93      20.2  T
     SCC iter.                  ...        0 min,  0.127 sec
     gradient                   ...        0 min,  0.047 sec
 * total energy  :  -223.6210013 Eh     change       -0.3450449E-03 Eh
   gradient norm :     0.0073759 Eh/α   predicted    -0.2317449E-03 ( -32.84%)
   displ. norm   :     0.5007779 α      lambda       -0.7998145E-03
   maximum displ.:     0.2971187 α      in ANC's #5, #7, #6, ...

........................................................................
.............................. CYCLE   26 ..............................
........................................................................
   1   -227.1833451 -0.227183E+03  0.107E-01    0.92       0.0  T
   2   -227.1833601 -0.149863E-04  0.599E-02    0.93       1.0  T
   3   -227.1832944  0.656972E-04  0.201E-02    0.91       1.0  T
   4   -227.1833678 -0.734413E-04  0.590E-03    0.93       1.5  T
   5   -227.1833705 -0.267827E-05  0.311E-03    0.92       2.9  T
   6   -227.1833710 -0.459136E-06  0.162E-03    0.92       5.5  T
   7   -227.1833711 -0.133601E-06  0.104E-03    0.92       8.5  T
   8   -227.1833711 -0.179008E-07  0.743E-04    0.92      11.9  T
   9   -227.1833711 -0.886257E-08  0.445E-04    0.92      19.9  T
     SCC iter.                  ...        0 min,  0.159 sec
     gradient                   ...        0 min,  0.047 sec
 * total energy  :  -223.6213943 Eh     change       -0.3930023E-03 Eh
   gradient norm :     0.0099960 Eh/α   predicted    -0.5001955E-03 (  27.28%)
   displ. norm   :     0.4491080 α      lambda       -0.7902391E-03
   maximum displ.:     0.2611594 α      in ANC's #5, #7, #6, ...

........................................................................
.............................. CYCLE   27 ..............................
........................................................................
   1   -227.1805925 -0.227181E+03  0.117E-01    0.92       0.0  T
   2   -227.1806099 -0.174342E-04  0.646E-02    0.92       1.0  T
   3   -227.1806016  0.826606E-05  0.110E-02    0.92       1.0  T
   4   -227.1806165 -0.148298E-04  0.404E-03    0.92       2.2  T
   5   -227.1806171 -0.607153E-06  0.216E-03    0.92       4.1  T
   6   -227.1806174 -0.316096E-06  0.987E-04    0.92       9.0  T
   7   -227.1806174 -0.382094E-07  0.681E-04    0.92      13.0  T
     SCC iter.                  ...        0 min,  0.126 sec
     gradient                   ...        0 min,  0.047 sec
 * total energy  :  -223.6217793 Eh     change       -0.3850133E-03 Eh
   gradient norm :     0.0127604 Eh/α   predicted    -0.4748158E-03 (  23.32%)
   displ. norm   :     0.3870935 α      lambda       -0.7130458E-03
   maximum displ.:     0.2257899 α      in ANC's #5, #7, #6, ...

........................................................................
.............................. CYCLE   28 ..............................
........................................................................
   1   -227.1840611 -0.227184E+03  0.108E-01    0.93       0.0  T
   2   -227.1840760 -0.148853E-04  0.599E-02    0.93       1.0  T
   3   -227.1840499  0.260967E-04  0.147E-02    0.93       1.0  T
   4   -227.1840837 -0.337210E-04  0.349E-03    0.93       2.5  T
   5   -227.1840838 -0.157846E-06  0.205E-03    0.93       4.3  T
   6   -227.1840841 -0.312351E-06  0.945E-04    0.93       9.4  T
   7   -227.1840842 -0.632621E-07  0.570E-04    0.93      15.6  T
     SCC iter.                  ...        0 min,  0.127 sec
     gradient                   ...        0 min,  0.047 sec
 * total energy  :  -223.6222547 Eh     change       -0.4753738E-03 Eh
   gradient norm :     0.0095660 Eh/α   predicted    -0.4099463E-03 ( -13.76%)
   displ. norm   :     0.5031631 α      lambda       -0.7393486E-03
   maximum displ.:     0.2988229 α      in ANC's #5, #7, #6, ...

........................................................................
.............................. CYCLE   29 ..............................
........................................................................
   1   -227.1914197 -0.227191E+03  0.903E-02    0.94       0.0  T
   2   -227.1914289 -0.921491E-05  0.506E-02    0.94       1.0  T
   3   -227.1913960  0.328866E-04  0.158E-02    0.93       1.0  T
   4   -227.1914342 -0.381891E-04  0.399E-03    0.94       2.2  T
   5   -227.1914344 -0.280674E-06  0.255E-03    0.93       3.5  T
   6   -227.1914350 -0.566434E-06  0.108E-03    0.94       8.2  T
   7   -227.1914351 -0.623447E-07  0.728E-04    0.94      12.2  T
   8   -227.1914351 -0.161077E-07  0.505E-04    0.94      17.6  T
     SCC iter.                  ...        0 min,  0.142 sec
     gradient                   ...        0 min,  0.047 sec
 * total energy  :  -223.6228538 Eh     change       -0.5990772E-03 Eh
   gradient norm :     0.0053843 Eh/α   predicted    -0.4632669E-03 ( -22.67%)
   displ. norm   :     0.7153213 α      lambda       -0.8280434E-03
   maximum displ.:     0.4329302 α      in ANC's #5, #7, #6, ...

........................................................................
.............................. CYCLE   30 ..............................
........................................................................
   1   -227.1920917 -0.227192E+03  0.114E-01    0.94       0.0  T
   2   -227.1921043 -0.125944E-04  0.641E-02    0.94       1.0  T
   3   -227.1920520  0.523563E-04  0.195E-02    0.93       1.0  T
   4   -227.1921121 -0.601566E-04  0.528E-03    0.94       1.7  T
   5   -227.1921127 -0.592044E-06  0.323E-03    0.94       2.7  T
   6   -227.1921135 -0.738993E-06  0.134E-03    0.94       6.6  T
   7   -227.1921136 -0.113276E-06  0.893E-04    0.94       9.9  T
   8   -227.1921136 -0.135046E-07  0.628E-04    0.94      14.1  T
     SCC iter.                  ...        0 min,  0.142 sec
     gradient                   ...        0 min,  0.047 sec
 * total energy  :  -223.6235978 Eh     change       -0.7440516E-03 Eh
   gradient norm :     0.0058811 Eh/α   predicted    -0.6258688E-03 ( -15.88%)
   displ. norm   :     0.7945240 α      lambda       -0.8628366E-03
   maximum displ.:     0.4839024 α      in ANC's #5, #7, #6, ...

........................................................................
.............................. CYCLE   31 ..............................
........................................................................
   1   -227.1927417 -0.227193E+03  0.117E-01    0.94       0.0  T
   2   -227.1927548 -0.130846E-04  0.663E-02    0.94       1.0  T
   3   -227.1926708  0.840082E-04  0.235E-02    0.93       1.0  T
   4   -227.1927640 -0.932385E-04  0.616E-03    0.94       1.4  T
   5   -227.1927657 -0.166231E-05  0.361E-03    0.94       2.5  T
   6   -227.1927665 -0.830898E-06  0.156E-03    0.94       5.7  T
   7   -227.1927667 -0.189483E-06  0.929E-04    0.94       9.6  T
   8   -227.1927667 -0.155393E-07  0.675E-04    0.94      13.1  T
     SCC iter.                  ...        0 min,  0.147 sec
     gradient                   ...        0 min,  0.047 sec
 * total energy  :  -223.6243813 Eh     change       -0.7835164E-03 Eh
   gradient norm :     0.0067115 Eh/α   predicted    -0.7037628E-03 ( -10.18%)
   displ. norm   :     0.8127957 α      lambda       -0.8357397E-03
   maximum displ.:     0.5012670 α      in ANC's #5, #7, #6, ...

........................................................................
.............................. CYCLE   32 ..............................
........................................................................
   1   -227.1898790 -0.227190E+03  0.131E-01    0.93       0.0  T
   2   -227.1898970 -0.179709E-04  0.739E-02    0.94       1.0  T
   3   -227.1897981  0.988920E-04  0.256E-02    0.92       1.0  T
   4   -227.1899085 -0.110331E-03  0.668E-03    0.94       1.3  T
   5   -227.1899105 -0.200200E-05  0.392E-03    0.94       2.3  T
   6   -227.1899115 -0.108488E-05  0.170E-03    0.94       5.2  T
   7   -227.1899118 -0.229176E-06  0.990E-04    0.94       9.0  T
   8   -227.1899118 -0.199219E-07  0.717E-04    0.94      12.4  T
     SCC iter.                  ...        0 min,  0.151 sec
     gradient                   ...        0 min,  0.048 sec
 * total energy  :  -223.6251203 Eh     change       -0.7389857E-03 Eh
   gradient norm :     0.0091390 Eh/α   predicted    -0.6939267E-03 (  -6.10%)
   displ. norm   :     0.8135066 α      lambda       -0.8750119E-03
   maximum displ.:     0.5056379 α      in ANC's #5, #7, #15, ...

........................................................................
.............................. CYCLE   33 ..............................
........................................................................
   1   -227.1955107 -0.227196E+03  0.110E-01    0.94       0.0  T
   2   -227.1955234 -0.127001E-04  0.629E-02    0.94       1.0  T
   3   -227.1954324  0.909509E-04  0.257E-02    0.93       1.0  T
   4   -227.1955330 -0.100642E-03  0.612E-03    0.94       1.5  T
   5   -227.1955350 -0.199878E-05  0.353E-03    0.94       2.5  T
   6   -227.1955359 -0.812171E-06  0.152E-03    0.94       5.8  T
   7   -227.1955360 -0.164884E-06  0.861E-04    0.94      10.3  T
   8   -227.1955360 -0.144339E-07  0.641E-04    0.94      13.8  T
     SCC iter.                  ...        0 min,  0.143 sec
     gradient                   ...        0 min,  0.047 sec
 * total energy  :  -223.6257829 Eh     change       -0.6625521E-03 Eh
   gradient norm :     0.0136770 Eh/α   predicted    -0.7270413E-03 (   9.73%)
   displ. norm   :     0.7726392 α      lambda       -0.7785973E-03
   maximum displ.:     0.4889465 α      in ANC's #5, #7, #15, ...

........................................................................
.............................. CYCLE   34 ..............................
........................................................................
   1   -227.1887112 -0.227189E+03  0.128E-01    0.94       0.0  T
   2   -227.1887268 -0.156194E-04  0.721E-02    0.94       1.0  T
   3   -227.1886122  0.114624E-03  0.280E-02    0.93       1.0  T
   4   -227.1887395 -0.127336E-03  0.632E-03    0.94       1.4  T
   5   -227.1887409 -0.142208E-05  0.386E-03    0.94       2.3  T
   6   -227.1887421 -0.119918E-05  0.172E-03    0.94       5.2  T
   7   -227.1887423 -0.177682E-06  0.112E-03    0.94       7.9  T
   8   -227.1887423 -0.168168E-07  0.817E-04    0.94      10.9  T
   9   -227.1887423 -0.162450E-07  0.505E-04    0.94      17.6  T
     SCC iter.                  ...        0 min,  0.163 sec
     gradient                   ...        0 min,  0.047 sec
 * total energy  :  -223.6264234 Eh     change       -0.6404773E-03 Eh
   gradient norm :     0.0092204 Eh/α   predicted    -0.6216976E-03 (  -2.93%)
   displ. norm   :     0.6917141 α      lambda       -0.7013609E-03
   maximum displ.:     0.4440944 α      in ANC's #5, #7, #15, ...

........................................................................
.............................. CYCLE   35 ..............................
........................................................................
   1   -227.1948420 -0.227195E+03  0.106E-01    0.95       0.0  T
   2   -227.1948552 -0.131758E-04  0.596E-02    0.95       1.0  T
   3   -227.1948284  0.267709E-04  0.157E-02    0.95       1.0  T
   4   -227.1948595 -0.310917E-04  0.533E-03    0.95       1.7  T
   5   -227.1948611 -0.155834E-05  0.306E-03    0.95       2.9  T
   6   -227.1948618 -0.772329E-06  0.128E-03    0.95       6.9  T
   7   -227.1948620 -0.118691E-06  0.775E-04    0.95      11.5  T
   8   -227.1948620 -0.138681E-07  0.544E-04    0.95      16.3  T
     SCC iter.                  ...        0 min,  0.147 sec
     gradient                   ...        0 min,  0.047 sec
 * total energy  :  -223.6269521 Eh     change       -0.5287633E-03 Eh
   gradient norm :     0.0157673 Eh/α   predicted    -0.5184694E-03 (  -1.95%)
   displ. norm   :     0.7865505 α      lambda       -0.7640551E-03
   maximum displ.:     0.4999340 α      in ANC's #5, #7, #15, ...

........................................................................
.............................. CYCLE   36 ..............................
........................................................................
   1   -227.1880192 -0.227188E+03  0.104E-01    0.94       0.0  T
   2   -227.1880299 -0.107013E-04  0.593E-02    0.95       1.0  T
   3   -227.1879467  0.831941E-04  0.235E-02    0.94       1.0  T
   4   -227.1880362 -0.894476E-04  0.664E-03    0.95       1.3  T
   5   -227.1880393 -0.317502E-05  0.357E-03    0.95       2.5  T
   6   -227.1880402 -0.905064E-06  0.174E-03    0.95       5.1  T
   7   -227.1880405 -0.224390E-06  0.104E-03    0.95       8.5  T
   8   -227.1880405 -0.168654E-07  0.761E-04    0.95      11.7  T
   9   -227.1880405 -0.975123E-08  0.451E-04    0.95      19.7  T
     SCC iter.                  ...        0 min,  0.164 sec
     gradient                   ...        0 min,  0.047 sec
 * total energy  :  -223.6275365 Eh     change       -0.5843738E-03 Eh
   gradient norm :     0.0108790 Eh/α   predicted    -0.6183724E-03 (   5.82%)
   displ. norm   :     0.6509476 α      lambda       -0.6621153E-03
   maximum displ.:     0.4220912 α      in ANC's #5, #7, #1, ...

........................................................................
.............................. CYCLE   37 ..............................
........................................................................
   1   -227.1933299 -0.227193E+03  0.852E-02    0.95       0.0  T
   2   -227.1933384 -0.852041E-05  0.485E-02    0.96       1.0  T
   3   -227.1932937  0.447408E-04  0.187E-02    0.95       1.0  T
   4   -227.1933440 -0.503064E-04  0.481E-03    0.96       1.8  T
   5   -227.1933451 -0.111911E-05  0.299E-03    0.96       3.0  T
   6   -227.1933457 -0.620819E-06  0.136E-03    0.96       6.5  T
   7   -227.1933458 -0.102188E-06  0.887E-04    0.96      10.0  T
   8   -227.1933458 -0.124711E-07  0.681E-04    0.96      13.0  T
     SCC iter.                  ...        0 min,  0.146 sec
     gradient                   ...        0 min,  0.047 sec
 * total energy  :  -223.6280499 Eh     change       -0.5133805E-03 Eh
   gradient norm :     0.0110659 Eh/α   predicted    -0.4713426E-03 (  -8.19%)
   displ. norm   :     0.7243868 α      lambda       -0.6869616E-03
   maximum displ.:     0.4744256 α      in ANC's #5, #7, #1, ...

........................................................................
.............................. CYCLE   38 ..............................
........................................................................
   1   -227.1945340 -0.227195E+03  0.105E-01    0.96       0.0  T
   2   -227.1945455 -0.115240E-04  0.589E-02    0.96       1.0  T
   3   -227.1944793  0.661900E-04  0.210E-02    0.96       1.0  T
   4   -227.1945529 -0.735688E-04  0.586E-03    0.96       1.5  T
   5   -227.1945545 -0.165101E-05  0.322E-03    0.96       2.8  T
   6   -227.1945552 -0.647465E-06  0.151E-03    0.96       5.9  T
   7   -227.1945554 -0.172211E-06  0.918E-04    0.96       9.7  T
   8   -227.1945554 -0.741778E-08  0.681E-04    0.96      13.0  T
     SCC iter.                  ...        0 min,  0.145 sec
     gradient                   ...        0 min,  0.047 sec
 * total energy  :  -223.6286361 Eh     change       -0.5862728E-03 Eh
   gradient norm :     0.0073673 Eh/α   predicted    -0.5237187E-03 ( -10.67%)
   displ. norm   :     0.7768739 α      lambda       -0.6768515E-03
   maximum displ.:     0.5184440 α      in ANC's #5, #7, #1, ...

........................................................................
.............................. CYCLE   39 ..............................
........................................................................
   1   -227.1921614 -0.227192E+03  0.115E-01    0.96       0.0  T
   2   -227.1921753 -0.138943E-04  0.641E-02    0.96       1.0  T
   3   -227.1921183  0.570744E-04  0.207E-02    0.96       1.0  T
   4   -227.1921827 -0.644309E-04  0.623E-03    0.97       1.4  T
   5   -227.1921843 -0.158018E-05  0.349E-03    0.96       2.5  T
   6   -227.1921851 -0.848734E-06  0.154E-03    0.96       5.8  T
   7   -227.1921853 -0.156221E-06  0.955E-04    0.96       9.3  T
   8   -227.1921853 -0.440869E-08  0.680E-04    0.96      13.0  T
     SCC iter.                  ...        0 min,  0.145 sec
     gradient                   ...        0 min,  0.047 sec
 * total energy  :  -223.6291909 Eh     change       -0.5547316E-03 Eh
   gradient norm :     0.0114478 Eh/α   predicted    -0.5426820E-03 (  -2.17%)
   displ. norm   :     0.7572971 α      lambda       -0.6647516E-03
   maximum displ.:     0.4995295 α      in ANC's #5, #7, #1, ...

........................................................................
.............................. CYCLE   40 ..............................
........................................................................
   1   -227.2010597 -0.227201E+03  0.944E-02    0.97       0.0  T
   2   -227.2010663 -0.655277E-05  0.538E-02    0.97       1.0  T
   3   -227.2009511  0.115175E-03  0.277E-02    0.97       1.0  T
   4   -227.2010778 -0.126732E-03  0.558E-03    0.97       1.6  T
   5   -227.2010792 -0.130344E-05  0.295E-03    0.97       3.0  T
   6   -227.2010796 -0.430139E-06  0.144E-03    0.97       6.2  T
   7   -227.2010797 -0.856171E-07  0.103E-03    0.97       8.6  T
   8   -227.2010797 -0.118507E-07  0.705E-04    0.97      12.6  T
   9   -227.2010797 -0.112958E-07  0.368E-04    0.97      24.1  T
     SCC iter.                  ...        0 min,  0.166 sec
     gradient                   ...        0 min,  0.047 sec
 * total energy  :  -223.6297033 Eh     change       -0.5124067E-03 Eh
   gradient norm :     0.0094931 Eh/α   predicted    -0.5229941E-03 (   2.07%)
   displ. norm   :     0.8451852 α      lambda       -0.6879171E-03
   maximum displ.:     0.5722218 α      in ANC's #5, #7, #1, ...

........................................................................
.............................. CYCLE   41 ..............................
........................................................................
   1   -227.1882032 -0.227188E+03  0.113E-01    0.95       0.0  T
   2   -227.1882150 -0.118260E-04  0.640E-02    0.96       1.0  T
   3   -227.1881262  0.887647E-04  0.253E-02    0.94       1.0  T
   4   -227.1882234 -0.971577E-04  0.713E-03    0.96       1.2  T
   5   -227.1882261 -0.268099E-05  0.413E-03    0.95       2.1  T
   6   -227.1882271 -0.102398E-05  0.206E-03    0.95       4.3  T
   7   -227.1882273 -0.243740E-06  0.146E-03    0.95       6.1  T
   8   -227.1882273 -0.116845E-07  0.103E-03    0.95       8.6  T
   9   -227.1882274 -0.372213E-07  0.593E-04    0.95      15.0  T
  10   -227.1882274 -0.178021E-07  0.332E-04    0.95      26.7  T
     SCC iter.                  ...        0 min,  0.175 sec
     gradient                   ...        0 min,  0.047 sec
 * total energy  :  -223.6301994 Eh     change       -0.4961612E-03 Eh
   gradient norm :     0.0104177 Eh/α   predicted    -0.5896674E-03 (  18.85%)
   displ. norm   :     0.6027215 α      lambda       -0.6215685E-03
   maximum displ.:     0.4050098 α      in ANC's #5, #1, #7, ...

........................................................................
.............................. CYCLE   42 ..............................
........................................................................
   1   -227.1948406 -0.227195E+03  0.808E-02    0.95       0.0  T
   2   -227.1948529 -0.122479E-04  0.456E-02    0.95       1.0  T
   3   -227.1948213  0.316292E-04  0.167E-02    0.95       1.0  T
   4   -227.1948566 -0.353017E-04  0.558E-03    0.95       1.6  T
   5   -227.1948592 -0.266109E-05  0.283E-03    0.95       3.1  T
   6   -227.1948597 -0.455932E-06  0.124E-03    0.95       7.2  T
   7   -227.1948598 -0.112597E-06  0.688E-04    0.95      12.9  T
   8   -227.1948598 -0.637175E-08  0.504E-04    0.95      17.6  T
     SCC iter.                  ...        0 min,  0.147 sec
     gradient                   ...        0 min,  0.047 sec
 * total energy  :  -223.6306116 Eh     change       -0.4121498E-03 Eh
   gradient norm :     0.0132132 Eh/α   predicted    -0.4236877E-03 (   2.80%)
   displ. norm   :     0.7097205 α      lambda       -0.6809264E-03
   maximum displ.:     0.4815300 α      in ANC's #5, #7, #1, ...
 * RMSD in coord.:     1.1185422 α      energy gain  -0.1160396E-01 Eh

generating ANC from model Hessian ...
Using Lindh-Hessian (1995)
 Shifting diagonal of input Hessian by   9.994410249978625E-003
 Lowest  eigenvalues of input Hessian
    0.000000    0.000000    0.000000    0.000000    0.000000    0.000000
    0.010000    0.010009    0.010020    0.010070    0.010081    0.010101
    0.010188    0.010277    0.010290    0.010319    0.010378    0.010429
 Highest eigenvalues
    2.281087    2.287719    2.591784    2.604215    2.646321    2.659151
 

........................................................................
.............................. CYCLE   43 ..............................
........................................................................
   1   -227.1925613 -0.227193E+03  0.934E-02    0.96       0.0  T
   2   -227.1925755 -0.142623E-04  0.529E-02    0.96       1.0  T
   3   -227.1925498  0.257837E-04  0.150E-02    0.95       1.0  T
   4   -227.1925779 -0.281531E-04  0.607E-03    0.96       1.5  T
   5   -227.1925815 -0.355033E-05  0.303E-03    0.96       2.9  T
   6   -227.1925820 -0.538794E-06  0.151E-03    0.96       5.9  T
   7   -227.1925821 -0.953134E-07  0.105E-03    0.96       8.5  T
   8   -227.1925821 -0.238520E-07  0.725E-04    0.96      12.2  T
   9   -227.1925821 -0.218569E-08  0.487E-04    0.96      18.2  T
     SCC iter.                  ...        0 min,  0.161 sec
     gradient                   ...        0 min,  0.047 sec
 * total energy  :  -223.6310654 Eh     change       -0.4538029E-03 Eh
   gradient norm :     0.0120045 Eh/α   predicted     0.0000000E+00 (-100.00%)
   displ. norm   :     0.0951586 α      lambda       -0.2866704E-03
   maximum displ.:     0.0452674 α      in ANC's #4, #1, #21, ...

........................................................................
.............................. CYCLE   44 ..............................
........................................................................
   1   -227.1984637 -0.227198E+03  0.428E-02    0.96       0.0  T
   2   -227.1984660 -0.225178E-05  0.243E-02    0.96       1.0  T
   3   -227.1984345  0.314234E-04  0.146E-02    0.96       1.0  T
   4   -227.1984700 -0.354989E-04  0.209E-03    0.96       4.2  T
   5   -227.1984702 -0.196291E-06  0.119E-03    0.96       7.5  T
   6   -227.1984703 -0.608871E-07  0.546E-04    0.96      16.3  T
   7   -227.1984703 -0.166401E-07  0.310E-04    0.96      28.7  T
     SCC iter.                  ...        0 min,  0.127 sec
     gradient                   ...        0 min,  0.047 sec
 * total energy  :  -223.6312308 Eh     change       -0.1654022E-03 Eh
   gradient norm :     0.0046607 Eh/α   predicted    -0.1446358E-03 ( -12.56%)
   displ. norm   :     0.1852517 α      lambda       -0.3061949E-03
   maximum displ.:     0.0838735 α      in ANC's #4, #1, #5, ...

........................................................................
.............................. CYCLE   45 ..............................
........................................................................
   1   -227.2046467 -0.227205E+03  0.802E-02    0.96       0.0  T
   2   -227.2046560 -0.932322E-05  0.449E-02    0.96       1.0  T
   3   -227.2046063  0.497459E-04  0.185E-02    0.96       1.0  T
   4   -227.2046634 -0.571255E-04  0.300E-03    0.96       3.0  T
   5   -227.2046639 -0.494248E-06  0.168E-03    0.96       5.3  T
   6   -227.2046640 -0.147037E-06  0.702E-04    0.96      12.6  T
   7   -227.2046640 -0.292335E-07  0.300E-04    0.96      29.5  T
     SCC iter.                  ...        0 min,  0.127 sec
     gradient                   ...        0 min,  0.048 sec
 * total energy  :  -223.6312151 Eh     change        0.1569119E-04 Eh
   gradient norm :     0.0134941 Eh/α   predicted    -0.1583983E-03 (*******%)
   displ. norm   :     0.1061402 α      lambda       -0.3679431E-03
   maximum displ.:     0.0508853 α      in ANC's #4, #1, #21, ...

........................................................................
.............................. CYCLE   46 ..............................
........................................................................
   1   -227.2029899 -0.227203E+03  0.564E-02    0.96       0.0  T
   2   -227.2029948 -0.486332E-05  0.312E-02    0.96       1.0  T
   3   -227.2029897  0.512524E-05  0.686E-03    0.96       1.3  T
   4   -227.2029970 -0.732144E-05  0.154E-03    0.96       5.8  T
   5   -227.2029971 -0.570672E-07  0.940E-04    0.96       9.4  T
   6   -227.2029971 -0.723921E-07  0.352E-04    0.96      25.2  T
     SCC iter.                  ...        0 min,  0.109 sec
     gradient                   ...        0 min,  0.047 sec
 * total energy  :  -223.6314237 Eh     change       -0.2086279E-03 Eh
   gradient norm :     0.0064560 Eh/α   predicted    -0.1860442E-03 ( -10.82%)
   displ. norm   :     0.1688141 α      lambda       -0.2904001E-03
   maximum displ.:     0.0806825 α      in ANC's #4, #1, #5, ...

........................................................................
.............................. CYCLE   47 ..............................
........................................................................
   1   -227.1970419 -0.227197E+03  0.776E-02    0.95       0.0  T
   2   -227.1970518 -0.990484E-05  0.432E-02    0.96       1.0  T
   3   -227.1970152  0.365915E-04  0.164E-02    0.95       1.0  T
   4   -227.1970584 -0.431900E-04  0.229E-03    0.96       3.9  T
   5   -227.1970585 -0.965426E-07  0.145E-03    0.96       6.1  T
   6   -227.1970587 -0.146870E-06  0.642E-04    0.96      13.8  T
   7   -227.1970587 -0.164021E-07  0.416E-04    0.96      21.3  T
     SCC iter.                  ...        0 min,  0.127 sec
     gradient                   ...        0 min,  0.047 sec
 * total energy  :  -223.6314302 Eh     change       -0.6468277E-05 Eh
   gradient norm :     0.0122291 Eh/α   predicted    -0.1493394E-03 (2208.80%)
   displ. norm   :     0.1503737 α      lambda       -0.3419980E-03
   maximum displ.:     0.0719330 α      in ANC's #4, #1, #5, ...

........................................................................
.............................. CYCLE   48 ..............................
........................................................................
   1   -227.1985772 -0.227199E+03  0.526E-02    0.96       0.0  T
   2   -227.1985819 -0.470836E-05  0.292E-02    0.96       1.0  T
   3   -227.1985781  0.380031E-05  0.638E-03    0.96       1.4  T
   4   -227.1985838 -0.568029E-05  0.146E-03    0.96       6.1  T
   5   -227.1985838 -0.467652E-07  0.938E-04    0.96       9.5  T
   6   -227.1985839 -0.847777E-07  0.381E-04    0.96      23.3  T
     SCC iter.                  ...        0 min,  0.110 sec
     gradient                   ...        0 min,  0.047 sec
 * total energy  :  -223.6316265 Eh     change       -0.1963407E-03 Eh
   gradient norm :     0.0046191 Eh/α   predicted    -0.1748661E-03 ( -10.94%)
   displ. norm   :     0.2959898 α      lambda       -0.3802448E-03
   maximum displ.:     0.1489805 α      in ANC's #4, #1, #5, ...

........................................................................
.............................. CYCLE   49 ..............................
........................................................................
   1   -227.2001485 -0.227200E+03  0.100E-01    0.96       0.0  T
   2   -227.2001616 -0.131345E-04  0.555E-02    0.96       1.0  T
   3   -227.2001406  0.209919E-04  0.127E-02    0.96       1.0  T
   4   -227.2001683 -0.276913E-04  0.240E-03    0.96       3.7  T
   5   -227.2001684 -0.107932E-06  0.134E-03    0.96       6.6  T
   6   -227.2001685 -0.116346E-06  0.597E-04    0.96      14.9  T
   7   -227.2001686 -0.340580E-07  0.262E-04    0.96      33.8  T
     SCC iter.                  ...        0 min,  0.131 sec
     gradient                   ...        0 min,  0.047 sec
 * total energy  :  -223.6316790 Eh     change       -0.5246060E-04 Eh
   gradient norm :     0.0100474 Eh/α   predicted    -0.2067825E-03 ( 294.17%)
   displ. norm   :     0.2275105 α      lambda       -0.3742749E-03
   maximum displ.:     0.1149665 α      in ANC's #4, #1, #5, ...

........................................................................
.............................. CYCLE   50 ..............................
........................................................................
   1   -227.1994739 -0.227199E+03  0.699E-02    0.96       0.0  T
   2   -227.1994807 -0.681148E-05  0.387E-02    0.96       1.0  T
   3   -227.1994711  0.962617E-05  0.881E-03    0.96       1.0  T
   4   -227.1994840 -0.129110E-04  0.183E-03    0.96       4.9  T
   5   -227.1994841 -0.905088E-07  0.110E-03    0.96       8.1  T
   6   -227.1994842 -0.122253E-06  0.317E-04    0.96      28.0  T
   7   -227.1994842 -0.850483E-08  0.153E-04    0.96      57.9  T
     SCC iter.                  ...        0 min,  0.125 sec
     gradient                   ...        0 min,  0.047 sec
 * total energy  :  -223.6319205 Eh     change       -0.2415341E-03 Eh
   gradient norm :     0.0045547 Eh/α   predicted    -0.1968275E-03 ( -18.51%)
   displ. norm   :     0.4003930 α      lambda       -0.4569024E-03
   maximum displ.:     0.2084214 α      in ANC's #4, #1, #5, ...

........................................................................
.............................. CYCLE   51 ..............................
........................................................................
   1   -227.1985536 -0.227199E+03  0.930E-02    0.96       0.0  T
   2   -227.1985647 -0.111083E-04  0.520E-02    0.96       1.0  T
   3   -227.1985605  0.419965E-05  0.781E-03    0.96       1.1  T
   4   -227.1985690 -0.851933E-05  0.264E-03    0.96       3.4  T
   5   -227.1985693 -0.263584E-06  0.139E-03    0.96       6.4  T
   6   -227.1985694 -0.181736E-06  0.519E-04    0.96      17.1  T
   7   -227.1985695 -0.207997E-07  0.254E-04    0.96      35.0  T
     SCC iter.                  ...        0 min,  0.117 sec
     gradient                   ...        0 min,  0.047 sec
 * total energy  :  -223.6320216 Eh     change       -0.1010147E-03 Eh
   gradient norm :     0.0082918 Eh/α   predicted    -0.2650798E-03 ( 162.42%)
   displ. norm   :     0.3042644 α      lambda       -0.4079822E-03
   maximum displ.:     0.1587290 α      in ANC's #4, #1, #5, ...

........................................................................
.............................. CYCLE   52 ..............................
........................................................................
   1   -227.1979361 -0.227198E+03  0.715E-02    0.96       0.0  T
   2   -227.1979436 -0.749703E-05  0.397E-02    0.96       1.0  T
   3   -227.1979356  0.801238E-05  0.800E-03    0.96       1.1  T
   4   -227.1979469 -0.113561E-04  0.198E-03    0.96       4.5  T
   5   -227.1979471 -0.129533E-06  0.114E-03    0.96       7.8  T
   6   -227.1979472 -0.122044E-06  0.395E-04    0.96      22.5  T
   7   -227.1979472 -0.136126E-07  0.206E-04    0.96      43.2  T
     SCC iter.                  ...        0 min,  0.125 sec
     gradient                   ...        0 min,  0.047 sec
 * total energy  :  -223.6323279 Eh     change       -0.3063163E-03 Eh
   gradient norm :     0.0056064 Eh/α   predicted    -0.2228772E-03 ( -27.24%)
   displ. norm   :     0.5009454 α      lambda       -0.3671637E-03
   maximum displ.:     0.2684887 α      in ANC's #4, #1, #5, ...

........................................................................
.............................. CYCLE   53 ..............................
........................................................................
   1   -227.1980918 -0.227198E+03  0.727E-02    0.96       0.0  T
   2   -227.1980982 -0.635283E-05  0.407E-02    0.96       1.0  T
   3   -227.1980826  0.156062E-04  0.105E-02    0.96       1.0  T
   4   -227.1981015 -0.189808E-04  0.251E-03    0.96       3.5  T
   5   -227.1981017 -0.202128E-06  0.142E-03    0.96       6.2  T
   6   -227.1981019 -0.157495E-06  0.526E-04    0.96      16.9  T
   7   -227.1981019 -0.236732E-07  0.283E-04    0.96      31.3  T
     SCC iter.                  ...        0 min,  0.124 sec
     gradient                   ...        0 min,  0.047 sec
 * total energy  :  -223.6326348 Eh     change       -0.3068944E-03 Eh
   gradient norm :     0.0050161 Eh/α   predicted    -0.2296530E-03 ( -25.17%)
   displ. norm   :     0.6343558 α      lambda       -0.3965336E-03
   maximum displ.:     0.3437537 α      in ANC's #4, #1, #5, ...

........................................................................
.............................. CYCLE   54 ..............................
........................................................................
   1   -227.1988246 -0.227199E+03  0.715E-02    0.96       0.0  T
   2   -227.1988298 -0.518972E-05  0.406E-02    0.96       1.0  T
   3   -227.1988091  0.206707E-04  0.119E-02    0.96       1.0  T
   4   -227.1988328 -0.236608E-04  0.300E-03    0.96       3.0  T
   5   -227.1988332 -0.435604E-06  0.166E-03    0.96       5.3  T
   6   -227.1988334 -0.199701E-06  0.617E-04    0.96      14.4  T
   7   -227.1988334 -0.327522E-07  0.325E-04    0.96      27.3  T
     SCC iter.                  ...        0 min,  0.126 sec
     gradient                   ...        0 min,  0.047 sec
 * total energy  :  -223.6329988 Eh     change       -0.3639976E-03 Eh
   gradient norm :     0.0049947 Eh/α   predicted    -0.2780534E-03 ( -23.61%)
   displ. norm   :     0.7309198 α      lambda       -0.4808756E-03
   maximum displ.:     0.3996059 α      in ANC's #4, #1, #5, ...

........................................................................
.............................. CYCLE   55 ..............................
........................................................................
   1   -227.1994237 -0.227199E+03  0.774E-02    0.96       0.0  T
   2   -227.1994297 -0.600650E-05  0.442E-02    0.96       1.0  T
   3   -227.1994077  0.219849E-04  0.126E-02    0.96       1.0  T
   4   -227.1994328 -0.250306E-04  0.348E-03    0.96       2.6  T
   5   -227.1994334 -0.666773E-06  0.195E-03    0.96       4.6  T
   6   -227.1994337 -0.296263E-06  0.709E-04    0.96      12.5  T
   7   -227.1994338 -0.445037E-07  0.361E-04    0.96      24.6  T
     SCC iter.                  ...        0 min,  0.125 sec
     gradient                   ...        0 min,  0.047 sec
 * total energy  :  -223.6334468 Eh     change       -0.4480142E-03 Eh
   gradient norm :     0.0045094 Eh/α   predicted    -0.3688979E-03 ( -17.66%)
   displ. norm   :     0.7955588 α      lambda       -0.5237143E-03
   maximum displ.:     0.4404562 α      in ANC's #4, #1, #5, ...

........................................................................
.............................. CYCLE   56 ..............................
........................................................................
   1   -227.1984531 -0.227198E+03  0.846E-02    0.96       0.0  T
   2   -227.1984605 -0.732374E-05  0.483E-02    0.95       1.0  T
   3   -227.1984408  0.196196E-04  0.123E-02    0.96       1.0  T
   4   -227.1984638 -0.229345E-04  0.365E-03    0.96       2.4  T
   5   -227.1984644 -0.594620E-06  0.212E-03    0.96       4.2  T
   6   -227.1984648 -0.390948E-06  0.774E-04    0.96      11.5  T
   7   -227.1984648 -0.543895E-07  0.417E-04    0.96      21.3  T
     SCC iter.                  ...        0 min,  0.125 sec
     gradient                   ...        0 min,  0.047 sec
 * total energy  :  -223.6339308 Eh     change       -0.4840032E-03 Eh
   gradient norm :     0.0046635 Eh/α   predicted    -0.4275912E-03 ( -11.66%)
   displ. norm   :     0.8083518 α      lambda       -0.5106315E-03
   maximum displ.:     0.4541585 α      in ANC's #4, #1, #5, ...

........................................................................
.............................. CYCLE   57 ..............................
........................................................................
   1   -227.1985195 -0.227199E+03  0.797E-02    0.96       0.0  T
   2   -227.1985250 -0.552365E-05  0.457E-02    0.95       1.0  T
   3   -227.1985032  0.218485E-04  0.124E-02    0.96       1.0  T
   4   -227.1985277 -0.244537E-04  0.363E-03    0.95       2.4  T
   5   -227.1985284 -0.705508E-06  0.203E-03    0.96       4.4  T
   6   -227.1985287 -0.354311E-06  0.747E-04    0.95      11.9  T
   7   -227.1985288 -0.455964E-07  0.433E-04    0.95      20.5  T
     SCC iter.                  ...        0 min,  0.127 sec
[...]
    19   6 C    3.982 --    20 C    1.924    18 C    1.004    92 H    0.971
    20   6 C    3.982 --    19 C    1.924    21 C    1.004    93 H    0.971
    21   6 C    3.989 --    20 C    1.004    22 C    0.989    94 H    0.971
                            23 C    0.951
    22   6 C    3.994 --    21 C    0.989    18 C    0.989    95 H    0.978
                            96 H    0.974
    23   6 C    3.984 --     7 C    0.992    17 C    0.975    97 H    0.962
                            21 C    0.951
    24   6 C    3.929 --    25 C    1.327     1 C    1.305    66 S    1.085
    25   6 C    3.956 --    34 C    1.349    24 C    1.327    26 C    1.018
    26   6 C    3.985 --    27 C    1.394    31 C    1.368    25 C    1.018
                            29 C    0.105
    27   6 C    3.988 --    28 C    1.446    26 C    1.394    98 H    0.970
                            30 C    0.109
    28   6 C    3.990 --    27 C    1.446    29 C    1.432    99 H    0.970
                            31 C    0.107
    29   6 C    3.989 --    30 C    1.446    28 C    1.432   100 H    0.971
                            26 C    0.105
    30   6 C    3.990 --    29 C    1.446    31 C    1.412   101 H    0.967
                            27 C    0.109
    31   6 C    3.985 --    30 C    1.412    26 C    1.368    32 C    1.013
                            28 C    0.107
    32   6 C    3.997 --    31 C    1.013    33 C    1.000   103 H    0.973
                           102 H    0.971
    33   6 C    3.996 --    32 C    1.000   104 H    0.988   105 H    0.987
                           106 H    0.986
    34   6 C    3.927 --    25 C    1.349    65 C    1.291    35 S    1.081
    35  16 S    2.505 --    36 C    1.117    34 C    1.081
    36   6 C    3.915 --    64 C    1.305    37 C    1.270    35 S    1.117
    37   6 C    3.954 --    62 C    1.272    36 C    1.270    38 C    1.170
    38   6 C    3.972 --    42 N    1.432    37 C    1.170    39 C    1.162
                            41 S    0.102
    39   6 C    3.972 --    40 N    1.432    43 C    1.170    38 C    1.162
                            41 S    0.102
    40   7 N    3.075 --    39 C    1.432    41 S    1.390    42 N    0.147
    41  16 S    3.101 --    42 N    1.391    40 N    1.390    39 C    0.102
                            38 C    0.102
    42   7 N    3.076 --    38 C    1.432    41 S    1.391    40 N    0.147
    43   6 C    3.954 --    44 C    1.272    61 C    1.270    39 C    1.170
    44   6 C    3.915 --    59 C    1.300    43 C    1.272    45 S    1.118
    45  16 S    2.507 --    44 C    1.118    46 C    1.081
    46   6 C    3.928 --    47 C    1.360    58 C    1.281    45 S    1.081
    47   6 C    3.954 --    46 C    1.360    56 C    1.315    48 C    1.017
    48   6 C    3.985 --    55 C    1.394    49 C    1.369    47 C    1.017
                            53 C    0.106
    49   6 C    3.985 --    52 C    1.413    48 C    1.369    50 C    1.013
                            54 C    0.107
    50   6 C    3.997 --    49 C    1.013    51 C    1.000   108 H    0.974
                           107 H    0.971
    51   6 C    3.996 --    50 C    1.000   110 H    0.988   111 H    0.987
                           109 H    0.986
    52   6 C    3.990 --    53 C    1.446    49 C    1.413   112 H    0.967
                            55 C    0.109
    53   6 C    3.989 --    52 C    1.446    54 C    1.432   113 H    0.970
                            48 C    0.106
    54   6 C    3.990 --    55 C    1.445    53 C    1.432   114 H    0.970
                            49 C    0.107
    55   6 C    3.988 --    54 C    1.445    48 C    1.394   115 H    0.970
                            52 C    0.109
    56   6 C    3.931 --    71 C    1.321    47 C    1.315    57 S    1.080
    57  16 S    2.709 --    58 C    1.154    56 C    1.080    74 O    0.122
    58   6 C    3.941 --    46 C    1.281    59 C    1.266    57 S    1.154
    59   6 C    3.936 --    44 C    1.300    58 C    1.266    60 N    1.143
    60   7 N    3.533 --    61 C    1.167    59 C    1.143    69 C    0.976
    61   6 C    3.929 --    43 C    1.270    62 C    1.232    60 N    1.167
    62   6 C    3.930 --    37 C    1.272    61 C    1.232    63 N    1.164
    63   7 N    3.533 --    62 C    1.164    64 C    1.145    67 C    0.976
    64   6 C    3.935 --    36 C    1.305    65 C    1.258    63 N    1.145
    65   6 C    3.942 --    34 C    1.291    64 C    1.258    66 S    1.152
    66  16 S    2.729 --    65 C    1.152    24 C    1.085     4 O    0.139
    67   6 C    3.964 --    68 C    1.005    63 N    0.976   117 H    0.968
                           116 H    0.967
    68   6 C    3.988 --    67 C    1.005   120 H    0.987   118 H    0.983
                           119 H    0.982
    69   6 C    3.964 --    70 C    1.005    60 N    0.976   121 H    0.968
                           122 H    0.967
    70   6 C    3.988 --    69 C    1.005   123 H    0.987   125 H    0.983
                           124 H    0.982
    71   6 C    3.942 --    72 C    1.481    56 C    1.321   126 H    0.935
    72   6 C    3.945 --    71 C    1.481    81 C    1.140    73 C    1.054
    73   6 C    3.923 --    74 O    1.692    75 C    1.059    72 C    1.054
    74   8 O    2.108 --    73 C    1.692    57 S    0.122
    75   6 C    3.922 --    80 C    1.398    76 S    1.187    73 C    1.059
    76  16 S    2.679 --    75 C    1.187    77 C    1.175
    77   6 C    3.895 --    79 C    1.541    76 S    1.175    78 Br   1.035
    78  35 Br   1.184 --    77 C    1.035
    79   6 C    3.976 --    77 C    1.541    80 C    1.278   127 H    0.955
    80   6 C    3.972 --    75 C    1.398    79 C    1.278    81 C    1.084
    81   6 C    3.968 --    82 C    1.479    72 C    1.140    80 C    1.084
    82   6 C    3.954 --    81 C    1.479    83 C    1.101    85 C    1.095
    83   6 C    3.946 --    84 N    2.756    82 C    1.101
    84   7 N    2.963 --    83 C    2.756
    85   6 C    3.946 --    86 N    2.772    82 C    1.095
    86   7 N    2.969 --    85 C    2.772
    87   1 H    0.995 --     1 C    0.936
    88   1 H    0.996 --     6 C    0.964
    89   1 H    0.996 --     9 C    0.958
    90   1 H    0.997 --    17 C    0.962
    91   1 H    0.998 --    18 C    0.971
    92   1 H    0.998 --    19 C    0.971
    93   1 H    0.999 --    20 C    0.971
    94   1 H    0.999 --    21 C    0.971
    95   1 H    0.998 --    22 C    0.978
    96   1 H    0.999 --    22 C    0.974
    97   1 H    0.997 --    23 C    0.962
    98   1 H    0.999 --    27 C    0.970
    99   1 H    0.997 --    28 C    0.970
   100   1 H    0.998 --    29 C    0.971
   101   1 H    0.996 --    30 C    0.967
   102   1 H    0.999 --    32 C    0.971
   103   1 H    0.997 --    32 C    0.973
   104   1 H    0.998 --    33 C    0.988
   105   1 H    0.999 --    33 C    0.987
   106   1 H    0.998 --    33 C    0.986
   107   1 H    0.999 --    50 C    0.971
   108   1 H    0.998 --    50 C    0.974
   109   1 H    0.998 --    51 C    0.986
   110   1 H    0.998 --    51 C    0.988
   111   1 H    0.999 --    51 C    0.987
   112   1 H    0.997 --    52 C    0.967
   113   1 H    0.998 --    53 C    0.970
   114   1 H    0.997 --    54 C    0.970
   115   1 H    0.999 --    55 C    0.970
   116   1 H    0.996 --    67 C    0.967
   117   1 H    0.994 --    67 C    0.968
   118   1 H    0.997 --    68 C    0.983
   119   1 H    0.996 --    68 C    0.982
   120   1 H    0.998 --    68 C    0.987
   121   1 H    0.994 --    69 C    0.968
   122   1 H    0.995 --    69 C    0.967
   123   1 H    0.998 --    70 C    0.987
   124   1 H    0.996 --    70 C    0.982
   125   1 H    0.997 --    70 C    0.983
   126   1 H    0.994 --    71 C    0.935
   127   1 H    0.993 --    79 C    0.955
 ---------------------------------------------------------------------------

Topologies differ in bond orders
Writing corrected topology to xtbtopo.mol

molecular dipole:
                 x           y           z       tot (Debye)
 q only:        0.278      -0.296      -1.089
   full:        0.704      -0.081      -1.390       3.965
molecular quadrupole (traceless):
                xx          xy          yy          xz          yz          zz
 q only:       38.562     -45.467     -32.386     -58.993     -88.743      -6.177
  q+dip:       36.072     -66.107     -30.252     -56.426     -96.576      -5.820
   full:       34.104     -72.407     -24.922     -53.453    -104.442      -9.182

           -------------------------------------------------
          |                Geometry Summary                 |
           -------------------------------------------------

      molecular mass/u    :     1286.4110356
   center of mass at/Å    :        0.0984703       0.8878911       0.9923959
  moments of inertia/u·Å² :        0.2347137E+05   0.7655878E+05   0.9799624E+05
rotational constants/cm⁻¹ :        0.7182212E-03   0.2201920E-03   0.1720233E-03

 * 123 selected distances

     #   Z          #   Z                                           value/Å
     1   6 C        2   6 C                                       1.3706686
     3   6 C        4   8 O                                       1.2203764
     5   6 C        6   6 C                                       1.3933200
     6   6 C        7   6 C                                       1.3741788
     7   6 C        8   6 C                                       1.4011188
     8   6 C        9   6 C                                       1.3749000
     5   6 C       10   6 C                                       1.4098285
     9   6 C       10   6 C                                       1.3979757
    11   6 C       12   6 C                                       1.3712861
    13   6 C       14   7 N                                       1.1481648
    15   6 C       16   7 N                                       1.1490363
     8   6 C       17   6 C                                       1.5084537
    17   6 C       18   6 C                                       1.5432602
    19   6 C       20   6 C                                       1.3268747
    18   6 C       22   6 C                                       1.5342041
    21   6 C       22   6 C                                       1.5341652
     7   6 C       23   6 C                                       1.5085841
    17   6 C       23   6 C                                       1.5625038
    21   6 C       23   6 C                                       1.5436778
     1   6 C       24   6 C                                       1.4010626
    24   6 C       25   6 C                                       1.4047781
    26   6 C       27   6 C                                       1.3912010
    27   6 C       28   6 C                                       1.3813350
    28   6 C       29   6 C                                       1.3843302
    29   6 C       30   6 C                                       1.3822178
    26   6 C       31   6 C                                       1.3967558
    30   6 C       31   6 C                                       1.3881560
    32   6 C       33   6 C                                       1.5303351
    25   6 C       34   6 C                                       1.3889503
    34   6 C       35  16 S                                       1.7528096
    35  16 S       36   6 C                                       1.7313216
    36   6 C       37   6 C                                       1.4044163
    37   6 C       38   6 C                                       1.4147147
    38   6 C       39   6 C                                       1.4399350
    39   6 C       40   7 N                                       1.3229626
    40   7 N       41  16 S                                       1.6185469
    38   6 C       42   7 N                                       1.3229769
    41  16 S       42   7 N                                       1.6181473
    39   6 C       43   6 C                                       1.4147121
    43   6 C       44   6 C                                       1.4039046
    44   6 C       45  16 S                                       1.7308700
    45  16 S       46   6 C                                       1.7529168
    46   6 C       47   6 C                                       1.3870990
    48   6 C       49   6 C                                       1.3961628
    50   6 C       51   6 C                                       1.5304817
    49   6 C       52   6 C                                       1.3880908
    52   6 C       53   6 C                                       1.3821335
    53   6 C       54   6 C                                       1.3840766
    48   6 C       55   6 C                                       1.3911791
    54   6 C       55   6 C                                       1.3812846
    47   6 C       56   6 C                                       1.4069813
    46   6 C       58   6 C                                       1.4076809
    57  16 S       58   6 C                                       1.7235739
    44   6 C       59   6 C                                       1.4038708
    58   6 C       59   6 C                                       1.3951384
    59   6 C       60   7 N                                       1.3733657
    43   6 C       61   6 C                                       1.4216027
    60   7 N       61   6 C                                       1.3799972
    37   6 C       62   6 C                                       1.4213012
    61   6 C       62   6 C                                       1.4105651
    62   6 C       63   7 N                                       1.3806148
    36   6 C       64   6 C                                       1.4030218
    63   7 N       64   6 C                                       1.3727821
    34   6 C       65   6 C                                       1.4055915
    64   6 C       65   6 C                                       1.3968432
    65   6 C       66  16 S                                       1.7251043
    63   7 N       67   6 C                                       1.4501769
    67   6 C       68   6 C                                       1.5283065
    60   7 N       69   6 C                                       1.4501681
    69   6 C       70   6 C                                       1.5282209
    56   6 C       71   6 C                                       1.3976844
    71   6 C       72   6 C                                       1.3729212
    73   6 C       74   8 O                                       1.2182348
    75   6 C       76  16 S                                       1.7099485
    76  16 S       77   6 C                                       1.7398227
    77   6 C       78  35 Br                                      1.8730400 (max)
    77   6 C       79   6 C                                       1.3680494
    75   6 C       80   6 C                                       1.3872529
    79   6 C       80   6 C                                       1.4057803
    81   6 C       82   6 C                                       1.3707429
    83   6 C       84   7 N                                       1.1486868
    85   6 C       86   7 N                                       1.1474508
     1   6 C       87   1 H                                       1.0843159
     6   6 C       88   1 H                                       1.0788085
     9   6 C       89   1 H                                       1.0769781
    17   6 C       90   1 H                                       1.0882249
    18   6 C       91   1 H                                       1.0865069
    19   6 C       92   1 H                                       1.0741416 (min)
    20   6 C       93   1 H                                       1.0742298
    21   6 C       94   1 H                                       1.0867566
    22   6 C       95   1 H                                       1.0887442
    22   6 C       96   1 H                                       1.0884805
    23   6 C       97   1 H                                       1.0884229
    27   6 C       98   1 H                                       1.0807049
    28   6 C       99   1 H                                       1.0796861
    29   6 C      100   1 H                                       1.0795768
    30   6 C      101   1 H                                       1.0794349
    32   6 C      102   1 H                                       1.0912342
    32   6 C      103   1 H                                       1.0908462
    33   6 C      104   1 H                                       1.0874263
    33   6 C      105   1 H                                       1.0879809
    33   6 C      106   1 H                                       1.0876199
    50   6 C      107   1 H                                       1.0915518
    50   6 C      108   1 H                                       1.0913069
    51   6 C      109   1 H                                       1.0875491
    51   6 C      110   1 H                                       1.0874236
    51   6 C      111   1 H                                       1.0877418
    52   6 C      112   1 H                                       1.0797076
    53   6 C      113   1 H                                       1.0793386
    54   6 C      114   1 H                                       1.0795655
    55   6 C      115   1 H                                       1.0806604
    67   6 C      116   1 H                                       1.0880731
    67   6 C      117   1 H                                       1.0942658
    68   6 C      118   1 H                                       1.0859370
    68   6 C      119   1 H                                       1.0862281
    68   6 C      120   1 H                                       1.0881284
    69   6 C      121   1 H                                       1.0943846
    69   6 C      122   1 H                                       1.0881855
    70   6 C      123   1 H                                       1.0881088
    70   6 C      124   1 H                                       1.0862166
    70   6 C      125   1 H                                       1.0859330
    71   6 C      126   1 H                                       1.0844999
    79   6 C      127   1 H                                       1.0742218

 * 7 distinct bonds (by element types)

   Z      Z             #   av. dist./Å        max./Å        min./Å
   1 H    6 C          41     1.0851012     1.0943846     1.0741416
   6 C    6 C          57     1.4202433     1.5625038     1.3268747
   6 C    7 N          12     1.3038652     1.4501769     1.1474508
   6 C    8 O           2     1.2193056     1.2203764     1.2182348
   6 C   16 S           8     1.7332959     1.7529168     1.7099485
   7 N   16 S           2     1.6183471     1.6185469     1.6181473
   6 C   35 Br          1     1.8730400     1.8730400     1.8730400


optimized geometry written to: xtbopt.mol


           -------------------------------------------------
          | TOTAL ENERGY             -223.645743842620 Eh   |
          | GRADIENT NORM               0.000607762995 Eh/α |
          | HOMO-LUMO GAP               0.940518157625 eV   |
           -------------------------------------------------

------------------------------------------------------------------------
 * finished run on 2022/02/10 at 19:42:21.084     
------------------------------------------------------------------------
 total:
 * wall-time:     0 d,  0 h,  0 min, 32.739 sec
 *  cpu-time:     0 d,  0 h,  4 min, 21.726 sec
 * ratio c/w:     7.994 speedup
 SCF:
 * wall-time:     0 d,  0 h,  0 min,  0.356 sec
 *  cpu-time:     0 d,  0 h,  0 min,  2.843 sec
 * ratio c/w:     7.979 speedup
 ANC optimizer:
 * wall-time:     0 d,  0 h,  0 min, 32.238 sec
 *  cpu-time:     0 d,  0 h,  4 min, 17.878 sec
 * ratio c/w:     7.999 speedup

