      -----------------------------------------------------------      
     |                   =====================                   |     
     |                           x T B                           |     
     |                   =====================                   |     
     |                         S. Grimme                         |     
     |          Mulliken Center for Theoretical Chemistry        |     
     |                    University of Bonn                     |     
      -----------------------------------------------------------      

   * xtb version 6.4.1 (unknown) compiled by 'oda6@login1.crc.pitt.edu' on 2021-06-25

   xtb is free software: you can redistribute it and/or modify it under
   the terms of the GNU Lesser General Public License as published by
   the Free Software Foundation, either version 3 of the License, or
   (at your option) any later version.
   
   xtb is distributed in the hope that it will be useful,
   but WITHOUT ANY WARRANTY; without even the implied warranty of
   MERCHANTABILITY or FITNESS FOR A PARTICULAR PURPOSE.  See the
   GNU Lesser General Public License for more details.
   
   Cite this work as:
   * C. Bannwarth, E. Caldeweyher, S. Ehlert, A. Hansen, P. Pracht,
     J. Seibert, S. Spicher, S. Grimme, WIREs Comput. Mol. Sci., 2020, 11,
     e01493. DOI: 10.1002/wcms.1493
   
   for GFN2-xTB:
   * C. Bannwarth, S. Ehlert and S. Grimme., J. Chem. Theory Comput., 2019,
     15, 1652-1671. DOI: 10.1021/acs.jctc.8b01176
   for GFN1-xTB:
   * S. Grimme, C. Bannwarth, P. Shushkov, J. Chem. Theory Comput., 2017,
     13, 1989-2009. DOI: 10.1021/acs.jctc.7b00118
   for GFN0-xTB:
   * P. Pracht, E. Caldeweyher, S. Ehlert, S. Grimme, ChemRxiv, 2019, preprint.
     DOI: 10.26434/chemrxiv.8326202.v1
   for GFN-FF:
   * S. Spicher and S. Grimme, Angew. Chem. Int. Ed., 2020, 59, 15665-15673.
     DOI: 10.1002/anie.202004239
   
   for DFT-D4:
   * E. Caldeweyher, C. Bannwarth and S. Grimme, J. Chem. Phys., 2017,
     147, 034112. DOI: 10.1063/1.4993215
   * E. Caldeweyher, S. Ehlert, A. Hansen, H. Neugebauer, S. Spicher,
     C. Bannwarth and S. Grimme, J. Chem. Phys., 2019, 150, 154122.
     DOI: 10.1063/1.5090222
   * E. Caldeweyher, J.-M. Mewes, S. Ehlert and S. Grimme, Phys. Chem. Chem. Phys.
     2020, 22, 8499-8512. DOI: 10.1039/D0CP00502A
   
   for sTDA-xTB:
   * S. Grimme and C. Bannwarth, J. Chem. Phys., 2016, 145, 054103.
     DOI: 10.1063/1.4959605
   
   in the mass-spec context:
   * V. Asgeirsson, C. Bauer and S. Grimme, Chem. Sci., 2017, 8, 4879.
     DOI: 10.1039/c7sc00601b
   * J. Koopman and S. Grimme, ACS Omega 2019, 4, 12, 15120-15133.
     DOI: 10.1021/acsomega.9b02011
   
   for metadynamics refer to:
   * S. Grimme, J. Chem. Theory Comput., 2019, 155, 2847-2862
     DOI: 10.1021/acs.jctc.9b00143
   
   for SPH calculations refer to:
   * S. Spicher and S. Grimme, J. Chem. Theory Comput., 2021, 17, 1701-1714
     DOI: 10.1021/acs.jctc.0c01306
   
   with help from (in alphabetical order)
   P. Atkinson, C. Bannwarth, F. Bohle, G. Brandenburg, E. Caldeweyher
   M. Checinski, S. Dohm, S. Ehlert, S. Ehrlich, I. Gerasimov, J. Koopman
   C. Lavigne, S. Lehtola, F. März, M. Müller, F. Musil, H. Neugebauer
   J. Pisarek, C. Plett, P. Pracht, J. Seibert, P. Shushkov, S. Spicher
   M. Stahn, M. Steiner, T. Strunk, J. Stückrath, T. Rose, and J. Unsleber
   
 * started run on 2022/02/11 at 02:39:40.271     

           -------------------------------------------------
          |                Calculation Setup                |
           -------------------------------------------------

          program call               : /ihome/ghutchison/oda6/xtb/xtb-641/bin/xtb ../../FF_optimized/39_113_53.mol -opt
          hostname                   : smp-n28
          coordinate file            : ../../FF_optimized/39_113_53.mol
          omp threads                :                     8
          number of atoms            :                   131
          number of electrons        :                   392
          charge                     :                     0
          spin                       :                   0.0
          first test random number   :      0.00102288699101

   ID    Z sym.   atoms
    1    6 C      1-3, 5-13, 15, 17-29, 31-37, 40, 41, 43-45, 47, 48, 50-53,
                  55-64, 66-68, 70, 73-80
    2    8 O      4, 81
    3    7 N      14, 16, 30, 38, 39, 42, 46, 49, 54, 69, 71, 72
    4   16 S      65
    5    1 H      82-131
########################################################################
[WARNING] Please study the warnings concerning your input carefully
-1- prog_main_parseArguments: the use of '-opt' is discouraged, please use '--opt' next time
########################################################################

           -------------------------------------------------
          |                 G F N 2 - x T B                 |
           -------------------------------------------------

        Reference                      10.1021/acs.jctc.8b01176
      * Hamiltonian:
        H0-scaling (s, p, d)           1.850000    2.230000    2.230000
        zeta-weighting                 0.500000
      * Dispersion:
        s8                             2.700000
        a1                             0.520000
        a2                             5.000000
        s9                             5.000000
      * Repulsion:
        kExp                           1.500000    1.000000
        rExp                           1.000000
      * Coulomb:
        alpha                          2.000000
        third order                    shell-resolved
        anisotropic                    true
        a3                             3.000000
        a5                             4.000000
        cn-shift                       1.200000
        cn-exp                         4.000000
        max-rad                        5.000000


          ...................................................
          :                      SETUP                      :
          :.................................................:
          :  # basis functions                 380          :
          :  # atomic orbitals                 379          :
          :  # shells                          213          :
          :  # electrons                       392          :
          :  max. iterations                   250          :
          :  Hamiltonian                  GFN2-xTB          :
          :  restarted?                      false          :
          :  GBSA solvation                  false          :
          :  PC potential                    false          :
          :  electronic temp.          300.0000000     K    :
          :  accuracy                    1.0000000          :
          :  -> integral cutoff          0.2500000E+02      :
          :  -> integral neglect         0.1000000E-07      :
          :  -> SCF convergence          0.1000000E-05 Eh   :
          :  -> wf. convergence          0.1000000E-03 e    :
          :  Broyden damping             0.4000000          :
          ...................................................

 iter      E             dE          RMSdq      gap      omega  full diag
   1   -216.0264964 -0.216026E+03  0.451E+00    1.07       0.0  T
   2   -216.3231283 -0.296632E+00  0.293E+00    0.59       1.0  T
   3   -216.2924394  0.306888E-01  0.183E+00    0.70       1.0  T
   4   -216.4588456 -0.166406E+00  0.795E-01    0.76       1.0  T
   5   -216.5300681 -0.712225E-01  0.210E-01    0.41       1.0  T
   6   -216.5341627 -0.409463E-02  0.110E-01    0.57       1.0  T
   7   -216.5349842 -0.821484E-03  0.400E-02    0.54       1.0  T
   8   -216.5351054 -0.121184E-03  0.178E-02    0.55       1.0  T
   9   -216.5351126 -0.720604E-05  0.936E-03    0.55       1.0  T
  10   -216.5351175 -0.486390E-05  0.451E-03    0.55       1.9  T
  11   -216.5351183 -0.807330E-06  0.222E-03    0.55       3.9  T
  12   -216.5351185 -0.245255E-06  0.131E-03    0.55       6.7  T
  13   -216.5351186 -0.735077E-07  0.646E-04    0.55      13.5  T
  14   -216.5351186 -0.142731E-07  0.301E-04    0.55      29.0  T

   *** convergence criteria satisfied after 14 iterations ***

         #    Occupation            Energy/Eh            Energy/eV
      -------------------------------------------------------------
         1        2.0000           -0.7677228             -20.8908
       ...           ...                  ...                  ...
       190        2.0000           -0.3940553             -10.7228
       191        2.0000           -0.3925706             -10.6824
       192        2.0000           -0.3891505             -10.5893
       193        2.0000           -0.3756956             -10.2232
       194        2.0000           -0.3650672              -9.9340
       195        2.0000           -0.3515635              -9.5665
       196        1.9999           -0.3458855              -9.4120 (HOMO)
       197        0.0001           -0.3258259              -8.8662 (LUMO)
       198                         -0.3133747              -8.5274
       199                         -0.3123160              -8.4986
       200                         -0.2700665              -7.3489
       201                         -0.2613309              -7.1112
       ...                                ...                  ...
       379                          1.0908762              29.6843
      -------------------------------------------------------------
                  HL-Gap            0.0200596 Eh            0.5458 eV
             Fermi-level           -0.3358545 Eh           -9.1391 eV

 SCC (total)                   0 d,  0 h,  0 min,  0.309 sec
 SCC setup                      ...        0 min,  0.001 sec (  0.256%)
 Dispersion                     ...        0 min,  0.005 sec (  1.576%)
 classical contributions        ...        0 min,  0.000 sec (  0.057%)
 integral evaluation            ...        0 min,  0.015 sec (  4.830%)
 iterations                     ...        0 min,  0.237 sec ( 76.817%)
 molecular gradient             ...        0 min,  0.050 sec ( 16.065%)
 printout                       ...        0 min,  0.001 sec (  0.375%)

         :::::::::::::::::::::::::::::::::::::::::::::::::::::
         ::                     SUMMARY                     ::
         :::::::::::::::::::::::::::::::::::::::::::::::::::::
         :: total energy            -213.099817542295 Eh    ::
         :: gradient norm              0.299963412163 Eh/a0 ::
         :: HOMO-LUMO gap              0.545849400425 eV    ::
         ::.................................................::
         :: SCC energy              -216.535118609726 Eh    ::
         :: -> isotropic ES            0.129522219691 Eh    ::
         :: -> anisotropic ES          0.023569912555 Eh    ::
         :: -> anisotropic XC          0.158859821034 Eh    ::
         :: -> dispersion             -0.189906437601 Eh    ::
         :: repulsion energy           3.432132991342 Eh    ::
         :: add. restraining           0.000000000000 Eh    ::
         :: total charge               0.000000000000 e     ::
         :::::::::::::::::::::::::::::::::::::::::::::::::::::

      ----------------------------------------------------------- 
     |                   =====================                   |
     |                        A N C O P T                        |
     |                   =====================                   |
     |               Approximate Normal Coordinate               |
     |                Rational Function Optimizer                |
      ----------------------------------------------------------- 

          ...................................................
          :                      SETUP                      :
          :.................................................:
          :   optimization level            normal          :
          :   max. optcycles                   393          :
          :   ANC micro-cycles                  20          :
          :   degrees of freedom               387          :
          :.................................................:
          :   RF solver                   davidson          :
          :   write xtbopt.log                true          :
          :   linear?                        false          :
          :   energy convergence         0.5000000E-05 Eh   :
          :   grad. convergence          0.1000000E-02 Eh/α :
          :   maximium RF displ.         1.0000000          :
          :   Hlow (freq-cutoff)         0.1000000E-01      :
          :   Hmax (freq-cutoff)         5.0000000          :
          :   S6 in model hess.         20.0000000          :
          ...................................................

generating ANC from model Hessian ...
Using Lindh-Hessian (1995)
 Shifting diagonal of input Hessian by   1.000055242065396E-002
 Lowest  eigenvalues of input Hessian
    0.010000    0.000000    0.000000    0.000000    0.000000    0.000000
    0.000000    0.010008    0.010030    0.010041    0.010062    0.010112
    0.010140    0.010161    0.010240    0.010289    0.010368    0.010450
 Highest eigenvalues
    2.366976    2.389690    2.498585    2.506305    2.555524    2.564336
 

........................................................................
.............................. CYCLE    1 ..............................
........................................................................
   1   -216.5351186 -0.216535E+03  0.109E-04    0.55       0.0  T
   2   -216.5351186 -0.618172E-10  0.837E-05    0.55     104.4  T
   3   -216.5351186 -0.590234E-09  0.467E-05    0.55     187.3  T
     SCC iter.                  ...        0 min,  0.053 sec
     gradient                   ...        0 min,  0.048 sec
 * total energy  :  -213.0998176 Eh     change       -0.8344301E-08 Eh
   gradient norm :     0.2999634 Eh/α   predicted     0.0000000E+00 (-100.00%)
   displ. norm   :     0.4643805 α      lambda       -0.9272739E-01
   maximum displ.:     0.1032252 α      in ANC's #227, #84, #184, ...

........................................................................
.............................. CYCLE    2 ..............................
........................................................................
   1   -216.6808999 -0.216681E+03  0.243E-01    0.58       0.0  T
   2   -216.6822117 -0.131186E-02  0.159E-01    0.55       1.0  T
   3   -216.6821574  0.543555E-04  0.854E-02    0.59       1.0  T
   4   -216.6824330 -0.275583E-03  0.424E-02    0.54       1.0  T
   5   -216.6826414 -0.208464E-03  0.954E-03    0.56       1.0  T
   6   -216.6826484 -0.695526E-05  0.448E-03    0.56       2.0  T
   7   -216.6826495 -0.109474E-05  0.235E-03    0.56       3.7  T
   8   -216.6826499 -0.397143E-06  0.978E-04    0.56       8.9  T
   9   -216.6826499 -0.624850E-07  0.432E-04    0.56      20.2  T
     SCC iter.                  ...        0 min,  0.148 sec
     gradient                   ...        0 min,  0.048 sec
 * total energy  :  -213.1666870 Eh     change       -0.6686940E-01 Eh
   gradient norm :     0.1320723 Eh/α   predicted    -0.5642098E-01 ( -15.63%)
   displ. norm   :     0.4860381 α      lambda       -0.3734852E-01
   maximum displ.:     0.1027747 α      in ANC's #81, #84, #79, ...

........................................................................
.............................. CYCLE    3 ..............................
........................................................................
   1   -216.7507047 -0.216751E+03  0.214E-01    0.56       0.0  T
   2   -216.7515660 -0.861216E-03  0.133E-01    0.55       1.0  T
   3   -216.7514255  0.140478E-03  0.706E-02    0.58       1.0  T
   4   -216.7516679 -0.242467E-03  0.327E-02    0.55       1.0  T
   5   -216.7517821 -0.114145E-03  0.761E-03    0.56       1.1  T
   6   -216.7517871 -0.503968E-05  0.367E-03    0.56       2.4  T
   7   -216.7517879 -0.761917E-06  0.202E-03    0.56       4.3  T
   8   -216.7517882 -0.303437E-06  0.768E-04    0.56      11.4  T
   9   -216.7517882 -0.275069E-07  0.366E-04    0.56      23.9  T
     SCC iter.                  ...        0 min,  0.150 sec
     gradient                   ...        0 min,  0.048 sec
 * total energy  :  -213.1908070 Eh     change       -0.2412001E-01 Eh
   gradient norm :     0.0399180 Eh/α   predicted    -0.2308575E-01 (  -4.29%)
   displ. norm   :     0.5088681 α      lambda       -0.1185863E-01
   maximum displ.:     0.1120117 α      in ANC's #80, #70, #54, ...

........................................................................
.............................. CYCLE    4 ..............................
........................................................................
   1   -216.7617402 -0.216762E+03  0.185E-01    0.57       0.0  T
   2   -216.7618237 -0.835224E-04  0.107E-01    0.57       1.0  T
   3   -216.7616519  0.171844E-03  0.408E-02    0.59       1.0  T
   4   -216.7618551 -0.203228E-03  0.928E-03    0.58       1.0  T
   5   -216.7618618 -0.665245E-05  0.410E-03    0.58       2.1  T
   6   -216.7618626 -0.873962E-06  0.217E-03    0.58       4.0  T
   7   -216.7618629 -0.268447E-06  0.106E-03    0.58       8.2  T
   8   -216.7618630 -0.851735E-07  0.454E-04    0.58      19.2  T
   9   -216.7618630 -0.811397E-08  0.230E-04    0.58      38.0  T
     SCC iter.                  ...        0 min,  0.153 sec
     gradient                   ...        0 min,  0.048 sec
 * total energy  :  -213.1986038 Eh     change       -0.7796851E-02 Eh
   gradient norm :     0.0323883 Eh/α   predicted    -0.7464699E-02 (  -4.26%)
   displ. norm   :     0.6732768 α      lambda       -0.1092014E-01
   maximum displ.:     0.1459780 α      in ANC's #81, #79, #70, ...

........................................................................
.............................. CYCLE    5 ..............................
........................................................................
   1   -216.7513865 -0.216751E+03  0.348E-01    0.58       0.0  T
   2   -216.7515987 -0.212206E-03  0.195E-01    0.58       1.0  T
   3   -216.7514184  0.180377E-03  0.449E-02    0.59       1.0  T
   4   -216.7516875 -0.269186E-03  0.114E-02    0.58       1.0  T
   5   -216.7516927 -0.513554E-05  0.629E-03    0.58       1.4  T
   6   -216.7516946 -0.190802E-05  0.269E-03    0.58       3.3  T
   7   -216.7516952 -0.617982E-06  0.111E-03    0.58       7.9  T
   8   -216.7516953 -0.731765E-07  0.539E-04    0.58      16.2  T
   9   -216.7516953 -0.108109E-07  0.263E-04    0.58      33.3  T
     SCC iter.                  ...        0 min,  0.150 sec
     gradient                   ...        0 min,  0.048 sec
 * total energy  :  -213.2010790 Eh     change       -0.2475143E-02 Eh
   gradient norm :     0.0501702 Eh/α   predicted    -0.7935172E-02 ( 220.59%)
   displ. norm   :     0.3761737 α      lambda       -0.8286499E-02
   maximum displ.:     0.1405294 α      in ANC's #9, #21, #38, ...

........................................................................
.............................. CYCLE    6 ..............................
........................................................................
   1   -216.7617654 -0.216762E+03  0.264E-01    0.60       0.0  T
   2   -216.7619009 -0.135496E-03  0.146E-01    0.62       1.0  T
   3   -216.7617561  0.144727E-03  0.354E-02    0.58       1.0  T
   4   -216.7619577 -0.201609E-03  0.797E-03    0.61       1.1  T
   5   -216.7619618 -0.405728E-05  0.374E-03    0.61       2.3  T
   6   -216.7619623 -0.480739E-06  0.184E-03    0.61       4.8  T
   7   -216.7619626 -0.306793E-06  0.573E-04    0.61      15.3  T
   8   -216.7619626 -0.291739E-07  0.254E-04    0.61      34.3  T
     SCC iter.                  ...        0 min,  0.140 sec
     gradient                   ...        0 min,  0.048 sec
 * total energy  :  -213.2051475 Eh     change       -0.4068532E-02 Eh
   gradient norm :     0.0414410 Eh/α   predicted    -0.4729559E-02 (  16.25%)
   displ. norm   :     0.3787895 α      lambda       -0.4393537E-02
   maximum displ.:     0.0922422 α      in ANC's #16, #38, #44, ...

........................................................................
.............................. CYCLE    7 ..............................
........................................................................
   1   -216.7588439 -0.216759E+03  0.223E-01    0.61       0.0  T
   2   -216.7589516 -0.107695E-03  0.125E-01    0.62       1.0  T
   3   -216.7587567  0.194921E-03  0.397E-02    0.60       1.0  T
   4   -216.7589899 -0.233180E-03  0.893E-03    0.62       1.0  T
   5   -216.7589966 -0.677226E-05  0.389E-03    0.62       2.2  T
   6   -216.7589976 -0.987510E-06  0.186E-03    0.62       4.7  T
   7   -216.7589978 -0.181915E-06  0.796E-04    0.62      11.0  T
   8   -216.7589979 -0.579668E-07  0.286E-04    0.62      30.6  T
     SCC iter.                  ...        0 min,  0.138 sec
     gradient                   ...        0 min,  0.048 sec
 * total energy  :  -213.2060575 Eh     change       -0.9100071E-03 Eh
   gradient norm :     0.0321413 Eh/α   predicted    -0.2511971E-02 ( 176.04%)
   displ. norm   :     0.3028535 α      lambda       -0.2922602E-02
   maximum displ.:     0.0988601 α      in ANC's #21, #16, #48, ...

........................................................................
.............................. CYCLE    8 ..............................
........................................................................
   1   -216.7572638 -0.216757E+03  0.183E-01    0.62       0.0  T
   2   -216.7573249 -0.611732E-04  0.102E-01    0.63       1.0  T
   3   -216.7572997  0.252748E-04  0.174E-02    0.61       1.0  T
   4   -216.7573448 -0.451652E-04  0.519E-03    0.62       1.7  T
   5   -216.7573467 -0.184313E-05  0.251E-03    0.62       3.5  T
   6   -216.7573470 -0.315688E-06  0.113E-03    0.62       7.7  T
   7   -216.7573471 -0.800832E-07  0.440E-04    0.62      19.8  T
   8   -216.7573471 -0.191622E-07  0.176E-04    0.62      49.6  T
     SCC iter.                  ...        0 min,  0.135 sec
     gradient                   ...        0 min,  0.049 sec
 * total energy  :  -213.2079521 Eh     change       -0.1894602E-02 Eh
   gradient norm :     0.0203680 Eh/α   predicted    -0.1595349E-02 ( -15.80%)
   displ. norm   :     0.4323882 α      lambda       -0.2411105E-02
   maximum displ.:     0.1630376 α      in ANC's #21, #16, #12, ...

........................................................................
.............................. CYCLE    9 ..............................
........................................................................
   1   -216.7489353 -0.216749E+03  0.223E-01    0.61       0.0  T
   2   -216.7490192 -0.839061E-04  0.123E-01    0.63       1.0  T
   3   -216.7488994  0.119862E-03  0.330E-02    0.61       1.0  T
   4   -216.7490566 -0.157230E-03  0.584E-03    0.63       1.5  T
   5   -216.7490568 -0.195950E-06  0.320E-03    0.63       2.7  T
   6   -216.7490574 -0.604127E-06  0.161E-03    0.63       5.4  T
   7   -216.7490576 -0.203057E-06  0.652E-04    0.63      13.4  T
   8   -216.7490576 -0.355338E-07  0.251E-04    0.63      34.8  T
     SCC iter.                  ...        0 min,  0.135 sec
     gradient                   ...        0 min,  0.048 sec
 * total energy  :  -213.2080224 Eh     change       -0.7032906E-04 Eh
   gradient norm :     0.0391708 Eh/α   predicted    -0.1430965E-02 (1934.67%)
   displ. norm   :     0.2885755 α      lambda       -0.2951646E-02
   maximum displ.:     0.1095495 α      in ANC's #7, #16, #4, ...

........................................................................
.............................. CYCLE   10 ..............................
........................................................................
   1   -216.7601135 -0.216760E+03  0.202E-01    0.63       0.0  T
   2   -216.7601688 -0.553673E-04  0.112E-01    0.64       1.0  T
   3   -216.7601659  0.295229E-05  0.138E-02    0.63       1.0  T
   4   -216.7601883 -0.224249E-04  0.466E-03    0.64       1.9  T
   5   -216.7601893 -0.103580E-05  0.256E-03    0.64       3.4  T
   6   -216.7601898 -0.452277E-06  0.887E-04    0.64       9.8  T
   7   -216.7601899 -0.658183E-07  0.324E-04    0.64      27.0  T
     SCC iter.                  ...        0 min,  0.119 sec
     gradient                   ...        0 min,  0.048 sec
 * total energy  :  -213.2094083 Eh     change       -0.1385921E-02 Eh
   gradient norm :     0.0198252 Eh/α   predicted    -0.1598726E-02 (  15.35%)
   displ. norm   :     0.3199986 α      lambda       -0.1558543E-02
   maximum displ.:     0.1545759 α      in ANC's #21, #16, #12, ...

........................................................................
.............................. CYCLE   11 ..............................
........................................................................
   1   -216.7511877 -0.216751E+03  0.167E-01    0.64       0.0  T
   2   -216.7512573 -0.695906E-04  0.926E-02    0.65       1.0  T
   3   -216.7512255  0.318537E-04  0.183E-02    0.64       1.0  T
   4   -216.7512719 -0.464656E-04  0.688E-03    0.65       1.3  T
   5   -216.7512767 -0.478586E-05  0.266E-03    0.65       3.3  T
   6   -216.7512771 -0.395127E-06  0.132E-03    0.65       6.6  T
   7   -216.7512772 -0.836449E-07  0.506E-04    0.65      17.3  T
   8   -216.7512772 -0.233649E-07  0.221E-04    0.65      39.6  T
     SCC iter.                  ...        0 min,  0.136 sec
     gradient                   ...        0 min,  0.048 sec
 * total energy  :  -213.2092329 Eh     change        0.1754414E-03 Eh
   gradient norm :     0.0500574 Eh/α   predicted    -0.8590732E-03 (-589.66%)
   displ. norm   :     0.2449469 α      lambda       -0.2418579E-02
   maximum displ.:     0.0823592 α      in ANC's #12, #16, #7, ...

........................................................................
.............................. CYCLE   12 ..............................
........................................................................
   1   -216.7590458 -0.216759E+03  0.148E-01    0.64       0.0  T
   2   -216.7590944 -0.485409E-04  0.819E-02    0.64       1.0  T
   3   -216.7590605  0.338470E-04  0.197E-02    0.64       1.0  T
   4   -216.7591086 -0.481015E-04  0.442E-03    0.65       2.0  T
   5   -216.7591099 -0.130755E-05  0.225E-03    0.64       3.9  T
   6   -216.7591103 -0.379000E-06  0.106E-03    0.64       8.3  T
   7   -216.7591104 -0.609060E-07  0.407E-04    0.64      21.5  T
   8   -216.7591104 -0.140135E-07  0.135E-04    0.64      64.7  T
     SCC iter.                  ...        0 min,  0.134 sec
     gradient                   ...        0 min,  0.048 sec
 * total energy  :  -213.2103797 Eh     change       -0.1146805E-02 Eh
   gradient norm :     0.0256286 Eh/α   predicted    -0.1281849E-02 (  11.78%)
   displ. norm   :     0.3567093 α      lambda       -0.1225940E-02
   maximum displ.:     0.1450270 α      in ANC's #16, #12, #21, ...

........................................................................
.............................. CYCLE   13 ..............................
........................................................................
   1   -216.7571111 -0.216757E+03  0.102E-01    0.65       0.0  T
   2   -216.7571309 -0.198379E-04  0.578E-02    0.65       1.0  T
   3   -216.7570578  0.730658E-04  0.251E-02    0.65       1.0  T
   4   -216.7571432 -0.853821E-04  0.424E-03    0.65       2.1  T
   5   -216.7571438 -0.603603E-06  0.245E-03    0.65       3.6  T
   6   -216.7571443 -0.500064E-06  0.972E-04    0.65       9.0  T
   7   -216.7571444 -0.578300E-07  0.372E-04    0.65      23.5  T
     SCC iter.                  ...        0 min,  0.113 sec
     gradient                   ...        0 min,  0.048 sec
 * total energy  :  -213.2109935 Eh     change       -0.6138213E-03 Eh
   gradient norm :     0.0156502 Eh/α   predicted    -0.6909660E-03 (  12.57%)
   displ. norm   :     0.4023818 α      lambda       -0.8519559E-03
   maximum displ.:     0.1699658 α      in ANC's #16, #12, #21, ...

........................................................................
.............................. CYCLE   14 ..............................
........................................................................
   1   -216.7598401 -0.216760E+03  0.670E-02    0.65       0.0  T
   2   -216.7598480 -0.792209E-05  0.379E-02    0.66       1.0  T
   3   -216.7598357  0.123263E-04  0.102E-02    0.66       1.0  T
   4   -216.7598510 -0.153332E-04  0.293E-03    0.66       3.0  T
   5   -216.7598514 -0.360519E-06  0.171E-03    0.66       5.1  T
   6   -216.7598516 -0.223000E-06  0.571E-04    0.66      15.3  T
   7   -216.7598516 -0.290757E-07  0.224E-04    0.66      39.0  T
     SCC iter.                  ...        0 min,  0.114 sec
     gradient                   ...        0 min,  0.048 sec
 * total energy  :  -213.2117446 Eh     change       -0.7510615E-03 Eh
   gradient norm :     0.0115999 Eh/α   predicted    -0.4949488E-03 ( -34.10%)
   displ. norm   :     0.7150332 α      lambda       -0.1386269E-02
   maximum displ.:     0.2907909 α      in ANC's #12, #16, #21, ...

........................................................................
.............................. CYCLE   15 ..............................
........................................................................
   1   -216.7564720 -0.216756E+03  0.138E-01    0.66       0.0  T
   2   -216.7565080 -0.360054E-04  0.779E-02    0.68       1.0  T
   3   -216.7564340  0.739904E-04  0.231E-02    0.67       1.0  T
   4   -216.7565240 -0.900014E-04  0.578E-03    0.68       1.5  T
   5   -216.7565257 -0.162697E-05  0.323E-03    0.68       2.7  T
   6   -216.7565263 -0.672389E-06  0.118E-03    0.68       7.4  T
   7   -216.7565265 -0.108535E-06  0.431E-04    0.68      20.3  T
   8   -216.7565265 -0.169117E-07  0.199E-04    0.68      44.0  T
     SCC iter.                  ...        0 min,  0.129 sec
     gradient                   ...        0 min,  0.048 sec
 * total energy  :  -213.2127964 Eh     change       -0.1051797E-02 Eh
   gradient norm :     0.0201701 Eh/α   predicted    -0.1047519E-02 (  -0.41%)
   displ. norm   :     0.6800538 α      lambda       -0.1177011E-02
   maximum displ.:     0.3001014 α      in ANC's #12, #16, #5, ...

........................................................................
.............................. CYCLE   16 ..............................
........................................................................
   1   -216.7659328 -0.216766E+03  0.915E-02    0.69       0.0  T
   2   -216.7659466 -0.138427E-04  0.524E-02    0.70       1.0  T
   3   -216.7658925  0.541280E-04  0.215E-02    0.69       1.0  T
   4   -216.7659557 -0.631961E-04  0.438E-03    0.70       2.0  T
   5   -216.7659565 -0.795790E-06  0.257E-03    0.70       3.4  T
   6   -216.7659569 -0.450041E-06  0.942E-04    0.70       9.3  T
   7   -216.7659570 -0.872397E-07  0.317E-04    0.70      27.6  T
     SCC iter.                  ...        0 min,  0.113 sec
     gradient                   ...        0 min,  0.048 sec
 * total energy  :  -213.2136628 Eh     change       -0.8664424E-03 Eh
   gradient norm :     0.0123587 Eh/α   predicted    -0.8606771E-03 (  -0.67%)
   displ. norm   :     0.7343842 α      lambda       -0.1021164E-02
   maximum displ.:     0.3106327 α      in ANC's #12, #16, #21, ...

........................................................................
.............................. CYCLE   17 ..............................
........................................................................
   1   -216.7578801 -0.216758E+03  0.136E-01    0.70       0.0  T
   2   -216.7579066 -0.264498E-04  0.764E-02    0.72       1.0  T
   3   -216.7578207  0.859080E-04  0.251E-02    0.71       1.0  T
   4   -216.7579228 -0.102169E-03  0.543E-03    0.72       1.6  T
   5   -216.7579237 -0.883931E-06  0.307E-03    0.72       2.8  T
   6   -216.7579244 -0.703807E-06  0.996E-04    0.72       8.8  T
   7   -216.7579245 -0.934332E-07  0.384E-04    0.72      22.8  T
     SCC iter.                  ...        0 min,  0.112 sec
     gradient                   ...        0 min,  0.050 sec
 * total energy  :  -213.2145143 Eh     change       -0.8515072E-03 Eh
   gradient norm :     0.0146065 Eh/α   predicted    -0.7859517E-03 (  -7.70%)
   displ. norm   :     0.6739515 α      lambda       -0.1130960E-02
   maximum displ.:     0.3138663 α      in ANC's #12, #16, #1, ...

........................................................................
.............................. CYCLE   18 ..............................
........................................................................
   1   -216.7650809 -0.216765E+03  0.109E-01    0.72       0.0  T
   2   -216.7651022 -0.212491E-04  0.617E-02    0.73       1.0  T
   3   -216.7650130  0.892349E-04  0.274E-02    0.73       1.0  T
   4   -216.7651175 -0.104568E-03  0.456E-03    0.73       1.9  T
   5   -216.7651185 -0.959361E-06  0.255E-03    0.74       3.4  T
   6   -216.7651189 -0.425757E-06  0.101E-03    0.73       8.7  T
   7   -216.7651190 -0.779300E-07  0.360E-04    0.73      24.2  T
   8   -216.7651190 -0.857460E-08  0.151E-04    0.73      57.9  T
     SCC iter.                  ...        0 min,  0.128 sec
     gradient                   ...        0 min,  0.048 sec
 * total energy  :  -213.2153133 Eh     change       -0.7989456E-03 Eh
   gradient norm :     0.0153902 Eh/α   predicted    -0.8223285E-03 (   2.93%)
   displ. norm   :     0.7163412 α      lambda       -0.8837770E-03
   maximum displ.:     0.3242843 α      in ANC's #12, #16, #5, ...

........................................................................
.............................. CYCLE   19 ..............................
........................................................................
   1   -216.7604938 -0.216760E+03  0.118E-01    0.74       0.0  T
   2   -216.7605199 -0.260912E-04  0.667E-02    0.76       1.0  T
   3   -216.7604513  0.686105E-04  0.227E-02    0.74       1.0  T
   4   -216.7605321 -0.807726E-04  0.529E-03    0.76       1.7  T
   5   -216.7605340 -0.198265E-05  0.266E-03    0.76       3.3  T
   6   -216.7605344 -0.305246E-06  0.128E-03    0.76       6.8  T
   7   -216.7605345 -0.131636E-06  0.409E-04    0.76      21.4  T
   8   -216.7605345 -0.131326E-07  0.181E-04    0.76      48.2  T
     SCC iter.                  ...        0 min,  0.128 sec
     gradient                   ...        0 min,  0.048 sec
 * total energy  :  -213.2159930 Eh     change       -0.6797421E-03 Eh
   gradient norm :     0.0169840 Eh/α   predicted    -0.6686456E-03 (  -1.63%)
   displ. norm   :     0.6767966 α      lambda       -0.8022262E-03
   maximum displ.:     0.3134655 α      in ANC's #12, #16, #1, ...

........................................................................
.............................. CYCLE   20 ..............................
........................................................................
   1   -216.7633106 -0.216763E+03  0.855E-02    0.76       0.0  T
   2   -216.7633281 -0.174226E-04  0.492E-02    0.77       1.0  T
   3   -216.7632816  0.464839E-04  0.187E-02    0.77       1.0  T
   4   -216.7633352 -0.536714E-04  0.461E-03    0.77       1.9  T
   5   -216.7633368 -0.153597E-05  0.211E-03    0.77       4.1  T
   6   -216.7633371 -0.271139E-06  0.883E-04    0.77       9.9  T
   7   -216.7633371 -0.519784E-07  0.325E-04    0.77      26.9  T
     SCC iter.                  ...        0 min,  0.113 sec
     gradient                   ...        0 min,  0.048 sec
 * total energy  :  -213.2164951 Eh     change       -0.5020304E-03 Eh
   gradient norm :     0.0170254 Eh/α   predicted    -0.5848466E-03 (  16.50%)
   displ. norm   :     0.5875626 α      lambda       -0.8454798E-03
   maximum displ.:     0.2744723 α      in ANC's #12, #1, #5, ...
 * RMSD in coord.:     0.6538051 α      energy gain  -0.1166775E+00 Eh

generating ANC from model Hessian ...
Using Lindh-Hessian (1995)
 Shifting diagonal of input Hessian by   9.994662760866297E-003
 Lowest  eigenvalues of input Hessian
    0.000000    0.000000    0.000000    0.000000    0.000000    0.000000
    0.010000    0.010010    0.010026    0.010059    0.010095    0.010120
    0.010149    0.010228    0.010307    0.010382    0.010400    0.010487
 Highest eigenvalues
    2.289182    2.418638    2.593722    2.603854    2.658143    2.674844
 

........................................................................
.............................. CYCLE   21 ..............................
........................................................................
   1   -216.7718593 -0.216772E+03  0.108E-01    0.78       0.0  T
   2   -216.7718917 -0.323857E-04  0.623E-02    0.79       1.0  T
   3   -216.7717817  0.109952E-03  0.320E-02    0.79       1.0  T
   4   -216.7719129 -0.131148E-03  0.516E-03    0.79       1.7  T
   5   -216.7719149 -0.207577E-05  0.256E-03    0.79       3.4  T
   6   -216.7719153 -0.380905E-06  0.132E-03    0.79       6.6  T
   7   -216.7719154 -0.988460E-07  0.444E-04    0.79      19.7  T
   8   -216.7719154 -0.174115E-07  0.133E-04    0.79      65.6  T
     SCC iter.                  ...        0 min,  0.128 sec
     gradient                   ...        0 min,  0.048 sec
 * total energy  :  -213.2168540 Eh     change       -0.3589626E-03 Eh
   gradient norm :     0.0209497 Eh/α   predicted     0.0000000E+00 (-100.00%)
   displ. norm   :     0.0977031 α      lambda       -0.5608388E-03
   maximum displ.:     0.0425568 α      in ANC's #1, #5, #9, ...

........................................................................
.............................. CYCLE   22 ..............................
........................................................................
   1   -216.7680600 -0.216768E+03  0.376E-02    0.79       0.0  T
   2   -216.7680723 -0.123183E-04  0.224E-02    0.79       1.0  T
   3   -216.7680601  0.122193E-04  0.137E-02    0.79       1.0  T
   4   -216.7680798 -0.196508E-04  0.297E-03    0.79       2.9  T
   5   -216.7680806 -0.859445E-06  0.102E-03    0.79       8.6  T
   6   -216.7680807 -0.412737E-07  0.645E-04    0.79      13.6  T
   7   -216.7680807 -0.257230E-07  0.291E-04    0.79      30.0  T
     SCC iter.                  ...        0 min,  0.113 sec
     gradient                   ...        0 min,  0.048 sec
 * total energy  :  -213.2171803 Eh     change       -0.3262352E-03 Eh
   gradient norm :     0.0077924 Eh/α   predicted    -0.2831037E-03 ( -13.22%)
   displ. norm   :     0.1554257 α      lambda       -0.2941815E-03
   maximum displ.:     0.0677099 α      in ANC's #1, #5, #11, ...

........................................................................
.............................. CYCLE   23 ..............................
........................................................................
   1   -216.7661712 -0.216766E+03  0.617E-02    0.79       0.0  T
   2   -216.7661823 -0.110121E-04  0.346E-02    0.79       1.0  T
   3   -216.7661615  0.207926E-04  0.132E-02    0.79       1.0  T
   4   -216.7661874 -0.259118E-04  0.235E-03    0.79       3.7  T
   5   -216.7661878 -0.475655E-06  0.916E-04    0.79       9.5  T
   6   -216.7661879 -0.149577E-07  0.486E-04    0.79      18.0  T
     SCC iter.                  ...        0 min,  0.098 sec
     gradient                   ...        0 min,  0.048 sec
 * total energy  :  -213.2172532 Eh     change       -0.7291046E-04 Eh
   gradient norm :     0.0106658 Eh/α   predicted    -0.1506445E-03 ( 106.62%)
   displ. norm   :     0.1900846 α      lambda       -0.3787490E-03
   maximum displ.:     0.0887334 α      in ANC's #1, #5, #9, ...

........................................................................
.............................. CYCLE   24 ..............................
........................................................................
   1   -216.7660532 -0.216766E+03  0.667E-02    0.79       0.0  T
   2   -216.7660637 -0.104666E-04  0.371E-02    0.79       1.0  T
   3   -216.7660584  0.531263E-05  0.875E-03    0.79       1.0  T
   4   -216.7660677 -0.930731E-05  0.195E-03    0.79       4.5  T
   5   -216.7660679 -0.202636E-06  0.850E-04    0.79      10.3  T
   6   -216.7660679 -0.305196E-07  0.350E-04    0.79      25.0  T
     SCC iter.                  ...        0 min,  0.096 sec
     gradient                   ...        0 min,  0.048 sec
 * total energy  :  -213.2173751 Eh     change       -0.1219253E-03 Eh
   gradient norm :     0.0106787 Eh/α   predicted    -0.1962176E-03 (  60.93%)
   displ. norm   :     0.1845693 α      lambda       -0.4410688E-03
   maximum displ.:     0.0835307 α      in ANC's #1, #5, #11, ...

........................................................................
.............................. CYCLE   25 ..............................
........................................................................
   1   -216.7681638 -0.216768E+03  0.790E-02    0.79       0.0  T
   2   -216.7681743 -0.105272E-04  0.439E-02    0.79       1.0  T
   3   -216.7681635  0.107971E-04  0.104E-02    0.79       1.0  T
   4   -216.7681788 -0.153427E-04  0.194E-03    0.79       4.5  T
   5   -216.7681790 -0.189896E-06  0.107E-03    0.79       8.2  T
   6   -216.7681791 -0.515143E-07  0.532E-04    0.79      16.4  T
   7   -216.7681791 -0.256043E-07  0.172E-04    0.79      50.9  T
     SCC iter.                  ...        0 min,  0.112 sec
     gradient                   ...        0 min,  0.048 sec
 * total energy  :  -213.2175621 Eh     change       -0.1870571E-03 Eh
   gradient norm :     0.0119348 Eh/α   predicted    -0.2280473E-03 (  21.91%)
   displ. norm   :     0.1737253 α      lambda       -0.2600224E-03
   maximum displ.:     0.0867744 α      in ANC's #1, #5, #11, ...

........................................................................
.............................. CYCLE   26 ..............................
........................................................................
   1   -216.7690396 -0.216769E+03  0.325E-02    0.79       0.0  T
   2   -216.7690421 -0.246588E-05  0.184E-02    0.79       1.0  T
   3   -216.7690373  0.474223E-05  0.586E-03    0.79       1.5  T
   4   -216.7690430 -0.570893E-05  0.134E-03    0.79       6.5  T
   5   -216.7690432 -0.156065E-06  0.553E-04    0.79      15.8  T
   6   -216.7690432 -0.646767E-08  0.289E-04    0.79      30.2  T
     SCC iter.                  ...        0 min,  0.098 sec
     gradient                   ...        0 min,  0.048 sec
 * total energy  :  -213.2177740 Eh     change       -0.2118291E-03 Eh
   gradient norm :     0.0062973 Eh/α   predicted    -0.1339363E-03 ( -36.77%)
   displ. norm   :     0.5045377 α      lambda       -0.5129797E-03
   maximum displ.:     0.2497515 α      in ANC's #1, #5, #9, ...

........................................................................
.............................. CYCLE   27 ..............................
........................................................................
   1   -216.7675028 -0.216768E+03  0.906E-02    0.79       0.0  T
   2   -216.7675188 -0.159334E-04  0.508E-02    0.80       1.0  T
   3   -216.7675057  0.130289E-04  0.111E-02    0.80       1.0  T
   4   -216.7675246 -0.188227E-04  0.290E-03    0.80       3.0  T
   5   -216.7675251 -0.557124E-06  0.135E-03    0.80       6.5  T
   6   -216.7675252 -0.840682E-07  0.650E-04    0.80      13.4  T
   7   -216.7675252 -0.338165E-07  0.249E-04    0.80      35.0  T
     SCC iter.                  ...        0 min,  0.114 sec
     gradient                   ...        0 min,  0.048 sec
 * total energy  :  -213.2180117 Eh     change       -0.2376895E-03 Eh
   gradient norm :     0.0106523 Eh/α   predicted    -0.3217832E-03 (  35.38%)
   displ. norm   :     0.5059879 α      lambda       -0.6073610E-03
   maximum displ.:     0.2497158 α      in ANC's #1, #5, #9, ...

........................................................................
.............................. CYCLE   28 ..............................
........................................................................
   1   -216.7666341 -0.216767E+03  0.744E-02    0.80       0.0  T
   2   -216.7666412 -0.704153E-05  0.421E-02    0.80       1.0  T
   3   -216.7666315  0.960619E-05  0.923E-03    0.80       1.0  T
   4   -216.7666441 -0.126052E-04  0.247E-03    0.80       3.5  T
   5   -216.7666445 -0.313708E-06  0.138E-03    0.80       6.3  T
   6   -216.7666446 -0.119350E-06  0.426E-04    0.80      20.5  T
   7   -216.7666446 -0.133821E-07  0.172E-04    0.80      50.9  T
     SCC iter.                  ...        0 min,  0.116 sec
     gradient                   ...        0 min,  0.048 sec
 * total energy  :  -213.2183442 Eh     change       -0.3325847E-03 Eh
   gradient norm :     0.0123369 Eh/α   predicted    -0.3814303E-03 (  14.69%)
   displ. norm   :     0.4227316 α      lambda       -0.3898770E-03
   maximum displ.:     0.2145674 α      in ANC's #1, #5, #9, ...

........................................................................
.............................. CYCLE   29 ..............................
........................................................................
   1   -216.7660862 -0.216766E+03  0.567E-02    0.81       0.0  T
   2   -216.7660916 -0.531328E-05  0.320E-02    0.81       1.0  T
   3   -216.7660843  0.726627E-05  0.801E-03    0.81       1.1  T
   4   -216.7660937 -0.939224E-05  0.195E-03    0.81       4.5  T
   5   -216.7660939 -0.173934E-06  0.113E-03    0.81       7.7  T
   6   -216.7660939 -0.869104E-07  0.436E-04    0.81      20.0  T
   7   -216.7660940 -0.114049E-07  0.188E-04    0.81      46.5  T
     SCC iter.                  ...        0 min,  0.116 sec
     gradient                   ...        0 min,  0.048 sec
 * total energy  :  -213.2186607 Eh     change       -0.3164745E-03 Eh
   gradient norm :     0.0077962 Eh/α   predicted    -0.2297752E-03 ( -27.40%)
   displ. norm   :     0.5371821 α      lambda       -0.5286917E-03
   maximum displ.:     0.2803541 α      in ANC's #1, #5, #9, ...

........................................................................
.............................. CYCLE   30 ..............................
........................................................................
   1   -216.7684196 -0.216768E+03  0.685E-02    0.81       0.0  T
   2   -216.7684269 -0.727935E-05  0.388E-02    0.82       1.0  T
   3   -216.7684138  0.131031E-04  0.100E-02    0.81       1.0  T
   4   -216.7684303 -0.165738E-04  0.221E-03    0.82       4.0  T
   5   -216.7684306 -0.227443E-06  0.120E-03    0.82       7.3  T
   6   -216.7684306 -0.626980E-07  0.493E-04    0.82      17.7  T
   7   -216.7684306 -0.196575E-07  0.202E-04    0.82      43.3  T
     SCC iter.                  ...        0 min,  0.116 sec
     gradient                   ...        0 min,  0.048 sec
 * total energy  :  -213.2190914 Eh     change       -0.4306493E-03 Eh
   gradient norm :     0.0044584 Eh/α   predicted    -0.3406368E-03 ( -20.90%)
   displ. norm   :     0.6907562 α      lambda       -0.4912559E-03
   maximum displ.:     0.3612523 α      in ANC's #1, #5, #9, ...

........................................................................
.............................. CYCLE   31 ..............................
........................................................................
   1   -216.7665912 -0.216767E+03  0.714E-02    0.82       0.0  T
   2   -216.7665973 -0.609677E-05  0.410E-02    0.83       1.0  T
   3   -216.7665841  0.131095E-04  0.976E-03    0.82       1.0  T
   4   -216.7666002 -0.160337E-04  0.242E-03    0.83       3.6  T
   5   -216.7666005 -0.272067E-06  0.143E-03    0.82       6.1  T
   6   -216.7666006 -0.115481E-06  0.513E-04    0.82      17.0  T
   7   -216.7666006 -0.257906E-07  0.184E-04    0.82      47.4  T
     SCC iter.                  ...        0 min,  0.118 sec
     gradient                   ...        0 min,  0.048 sec
 * total energy  :  -213.2195326 Eh     change       -0.4411853E-03 Eh
   gradient norm :     0.0059264 Eh/α   predicted    -0.3628272E-03 ( -17.76%)
   displ. norm   :     0.7502953 α      lambda       -0.5330549E-03
   maximum displ.:     0.4009838 α      in ANC's #1, #5, #9, ...

........................................................................
.............................. CYCLE   32 ..............................
........................................................................
   1   -216.7674507 -0.216767E+03  0.710E-02    0.83       0.0  T
   2   -216.7674559 -0.513986E-05  0.411E-02    0.84       1.0  T
   3   -216.7674435  0.123253E-04  0.943E-03    0.83       1.0  T
   4   -216.7674582 -0.146476E-04  0.239E-03    0.84       3.7  T
   5   -216.7674585 -0.297482E-06  0.139E-03    0.84       6.3  T
   6   -216.7674586 -0.115501E-06  0.510E-04    0.84      17.1  T
   7   -216.7674586 -0.230774E-07  0.201E-04    0.84      43.5  T
     SCC iter.                  ...        0 min,  0.117 sec
     gradient                   ...        0 min,  0.048 sec
 * total energy  :  -213.2200062 Eh     change       -0.4736029E-03 Eh
   gradient norm :     0.0055719 Eh/α   predicted    -0.4165678E-03 ( -12.04%)
   displ. norm   :     0.7684841 α      lambda       -0.4951586E-03
   maximum displ.:     0.4188960 α      in ANC's #1, #5, #9, ...

........................................................................
.............................. CYCLE   33 ..............................
........................................................................
   1   -216.7665333 -0.216767E+03  0.720E-02    0.84       0.0  T
   2   -216.7665383 -0.499340E-05  0.417E-02    0.85       1.0  T
   3   -216.7665272  0.110501E-04  0.924E-03    0.84       1.0  T
   4   -216.7665405 -0.132160E-04  0.245E-03    0.85       3.6  T
   5   -216.7665408 -0.311853E-06  0.145E-03    0.85       6.0  T
   6   -216.7665409 -0.140792E-06  0.449E-04    0.85      19.5  T
   7   -216.7665409 -0.185764E-07  0.168E-04    0.85      52.0  T
     SCC iter.                  ...        0 min,  0.118 sec
     gradient                   ...        0 min,  0.048 sec
 * total energy  :  -213.2204431 Eh     change       -0.4369734E-03 Eh
   gradient norm :     0.0046629 Eh/α   predicted    -0.3937950E-03 (  -9.88%)
   displ. norm   :     0.7286369 α      lambda       -0.4410189E-03
   maximum displ.:     0.4115027 α      in ANC's #1, #5, #9, ...

........................................................................
.............................. CYCLE   34 ..............................
........................................................................
   1   -216.7690955 -0.216769E+03  0.640E-02    0.85       0.0  T
   2   -216.7690992 -0.371101E-05  0.371E-02    0.86       1.0  T
   3   -216.7690917  0.745528E-05  0.785E-03    0.85       1.1  T
   4   -216.7691008 -0.901937E-05  0.189E-03    0.86       4.6  T
   5   -216.7691009 -0.168566E-06  0.110E-03    0.86       8.0  T
   6   -216.7691010 -0.823895E-07  0.400E-04    0.86      21.8  T
   7   -216.7691010 -0.143871E-07  0.148E-04    0.86      59.2  T
     SCC iter.                  ...        0 min,  0.119 sec
     gradient                   ...        0 min,  0.048 sec
 * total energy  :  -213.2208247 Eh     change       -0.3815521E-03 Eh
   gradient norm :     0.0041305 Eh/α   predicted    -0.3375809E-03 ( -11.52%)
   displ. norm   :     0.7323810 α      lambda       -0.3907447E-03
   maximum displ.:     0.4152459 α      in ANC's #1, #5, #9, ...

........................................................................
.............................. CYCLE   35 ..............................
........................................................................
   1   -216.7666432 -0.216767E+03  0.667E-02    0.86       0.0  T
   2   -216.7666475 -0.436080E-05  0.386E-02    0.86       1.0  T
   3   -216.7666380  0.954957E-05  0.893E-03    0.86       1.0  T
   4   -216.7666495 -0.114892E-04  0.220E-03    0.86       4.0  T
   5   -216.7666497 -0.280436E-06  0.126E-03    0.86       6.9  T
   6   -216.7666498 -0.915156E-07  0.430E-04    0.86      20.3  T
   7   -216.7666499 -0.166919E-07  0.150E-04    0.86      58.4  T
     SCC iter.                  ...        0 min,  0.116 sec
     gradient                   ...        0 min,  0.048 sec
 * total energy  :  -213.2211661 Eh     change       -0.3414608E-03 Eh
   gradient norm :     0.0046555 Eh/α   predicted    -0.3001679E-03 ( -12.09%)
   displ. norm   :     0.6541395 α      lambda       -0.3901745E-03
   maximum displ.:     0.3924155 α      in ANC's #1, #5, #4, ...

........................................................................
.............................. CYCLE   36 ..............................
........................................................................
   1   -216.7714601 -0.216771E+03  0.571E-02    0.87       0.0  T
   2   -216.7714634 -0.331827E-05  0.330E-02    0.87       1.0  T
   3   -216.7714573  0.608122E-05  0.756E-03    0.87       1.2  T
   4   -216.7714647 -0.742968E-05  0.182E-03    0.87       4.8  T
   5   -216.7714649 -0.179027E-06  0.969E-04    0.87       9.0  T
   6   -216.7714650 -0.430913E-07  0.423E-04    0.87      20.7  T
     SCC iter.                  ...        0 min,  0.102 sec
     gradient                   ...        0 min,  0.048 sec
 * total energy  :  -213.2214886 Eh     change       -0.3224788E-03 Eh
   gradient norm :     0.0046997 Eh/α   predicted    -0.2785713E-03 ( -13.62%)
   displ. norm   :     0.6915990 α      lambda       -0.3595664E-03
   maximum displ.:     0.4085075 α      in ANC's #1, #5, #4, ...

........................................................................
.............................. CYCLE   37 ..............................
........................................................................
   1   -216.7698832 -0.216770E+03  0.587E-02    0.87       0.0  T
   2   -216.7698858 -0.257786E-05  0.342E-02    0.87       1.0  T
   3   -216.7698764  0.934937E-05  0.837E-03    0.87       1.0  T
   4   -216.7698871 -0.106972E-04  0.178E-03    0.87       4.9  T
   5   -216.7698874 -0.222501E-06  0.938E-04    0.87       9.3  T
   6   -216.7698874 -0.341385E-07  0.371E-04    0.87      23.5  T
     SCC iter.                  ...        0 min,  0.099 sec
     gradient                   ...        0 min,  0.048 sec
 * total energy  :  -213.2217927 Eh     change       -0.3040883E-03 Eh
   gradient norm :     0.0052121 Eh/α   predicted    -0.2657780E-03 ( -12.60%)
   displ. norm   :     0.6350980 α      lambda       -0.3369496E-03
   maximum displ.:     0.3917789 α      in ANC's #1, #5, #4, ...

........................................................................
.............................. CYCLE   38 ..............................
........................................................................
   1   -216.7680684 -0.216768E+03  0.647E-02    0.88       0.0  T
   2   -216.7680729 -0.449714E-05  0.371E-02    0.88       1.0  T
   3   -216.7680651  0.778625E-05  0.853E-03    0.88       1.0  T
   4   -216.7680750 -0.988488E-05  0.211E-03    0.88       4.1  T
   5   -216.7680751 -0.137945E-06  0.118E-03    0.88       7.4  T
   6   -216.7680753 -0.101429E-06  0.352E-04    0.88      24.8  T
   7   -216.7680753 -0.109939E-07  0.147E-04    0.88      59.3  T
     SCC iter.                  ...        0 min,  0.117 sec
     gradient                   ...        0 min,  0.048 sec
 * total energy  :  -213.2220727 Eh     change       -0.2799591E-03 Eh
   gradient norm :     0.0060069 Eh/α   predicted    -0.2364289E-03 ( -15.55%)
   displ. norm   :     0.5983174 α      lambda       -0.3037290E-03
   maximum displ.:     0.3781701 α      in ANC's #1, #5, #4, ...

........................................................................
.............................. CYCLE   39 ..............................
........................................................................
   1   -216.7704621 -0.216770E+03  0.506E-02    0.88       0.0  T
   2   -216.7704639 -0.178780E-05  0.295E-02    0.88       1.0  T
   3   -216.7704577  0.624850E-05  0.667E-03    0.88       1.3  T
   4   -216.7704647 -0.708506E-05  0.158E-03    0.88       5.5  T
   5   -216.7704649 -0.174804E-06  0.770E-04    0.88      11.4  T
   6   -216.7704649 -0.283283E-07  0.318E-04    0.88      27.5  T
     SCC iter.                  ...        0 min,  0.100 sec
     gradient                   ...        0 min,  0.048 sec
 * total energy  :  -213.2223236 Eh     change       -0.2509731E-03 Eh
   gradient norm :     0.0040301 Eh/α   predicted    -0.2062313E-03 ( -17.83%)
   displ. norm   :     0.5932674 α      lambda       -0.2604488E-03
   maximum displ.:     0.3786783 α      in ANC's #1, #5, #4, ...

........................................................................
.............................. CYCLE   40 ..............................
........................................................................
   1   -216.7694429 -0.216769E+03  0.553E-02    0.88       0.0  T
   2   -216.7694456 -0.275741E-05  0.319E-02    0.89       1.0  T
   3   -216.7694431  0.253204E-05  0.509E-03    0.88       1.7  T
   4   -216.7694466 -0.351593E-05  0.169E-03    0.89       5.2  T
   5   -216.7694468 -0.137650E-06  0.827E-04    0.89      10.6  T
   6   -216.7694468 -0.364793E-07  0.345E-04    0.89      25.3  T
     SCC iter.                  ...        0 min,  0.101 sec
     gradient                   ...        0 min,  0.048 sec
 * total energy  :  -213.2225473 Eh     change       -0.2236481E-03 Eh
   gradient norm :     0.0047534 Eh/α   predicted    -0.1760536E-03 ( -21.28%)
   displ. norm   :     0.5382692 α      lambda       -0.2364016E-03
   maximum displ.:     0.3507639 α      in ANC's #1, #5, #4, ...

........................................................................
.............................. CYCLE   41 ..............................
........................................................................
   1   -216.7694969 -0.216769E+03  0.498E-02    0.89       0.0  T
   2   -216.7694989 -0.199356E-05  0.287E-02    0.89       1.0  T
   3   -216.7694968  0.211368E-05  0.436E-03    0.89       2.0  T
   4   -216.7694996 -0.279058E-05  0.158E-03    0.89       5.5  T
   5   -216.7694997 -0.154032E-06  0.694E-04    0.89      12.6  T
   6   -216.7694998 -0.278467E-07  0.277E-04    0.89      31.5  T
     SCC iter.                  ...        0 min,  0.099 sec
     gradient                   ...        0 min,  0.048 sec
 * total energy  :  -213.2227508 Eh     change       -0.2034716E-03 Eh
   gradient norm :     0.0039083 Eh/α   predicted    -0.1524486E-03 ( -25.08%)
   displ. norm   :     0.5260512 α      lambda       -0.2360930E-03
   maximum displ.:     0.3480152 α      in ANC's #1, #5, #4, ...

........................................................................
.............................. CYCLE   42 ..............................
........................................................................
   1   -216.7713066 -0.216771E+03  0.485E-02    0.89       0.0  T
   2   -216.7713084 -0.180929E-05  0.280E-02    0.89       1.0  T
   3   -216.7713038  0.462191E-05  0.624E-03    0.89       1.4  T
   4   -216.7713093 -0.550674E-05  0.156E-03    0.89       5.6  T
   5   -216.7713094 -0.573852E-07  0.868E-04    0.89      10.1  T
   6   -216.7713094 -0.701594E-07  0.315E-04    0.89      27.7  T
     SCC iter.                  ...        0 min,  0.102 sec
     gradient                   ...        0 min,  0.048 sec
 * total energy  :  -213.2229537 Eh     change       -0.2029390E-03 Eh
   gradient norm :     0.0045148 Eh/α   predicted    -0.1507166E-03 ( -25.73%)
   displ. norm   :     0.5323274 α      lambda       -0.2307112E-03
   maximum displ.:     0.3548879 α      in ANC's #1, #5, #4, ...
 * RMSD in coord.:     0.9217440 α      energy gain  -0.6458650E-02 Eh

generating ANC from model Hessian ...
Using Lindh-Hessian (1995)
 Shifting diagonal of input Hessian by   1.000228298295600E-002
 Lowest  eigenvalues of input Hessian
    0.010000    0.000000    0.000000    0.000000    0.000000    0.000000
    0.000000    0.010009    0.010020    0.010060    0.010072    0.010086
    0.010125    0.010216    0.010290    0.010326    0.010399    0.010415
 Highest eigenvalues
    2.291645    2.389526    2.603092    2.607675    2.655605    2.665565
 

........................................................................
.............................. CYCLE   43 ..............................
........................................................................
   1   -216.7703632 -0.216770E+03  0.482E-02    0.89       0.0  T
   2   -216.7703649 -0.165254E-05  0.279E-02    0.89       1.0  T
   3   -216.7703612  0.366490E-05  0.529E-03    0.89       1.7  T
   4   -216.7703656 -0.440866E-05  0.153E-03    0.89       5.7  T
   5   -216.7703657 -0.916631E-07  0.759E-04    0.89      11.5  T
   6   -216.7703657 -0.499929E-07  0.283E-04    0.89      30.9  T
     SCC iter.                  ...        0 min,  0.101 sec
     gradient                   ...        0 min,  0.048 sec
 * total energy  :  -213.2231548 Eh     change       -0.2011021E-03 Eh
   gradient norm :     0.0033484 Eh/α   predicted     0.0000000E+00 (-100.00%)
   displ. norm   :     0.0655527 α      lambda       -0.7140193E-04
   maximum displ.:     0.0288702 α      in ANC's #1, #2, #23, ...

........................................................................
.............................. CYCLE   44 ..............................
........................................................................
   1   -216.7714621 -0.216771E+03  0.201E-02    0.89       0.0  T
   2   -216.7714627 -0.629870E-06  0.112E-02    0.89       1.0  T
   3   -216.7714624  0.343233E-06  0.207E-03    0.89       4.2  T
   4   -216.7714630 -0.581483E-06  0.637E-04    0.89      13.7  T
   5   -216.7714630 -0.215824E-07  0.316E-04    0.89      27.7  T
     SCC iter.                  ...        0 min,  0.084 sec
     gradient                   ...        0 min,  0.048 sec
 * total energy  :  -213.2232099 Eh     change       -0.5512030E-04 Eh
   gradient norm :     0.0022874 Eh/α   predicted    -0.3631637E-04 ( -34.11%)
   displ. norm   :     0.3159152 α      lambda       -0.2927069E-03
   maximum displ.:     0.1456471 α      in ANC's #1, #2, #23, ...

........................................................................
.............................. CYCLE   45 ..............................
........................................................................
   1   -216.7753509 -0.216775E+03  0.538E-02    0.90       0.0  T
   2   -216.7753560 -0.515929E-05  0.308E-02    0.89       1.0  T
   3   -216.7753426  0.134328E-04  0.105E-02    0.90       1.0  T
   4   -216.7753585 -0.159091E-04  0.233E-03    0.89       3.8  T
   5   -216.7753588 -0.308957E-06  0.118E-03    0.89       7.4  T
   6   -216.7753589 -0.474141E-07  0.599E-04    0.89      14.6  T
   7   -216.7753589 -0.307246E-07  0.177E-04    0.89      49.4  T
     SCC iter.                  ...        0 min,  0.119 sec
     gradient                   ...        0 min,  0.048 sec
 * total energy  :  -213.2233155 Eh     change       -0.1055259E-03 Eh
   gradient norm :     0.0068502 Eh/α   predicted    -0.1609612E-03 (  52.53%)
   displ. norm   :     0.2099086 α      lambda       -0.2401640E-03
   maximum displ.:     0.0914586 α      in ANC's #2, #1, #23, ...

........................................................................
.............................. CYCLE   46 ..............................
........................................................................
   1   -216.7746700 -0.216775E+03  0.672E-02    0.90       0.0  T
   2   -216.7746774 -0.737685E-05  0.373E-02    0.90       1.0  T
   3   -216.7746756  0.175791E-05  0.591E-03    0.90       1.5  T
   4   -216.7746804 -0.479033E-05  0.169E-03    0.90       5.2  T
   5   -216.7746804 -0.315868E-07  0.908E-04    0.90       9.6  T
   6   -216.7746805 -0.847021E-07  0.310E-04    0.90      28.2  T
     SCC iter.                  ...        0 min,  0.101 sec
     gradient                   ...        0 min,  0.048 sec
 * total energy  :  -213.2233433 Eh     change       -0.2786072E-04 Eh
   gradient norm :     0.0082293 Eh/α   predicted    -0.1253777E-03 ( 350.02%)
   displ. norm   :     0.0876505 α      lambda       -0.2727805E-03
   maximum displ.:     0.0400154 α      in ANC's #1, #2, #23, ...

........................................................................
.............................. CYCLE   47 ..............................
........................................................................
   1   -216.7720691 -0.216772E+03  0.445E-02    0.90       0.0  T
   2   -216.7720723 -0.318020E-05  0.248E-02    0.90       1.0  T
   3   -216.7720675  0.479098E-05  0.692E-03    0.90       1.3  T
   4   -216.7720738 -0.631364E-05  0.133E-03    0.90       6.6  T
   5   -216.7720739 -0.801165E-07  0.760E-04    0.90      11.5  T
   6   -216.7720739 -0.304491E-07  0.336E-04    0.90      26.0  T
     SCC iter.                  ...        0 min,  0.101 sec
     gradient                   ...        0 min,  0.048 sec
 * total energy  :  -213.2235000 Eh     change       -0.1567265E-03 Eh
   gradient norm :     0.0042488 Eh/α   predicted    -0.1374385E-03 ( -12.31%)
   displ. norm   :     0.1790257 α      lambda       -0.1501417E-03
   maximum displ.:     0.0897327 α      in ANC's #1, #2, #23, ...

........................................................................
.............................. CYCLE   48 ..............................
........................................................................
   1   -216.7707628 -0.216771E+03  0.439E-02    0.90       0.0  T
   2   -216.7707662 -0.338497E-05  0.245E-02    0.90       1.0  T
   3   -216.7707659  0.327612E-06  0.364E-03    0.90       2.4  T
   4   -216.7707676 -0.170611E-05  0.104E-03    0.90       8.4  T
   5   -216.7707676 -0.148307E-07  0.535E-04    0.90      16.3  T
   6   -216.7707676 -0.202734E-07  0.193E-04    0.90      45.3  T
     SCC iter.                  ...        0 min,  0.101 sec
     gradient                   ...        0 min,  0.048 sec
 * total energy  :  -213.2235417 Eh     change       -0.4165267E-04 Eh
   gradient norm :     0.0047796 Eh/α   predicted    -0.7747726E-04 (  86.01%)
   displ. norm   :     0.2683803 α      lambda       -0.2482747E-03
   maximum displ.:     0.1375082 α      in ANC's #1, #2, #23, ...

........................................................................
.............................. CYCLE   49 ..............................
........................................................................
   1   -216.7705389 -0.216771E+03  0.452E-02    0.90       0.0  T
   2   -216.7705422 -0.330264E-05  0.253E-02    0.90       1.0  T
   3   -216.7705417  0.504799E-06  0.378E-03    0.90       2.3  T
   4   -216.7705436 -0.182702E-05  0.131E-03    0.90       6.6  T
   5   -216.7705436 -0.450346E-07  0.684E-04    0.90      12.8  T
   6   -216.7705436 -0.328698E-07  0.240E-04    0.90      36.4  T
     SCC iter.                  ...        0 min,  0.100 sec
     gradient                   ...        0 min,  0.048 sec
 * total energy  :  -213.2236883 Eh     change       -0.1466013E-03 Eh
   gradient norm :     0.0046158 Eh/α   predicted    -0.1330793E-03 (  -9.22%)
   displ. norm   :     0.3062038 α      lambda       -0.1537304E-03
   maximum displ.:     0.1564530 α      in ANC's #1, #2, #23, ...

........................................................................
.............................. CYCLE   50 ..............................
........................................................................
   1   -216.7703248 -0.216770E+03  0.327E-02    0.90       0.0  T
   2   -216.7703260 -0.114608E-05  0.187E-02    0.90       1.0  T
   3   -216.7703248  0.115192E-05  0.332E-03    0.90       2.6  T
   4   -216.7703265 -0.164221E-05  0.103E-03    0.90       8.5  T
   5   -216.7703265 -0.182594E-07  0.583E-04    0.90      15.0  T
   6   -216.7703265 -0.303047E-07  0.183E-04    0.90      47.7  T
     SCC iter.                  ...        0 min,  0.101 sec
     gradient                   ...        0 min,  0.048 sec
 * total energy  :  -213.2238133 Eh     change       -0.1250450E-03 Eh
   gradient norm :     0.0029139 Eh/α   predicted    -0.8407467E-04 ( -32.76%)
   displ. norm   :     0.4290663 α      lambda       -0.1809497E-03
   maximum displ.:     0.2370285 α      in ANC's #1, #2, #23, ...

........................................................................
.............................. CYCLE   51 ..............................
........................................................................
   1   -216.7711670 -0.216771E+03  0.437E-02    0.90       0.0  T
   2   -216.7711688 -0.181907E-05  0.249E-02    0.90       1.0  T
   3   -216.7711667  0.219915E-05  0.437E-03    0.90       2.0  T
   4   -216.7711696 -0.299414E-05  0.135E-03    0.90       6.5  T
   5   -216.7711697 -0.436908E-07  0.784E-04    0.90      11.1  T
   6   -216.7711697 -0.488727E-07  0.237E-04    0.90      36.9  T
     SCC iter.                  ...        0 min,  0.103 sec
     gradient                   ...        0 min,  0.048 sec
 * total energy  :  -213.2239541 Eh     change       -0.1408001E-03 Eh
   gradient norm :     0.0026477 Eh/α   predicted    -0.1071329E-03 ( -23.91%)
   displ. norm   :     0.5132552 α      lambda       -0.1932652E-03
   maximum displ.:     0.2988109 α      in ANC's #1, #2, #23, ...

........................................................................
.............................. CYCLE   52 ..............................
........................................................................
   1   -216.7728310 -0.216773E+03  0.513E-02    0.90       0.0  T
   2   -216.7728334 -0.240281E-05  0.293E-02    0.90       1.0  T
   3   -216.7728302  0.323728E-05  0.570E-03    0.90       1.5  T
   4   -216.7728345 -0.437175E-05  0.147E-03    0.90       5.9  T
   5   -216.7728346 -0.143103E-07  0.841E-04    0.90      10.4  T
   6   -216.7728346 -0.539725E-07  0.295E-04    0.90      29.7  T
     SCC iter.                  ...        0 min,  0.104 sec
     gradient                   ...        0 min,  0.048 sec
 * total energy  :  -213.2240787 Eh     change       -0.1245600E-03 Eh
   gradient norm :     0.0042551 Eh/α   predicted    -0.1220902E-03 (  -1.98%)
   displ. norm   :     0.3748415 α      lambda       -0.1554586E-03
   maximum displ.:     0.2263142 α      in ANC's #1, #2, #4, ...

........................................................................
.............................. CYCLE   53 ..............................
........................................................................
   1   -216.7732115 -0.216773E+03  0.388E-02    0.90       0.0  T
   2   -216.7732131 -0.157464E-05  0.220E-02    0.90       1.0  T
   3   -216.7732119  0.118516E-05  0.337E-03    0.90       2.6  T
   4   -216.7732137 -0.183767E-05  0.119E-03    0.90       7.4  T
   5   -216.7732138 -0.427144E-07  0.697E-04    0.90      12.5  T
   6   -216.7732138 -0.386791E-07  0.194E-04    0.90      45.1  T
     SCC iter.                  ...        0 min,  0.101 sec
     gradient                   ...        0 min,  0.048 sec
 * total energy  :  -213.2242110 Eh     change       -0.1322547E-03 Eh
   gradient norm :     0.0038667 Eh/α   predicted    -0.8865219E-04 ( -32.97%)
   displ. norm   :     0.3484476 α      lambda       -0.1595551E-03
   maximum displ.:     0.2176203 α      in ANC's #1, #2, #4, ...

........................................................................
.............................. CYCLE   54 ..............................
........................................................................
   1   -216.7748140 -0.216775E+03  0.306E-02    0.90       0.0  T
   2   -216.7748149 -0.900462E-06  0.175E-02    0.90       1.0  T
   3   -216.7748133  0.161685E-05  0.362E-03    0.90       2.4  T
   4   -216.7748153 -0.202826E-05  0.103E-03    0.90       8.5  T
   5   -216.7748154 -0.433309E-07  0.567E-04    0.90      15.4  T
   6   -216.7748154 -0.171379E-07  0.200E-04    0.90      43.6  T
     SCC iter.                  ...        0 min,  0.099 sec
     gradient                   ...        0 min,  0.048 sec
 * total energy  :  -213.2243492 Eh     change       -0.1382694E-03 Eh
   gradient norm :     0.0030039 Eh/α   predicted    -0.8946612E-04 ( -35.30%)
   displ. norm   :     0.4249131 α      lambda       -0.1784755E-03
   maximum displ.:     0.2626429 α      in ANC's #1, #2, #4, ...

........................................................................
.............................. CYCLE   55 ..............................
........................................................................
   1   -216.7744489 -0.216774E+03  0.362E-02    0.90       0.0  T
   2   -216.7744501 -0.121899E-05  0.207E-02    0.90       1.0  T
   3   -216.7744482  0.187440E-05  0.403E-03    0.90       2.2  T
   4   -216.7744506 -0.235457E-05  0.127E-03    0.90       6.9  T
   5   -216.7744507 -0.842332E-07  0.669E-04    0.90      13.1  T
   6   -216.7744507 -0.188057E-07  0.259E-04    0.90      33.7  T
     SCC iter.                  ...        0 min,  0.099 sec
     gradient                   ...        0 min,  0.048 sec
 * total energy  :  -213.2245078 Eh     change       -0.1586066E-03 Eh
   gradient norm :     0.0027312 Eh/α   predicted    -0.1053516E-03 ( -33.58%)
   displ. norm   :     0.5063739 α      lambda       -0.2092569E-03
   maximum displ.:     0.3162142 α      in ANC's #1, #2, #4, ...

........................................................................
.............................. CYCLE   56 ..............................
........................................................................
   1   -216.7752052 -0.216775E+03  0.376E-02    0.90       0.0  T
   2   -216.7752063 -0.104662E-05  0.217E-02    0.90       1.0  T
   3   -216.7752036  0.271525E-05  0.453E-03    0.90       1.9  T
   4   -216.7752068 -0.321607E-05  0.119E-03    0.90       7.3  T
   5   -216.7752069 -0.640291E-07  0.678E-04    0.90      12.9  T
   6   -216.7752069 -0.239151E-07  0.242E-04    0.90      36.2  T
     SCC iter.                  ...        0 min,  0.103 sec
     gradient                   ...        0 min,  0.048 sec
 * total energy  :  -213.2246962 Eh     change       -0.1883437E-03 Eh
   gradient norm :     0.0036979 Eh/α   predicted    -0.1314585E-03 ( -30.20%)
   displ. norm   :     0.5765637 α      lambda       -0.2291137E-03
   maximum displ.:     0.3635535 α      in ANC's #1, #2, #4, ...

........................................................................
.............................. CYCLE   57 ..............................
........................................................................
   1   -216.7736996 -0.216774E+03  0.435E-02    0.90       0.0  T
   2   -216.7737011 -0.143413E-05  0.251E-02    0.90       1.0  T
   3   -216.7736983  0.275864E-05  0.471E-03    0.90       1.9  T
   4   -216.7737017 -0.336505E-05  0.136E-03    0.90       6.4  T
   5   -216.7737018 -0.789214E-07  0.785E-04    0.90      11.1  T
   6   -216.7737018 -0.357056E-07  0.276E-04    0.90      31.7  T
     SCC iter.                  ...        0 min,  0.101 sec
     gradient                   ...        0 min,  0.048 sec
 * total energy  :  -213.2249064 Eh     change       -0.2101799E-03 Eh
   gradient norm :     0.0036689 Eh/α   predicted    -0.1526403E-03 ( -27.38%)
   displ. norm   :     0.6033043 α      lambda       -0.2392091E-03
   maximum displ.:     0.3872217 α      in ANC's #1, #2, #4, ...

........................................................................
.............................. CYCLE   58 ..............................
........................................................................
   1   -216.7733808 -0.216773E+03  0.447E-02    0.90       0.0  T
   2   -216.7733823 -0.148818E-05  0.258E-02    0.91       1.0  T
   3   -216.7733791  0.317715E-05  0.490E-03    0.90       1.8  T
   4   -216.7733829 -0.383667E-05  0.135E-03    0.91       6.5  T
   5   -216.7733830 -0.759552E-07  0.792E-04    0.91      11.0  T
   6   -216.7733830 -0.375139E-07  0.276E-04    0.91      31.6  T
     SCC iter.                  ...        0 min,  0.104 sec
     gradient                   ...        0 min,  0.048 sec
 * total energy  :  -213.2251248 Eh     change       -0.2184950E-03 Eh
   gradient norm :     0.0034028 Eh/α   predicted    -0.1631404E-03 ( -25.33%)
   displ. norm   :     0.6220062 α      lambda       -0.2384679E-03
   maximum displ.:     0.4071157 α      in ANC's #1, #2, #4, ...

........................................................................
.............................. CYCLE   59 ..............................
........................................................................
   1   -216.7729032 -0.216773E+03  0.456E-02    0.91       0.0  T
   2   -216.7729046 -0.143997E-05  0.263E-02    0.91       1.0  T
   3   -216.7729017  0.294619E-05  0.484E-03    0.91       1.8  T
   4   -216.7729053 -0.359185E-05  0.133E-03    0.91       6.6  T
   5   -216.7729054 -0.623629E-07  0.790E-04    0.91      11.1  T
   6   -216.7729054 -0.403377E-07  0.266E-04    0.91      32.9  T
     SCC iter.                  ...        0 min,  0.103 sec
     gradient                   ...        0 min,  0.048 sec
 * total energy  :  -213.2253437 Eh     change       -0.2188712E-03 Eh
   gradient norm :     0.0029764 Eh/α   predicted    -0.1653672E-03 ( -24.45%)
   displ. norm   :     0.6107108 α      lambda       -0.2354233E-03
   maximum displ.:     0.4065455 α      in ANC's #1, #2, #4, ...

........................................................................
.............................. CYCLE   60 ..............................
........................................................................
   1   -216.7732182 -0.216773E+03  0.446E-02    0.91       0.0  T
   2   -216.7732195 -0.131041E-05  0.257E-02    0.91       1.0  T
   3   -216.7732170  0.243133E-05  0.456E-03    0.91       1.9  T
   4   -216.7732201 -0.303697E-05  0.123E-03    0.91       7.1  T
   5   -216.7732201 -0.369583E-07  0.746E-04    0.91      11.7  T
   6   -216.7732202 -0.390804E-07  0.244E-04    0.91      35.8  T
     SCC iter.                  ...        0 min,  0.101 sec
     gradient                   ...        0 min,  0.048 sec
 * total energy  :  -213.2255634 Eh     change       -0.2196427E-03 Eh
   gradient norm :     0.0026747 Eh/α   predicted    -0.1616173E-03 ( -26.42%)
   displ. norm   :     0.6285371 α      lambda       -0.2515901E-03
   maximum displ.:     0.4228710 α      in ANC's #1, #2, #4, ...

........................................................................
.............................. CYCLE   61 ..............................
........................................................................
   1   -216.7740318 -0.216774E+03  0.453E-02    0.92       0.0  T
   2   -216.7740330 -0.124843E-05  0.262E-02    0.92       1.0  T
   3   -216.7740307  0.227852E-05  0.461E-03    0.92       1.9  T
   4   -216.7740336 -0.287478E-05  0.118E-03    0.92       7.4  T
   5   -216.7740336 -0.203311E-07  0.723E-04    0.92      12.1  T
   6   -216.7740337 -0.424344E-07  0.227E-04    0.92      38.5  T
     SCC iter.                  ...        0 min,  0.102 sec
     gradient                   ...        0 min,  0.048 sec
 * total energy  :  -213.2258009 Eh     change       -0.2374979E-03 Eh
   gradient norm :     0.0024253 Eh/α   predicted    -0.1754953E-03 ( -26.11%)
   displ. norm   :     0.6619673 α      lambda       -0.2770025E-03
   maximum displ.:     0.4465198 α      in ANC's #1, #2, #18, ...

........................................................................
[...]
    25   6 C    3.975 --    26 C    1.541    24 C    1.272    93 H    0.969
    26   6 C    3.976 --    25 C    1.541    27 C    1.303    94 H    0.964
    27   6 C    3.968 --    26 C    1.303    28 C    1.242    31 C    1.191
    28   6 C    3.911 --    29 C    1.285    27 C    1.242    46 N    1.141
    29   6 C    3.931 --    28 C    1.285    35 C    1.244    30 N    1.169
    30   7 N    3.575 --    29 C    1.169    31 C    1.158    33 C    0.986
    31   6 C    3.950 --    32 C    1.400    27 C    1.191    30 N    1.158
    32   6 C    3.971 --    31 C    1.400    24 C    1.353    95 H    0.961
    33   6 C    3.965 --    34 C    1.005    30 N    0.986    96 H    0.969
                            97 H    0.963
    34   6 C    3.988 --    33 C    1.005    99 H    0.988    98 H    0.985
                           100 H    0.980
    35   6 C    3.952 --    45 C    1.276    29 C    1.244    36 C    1.181
    36   6 C    3.970 --    42 N    1.372    37 C    1.221    35 C    1.181
    37   6 C    3.969 --    38 N    1.370    36 C    1.221    43 C    1.181
    38   7 N    2.973 --    37 C    1.370    39 N    1.258    42 N    0.204
    39   7 N    3.715 --    42 N    1.259    38 N    1.258    40 C    0.986
    40   6 C    3.967 --    41 C    1.002    39 N    0.986   102 H    0.970
                           101 H    0.965
    41   6 C    3.986 --    40 C    1.002   105 H    0.987   104 H    0.985
                           103 H    0.984
    42   7 N    2.976 --    36 C    1.372    39 N    1.259    38 N    0.204
    43   6 C    3.951 --    44 C    1.277    53 C    1.244    37 C    1.181
    44   6 C    3.924 --    43 C    1.277    45 C    1.238    49 N    1.156
    45   6 C    3.924 --    35 C    1.276    44 C    1.238    46 N    1.157
    46   7 N    3.533 --    45 C    1.157    28 C    1.141    47 C    0.986
    47   6 C    3.970 --    48 C    1.008    46 N    0.986   106 H    0.967
                           107 H    0.958
    48   6 C    3.991 --    47 C    1.008   108 H    0.987   110 H    0.984
                           109 H    0.983
    49   7 N    3.529 --    44 C    1.156    52 C    1.139    50 C    0.984
    50   6 C    3.970 --    51 C    1.009    49 N    0.984   111 H    0.968
                           112 H    0.958
    51   6 C    3.991 --    50 C    1.009   115 H    0.987   114 H    0.984
                           113 H    0.982
    52   6 C    3.914 --    53 C    1.289    58 C    1.243    49 N    1.139
    53   6 C    3.931 --    52 C    1.289    43 C    1.244    54 N    1.162
    54   7 N    3.569 --    53 C    1.162    57 C    1.159    55 C    0.988
    55   6 C    3.966 --    56 C    1.006    54 N    0.988   117 H    0.969
                           116 H    0.963
    56   6 C    3.991 --    55 C    1.006   118 H    0.987   120 H    0.986
                           119 H    0.985
    57   6 C    3.950 --    62 C    1.411    58 C    1.183    54 N    1.159
    58   6 C    3.962 --    59 C    1.308    52 C    1.243    57 C    1.183
    59   6 C    3.977 --    60 C    1.534    58 C    1.308   121 H    0.965
    60   6 C    3.978 --    59 C    1.534    61 C    1.280   122 H    0.951
    61   6 C    3.967 --    62 C    1.339    60 C    1.280    63 C    1.191
    62   6 C    3.967 --    57 C    1.411    61 C    1.339   123 H    0.963
    63   6 C    3.946 --    64 C    1.592    61 C    1.191   124 H    0.946
    64   6 C    3.916 --    63 C    1.592    80 C    1.061    65 S    1.052
    65  16 S    2.512 --    66 C    1.089    64 C    1.052
    66   6 C    3.950 --    67 C    1.435    72 N    1.196    65 S    1.089
    67   6 C    3.943 --    66 C    1.435    70 C    1.111    68 C    1.098
    68   6 C    3.949 --    69 N    2.771    67 C    1.098
    69   7 N    2.985 --    68 C    2.771
    70   6 C    3.950 --    71 N    2.753    67 C    1.111
    71   7 N    2.980 --    70 C    2.753
    72   7 N    3.583 --    66 C    1.196    80 C    1.095    73 C    0.966
                            81 O    0.129
    73   6 C    3.952 --    74 C    0.993    72 N    0.966   126 H    0.958
                           125 H    0.943
    74   6 C    3.985 --    79 C    1.421    75 C    1.407    73 C    0.993
                            77 C    0.109
    75   6 C    3.990 --    76 C    1.449    74 C    1.407   127 H    0.968
                            78 C    0.113
    76   6 C    3.991 --    75 C    1.449    77 C    1.435   128 H    0.970
                            79 C    0.110
    77   6 C    3.992 --    78 C    1.444    76 C    1.435   129 H    0.971
                            74 C    0.109
    78   6 C    3.992 --    77 C    1.444    79 C    1.438   130 H    0.971
                            75 C    0.113
    79   6 C    3.993 --    78 C    1.438    74 C    1.421   131 H    0.969
                            76 C    0.110
    80   6 C    3.931 --    81 O    1.670    72 N    1.095    64 C    1.061
    81   8 O    2.014 --    80 C    1.670    72 N    0.129
    82   1 H    0.995 --     1 C    0.948
    83   1 H    0.996 --     6 C    0.964
    84   1 H    0.997 --     9 C    0.959
    85   1 H    0.997 --    17 C    0.960
    86   1 H    0.998 --    18 C    0.972
    87   1 H    0.999 --    19 C    0.972
    88   1 H    0.999 --    20 C    0.972
    89   1 H    0.999 --    21 C    0.972
    90   1 H    0.997 --    22 C    0.977
    91   1 H    0.998 --    22 C    0.978
    92   1 H    0.997 --    23 C    0.961
    93   1 H    0.998 --    25 C    0.969
    94   1 H    0.998 --    26 C    0.964
    95   1 H    0.996 --    32 C    0.961
    96   1 H    0.997 --    33 C    0.969
    97   1 H    0.993 --    33 C    0.963
    98   1 H    0.997 --    34 C    0.985
    99   1 H    0.998 --    34 C    0.988
   100   1 H    0.995 --    34 C    0.980
   101   1 H    0.993 --    40 C    0.965
   102   1 H    0.994 --    40 C    0.970
   103   1 H    0.996 --    41 C    0.984
   104   1 H    0.996 --    41 C    0.985
   105   1 H    0.997 --    41 C    0.987
   106   1 H    0.996 --    47 C    0.967
   107   1 H    0.996 --    47 C    0.958
   108   1 H    0.998 --    48 C    0.987
   109   1 H    0.997 --    48 C    0.983
   110   1 H    0.997 --    48 C    0.984
   111   1 H    0.996 --    50 C    0.968
   112   1 H    0.996 --    50 C    0.958
   113   1 H    0.997 --    51 C    0.982
   114   1 H    0.997 --    51 C    0.984
   115   1 H    0.998 --    51 C    0.987
   116   1 H    0.993 --    55 C    0.963
   117   1 H    0.997 --    55 C    0.969
   118   1 H    0.998 --    56 C    0.987
   119   1 H    0.997 --    56 C    0.985
   120   1 H    0.998 --    56 C    0.986
   121   1 H    0.998 --    59 C    0.965
   122   1 H    0.997 --    60 C    0.951
   123   1 H    0.998 --    62 C    0.963
   124   1 H    0.993 --    63 C    0.946
   125   1 H    0.991 --    73 C    0.943
   126   1 H    0.995 --    73 C    0.958
   127   1 H    0.998 --    75 C    0.968
   128   1 H    0.998 --    76 C    0.970
   129   1 H    0.998 --    77 C    0.971
   130   1 H    0.998 --    78 C    0.971
   131   1 H    1.000 --    79 C    0.969
 ---------------------------------------------------------------------------

Topologies differ in bond orders
Writing corrected topology to xtbtopo.mol

molecular dipole:
                 x           y           z       tot (Debye)
 q only:        3.533      -1.147      -1.091
   full:        3.942      -0.997      -1.001      10.644
molecular quadrupole (traceless):
                xx          xy          yy          xz          yz          zz
 q only:       67.245       6.660      30.738      -8.196    -113.664     -97.983
  q+dip:       66.438      10.863      26.872      -7.086    -123.924     -93.310
   full:       65.055      10.862      38.011      -7.674    -129.408    -103.066

           -------------------------------------------------
          |                Geometry Summary                 |
           -------------------------------------------------

      molecular mass/u    :     1075.2496427
   center of mass at/Å    :       -0.3209841      -0.3132813       0.0746048
  moments of inertia/u·Å² :        0.8656010E+04   0.9175872E+05   0.9319268E+05
rotational constants/cm⁻¹ :        0.1947506E-02   0.1837169E-03   0.1808901E-03

 * 133 selected distances

     #   Z          #   Z                                           value/Å
     1   6 C        2   6 C                                       1.3634937
     3   6 C        4   8 O                                       1.2144348
     5   6 C        6   6 C                                       1.3931341
     6   6 C        7   6 C                                       1.3737787
     7   6 C        8   6 C                                       1.4014779
     8   6 C        9   6 C                                       1.3744509
     5   6 C       10   6 C                                       1.4085525
     9   6 C       10   6 C                                       1.3978875
    11   6 C       12   6 C                                       1.3703141
    13   6 C       14   7 N                                       1.1485563
    15   6 C       16   7 N                                       1.1484069
     8   6 C       17   6 C                                       1.5081389
    17   6 C       18   6 C                                       1.5487787
    19   6 C       20   6 C                                       1.3262776
    18   6 C       22   6 C                                       1.5371027
    21   6 C       22   6 C                                       1.5370091
     7   6 C       23   6 C                                       1.5083253
    17   6 C       23   6 C                                       1.5611825
    21   6 C       23   6 C                                       1.5489773
     1   6 C       24   6 C                                       1.4311215
    24   6 C       25   6 C                                       1.4146382
    25   6 C       26   6 C                                       1.3696122
    26   6 C       27   6 C                                       1.4002373
    27   6 C       28   6 C                                       1.4103459
    28   6 C       29   6 C                                       1.4006373
    29   6 C       30   7 N                                       1.3607980
    27   6 C       31   6 C                                       1.4368331
    30   7 N       31   6 C                                       1.3751154
    24   6 C       32   6 C                                       1.3967765
    31   6 C       32   6 C                                       1.3785648
    30   7 N       33   6 C                                       1.4403829
    33   6 C       34   6 C                                       1.5277737
    29   6 C       35   6 C                                       1.4022040
    35   6 C       36   6 C                                       1.4085549
    36   6 C       37   6 C                                       1.4192745
    37   6 C       38   7 N                                       1.3363005
    38   7 N       39   7 N                                       1.3130100
    39   7 N       40   6 C                                       1.4336676
    40   6 C       41   6 C                                       1.5257202
    36   6 C       42   7 N                                       1.3354238
    39   7 N       42   7 N                                       1.3123571
    37   6 C       43   6 C                                       1.4086516
    43   6 C       44   6 C                                       1.4278404
    35   6 C       45   6 C                                       1.4278003
    44   6 C       45   6 C                                       1.4202050
    28   6 C       46   7 N                                       1.3757212
    45   6 C       46   7 N                                       1.3894293
    46   7 N       47   6 C                                       1.4458578
    47   6 C       48   6 C                                       1.5270509
    44   6 C       49   7 N                                       1.3903588
    49   7 N       50   6 C                                       1.4472863
    50   6 C       51   6 C                                       1.5267119
    49   7 N       52   6 C                                       1.3760732
    43   6 C       53   6 C                                       1.4018910
    52   6 C       53   6 C                                       1.3995179
    53   6 C       54   7 N                                       1.3624457
    54   7 N       55   6 C                                       1.4396079
    55   6 C       56   6 C                                       1.5276899
    54   7 N       57   6 C                                       1.3748423
    52   6 C       58   6 C                                       1.4097679
    57   6 C       58   6 C                                       1.4385614
    58   6 C       59   6 C                                       1.3988590
    59   6 C       60   6 C                                       1.3707564
    60   6 C       61   6 C                                       1.4124070
    57   6 C       62   6 C                                       1.3773218
    61   6 C       62   6 C                                       1.4020474
    61   6 C       63   6 C                                       1.4276704
    63   6 C       64   6 C                                       1.3549943
    64   6 C       65  16 S                                       1.7542811 (max)
    65  16 S       66   6 C                                       1.7508369
    66   6 C       67   6 C                                       1.3714984
    68   6 C       69   7 N                                       1.1474051
    70   6 C       71   7 N                                       1.1487075
    66   6 C       72   7 N                                       1.3573058
    72   7 N       73   6 C                                       1.4473845
    74   6 C       75   6 C                                       1.3887289
    75   6 C       76   6 C                                       1.3821963
    76   6 C       77   6 C                                       1.3849362
    77   6 C       78   6 C                                       1.3833644
    74   6 C       79   6 C                                       1.3877762
    78   6 C       79   6 C                                       1.3841850
    72   7 N       80   6 C                                       1.3899675
    80   6 C       81   8 O                                       1.2118184
     1   6 C       82   1 H                                       1.0845249
     6   6 C       83   1 H                                       1.0789165
     9   6 C       84   1 H                                       1.0773146
    17   6 C       85   1 H                                       1.0881706
    18   6 C       86   1 H                                       1.0866633
    19   6 C       87   1 H                                       1.0743224 (min)
    20   6 C       88   1 H                                       1.0743603
    21   6 C       89   1 H                                       1.0869694
    22   6 C       90   1 H                                       1.0890126
    22   6 C       91   1 H                                       1.0891795
    23   6 C       92   1 H                                       1.0883957
    25   6 C       93   1 H                                       1.0800314
    26   6 C       94   1 H                                       1.0802750
    32   6 C       95   1 H                                       1.0762068
    33   6 C       96   1 H                                       1.0942178
    33   6 C       97   1 H                                       1.0927710
    34   6 C       98   1 H                                       1.0867353
    34   6 C       99   1 H                                       1.0875714
    34   6 C      100   1 H                                       1.0872152
    40   6 C      101   1 H                                       1.0932018
    40   6 C      102   1 H                                       1.0913517
    41   6 C      103   1 H                                       1.0861822
    41   6 C      104   1 H                                       1.0871534
    41   6 C      105   1 H                                       1.0874118
    47   6 C      106   1 H                                       1.0907112
    47   6 C      107   1 H                                       1.0913911
    48   6 C      108   1 H                                       1.0876865
    48   6 C      109   1 H                                       1.0867898
    48   6 C      110   1 H                                       1.0869387
    50   6 C      111   1 H                                       1.0912547
    50   6 C      112   1 H                                       1.0922233
    51   6 C      113   1 H                                       1.0867765
    51   6 C      114   1 H                                       1.0870087
    51   6 C      115   1 H                                       1.0878363
    55   6 C      116   1 H                                       1.0923085
    55   6 C      117   1 H                                       1.0942205
    56   6 C      118   1 H                                       1.0870840
    56   6 C      119   1 H                                       1.0862837
    56   6 C      120   1 H                                       1.0875933
    59   6 C      121   1 H                                       1.0798015
    60   6 C      122   1 H                                       1.0782324
    62   6 C      123   1 H                                       1.0795855
    63   6 C      124   1 H                                       1.0856643
    73   6 C      125   1 H                                       1.0977927
    73   6 C      126   1 H                                       1.0937519
    75   6 C      127   1 H                                       1.0794013
    76   6 C      128   1 H                                       1.0793640
    77   6 C      129   1 H                                       1.0797184
    78   6 C      130   1 H                                       1.0800315
    79   6 C      131   1 H                                       1.0816139

 * 6 distinct bonds (by element types)

   Z      Z             #   av. dist./Å        max./Å        min./Å
   1 H    6 C          50     1.0859844     1.0977927     1.0743224
   6 C    6 C          55     1.4258837     1.5611825     1.3262776
   6 C    7 N          22     1.3486838     1.4473845     1.1474051
   7 N    7 N           2     1.3126836     1.3130100     1.3123571
   6 C    8 O           2     1.2131266     1.2144348     1.2118184
   6 C   16 S           2     1.7525590     1.7542811     1.7508369


optimized geometry written to: xtbopt.mol


           -------------------------------------------------
          | TOTAL ENERGY             -213.253216092872 Eh   |
          | GRADIENT NORM               0.000431255322 Eh/α |
          | HOMO-LUMO GAP               1.037434320685 eV   |
           -------------------------------------------------

------------------------------------------------------------------------
 * finished run on 2022/02/11 at 02:40:50.285     
------------------------------------------------------------------------
 total:
 * wall-time:     0 d,  0 h,  1 min, 10.014 sec
 *  cpu-time:     0 d,  0 h,  9 min, 19.984 sec
 * ratio c/w:     7.998 speedup
 SCF:
 * wall-time:     0 d,  0 h,  0 min,  0.310 sec
 *  cpu-time:     0 d,  0 h,  0 min,  2.472 sec
 * ratio c/w:     7.963 speedup
 ANC optimizer:
 * wall-time:     0 d,  0 h,  1 min,  9.640 sec
 *  cpu-time:     0 d,  0 h,  9 min, 17.096 sec
 * ratio c/w:     8.000 speedup

