      -----------------------------------------------------------      
     |                   =====================                   |     
     |                           x T B                           |     
     |                   =====================                   |     
     |                         S. Grimme                         |     
     |          Mulliken Center for Theoretical Chemistry        |     
     |                    University of Bonn                     |     
      -----------------------------------------------------------      

   * xtb version 6.4.1 (unknown) compiled by 'oda6@login1.crc.pitt.edu' on 2021-06-25

   xtb is free software: you can redistribute it and/or modify it under
   the terms of the GNU Lesser General Public License as published by
   the Free Software Foundation, either version 3 of the License, or
   (at your option) any later version.
   
   xtb is distributed in the hope that it will be useful,
   but WITHOUT ANY WARRANTY; without even the implied warranty of
   MERCHANTABILITY or FITNESS FOR A PARTICULAR PURPOSE.  See the
   GNU Lesser General Public License for more details.
   
   Cite this work as:
   * C. Bannwarth, E. Caldeweyher, S. Ehlert, A. Hansen, P. Pracht,
     J. Seibert, S. Spicher, S. Grimme, WIREs Comput. Mol. Sci., 2020, 11,
     e01493. DOI: 10.1002/wcms.1493
   
   for GFN2-xTB:
   * C. Bannwarth, S. Ehlert and S. Grimme., J. Chem. Theory Comput., 2019,
     15, 1652-1671. DOI: 10.1021/acs.jctc.8b01176
   for GFN1-xTB:
   * S. Grimme, C. Bannwarth, P. Shushkov, J. Chem. Theory Comput., 2017,
     13, 1989-2009. DOI: 10.1021/acs.jctc.7b00118
   for GFN0-xTB:
   * P. Pracht, E. Caldeweyher, S. Ehlert, S. Grimme, ChemRxiv, 2019, preprint.
     DOI: 10.26434/chemrxiv.8326202.v1
   for GFN-FF:
   * S. Spicher and S. Grimme, Angew. Chem. Int. Ed., 2020, 59, 15665-15673.
     DOI: 10.1002/anie.202004239
   
   for DFT-D4:
   * E. Caldeweyher, C. Bannwarth and S. Grimme, J. Chem. Phys., 2017,
     147, 034112. DOI: 10.1063/1.4993215
   * E. Caldeweyher, S. Ehlert, A. Hansen, H. Neugebauer, S. Spicher,
     C. Bannwarth and S. Grimme, J. Chem. Phys., 2019, 150, 154122.
     DOI: 10.1063/1.5090222
   * E. Caldeweyher, J.-M. Mewes, S. Ehlert and S. Grimme, Phys. Chem. Chem. Phys.
     2020, 22, 8499-8512. DOI: 10.1039/D0CP00502A
   
   for sTDA-xTB:
   * S. Grimme and C. Bannwarth, J. Chem. Phys., 2016, 145, 054103.
     DOI: 10.1063/1.4959605
   
   in the mass-spec context:
   * V. Asgeirsson, C. Bauer and S. Grimme, Chem. Sci., 2017, 8, 4879.
     DOI: 10.1039/c7sc00601b
   * J. Koopman and S. Grimme, ACS Omega 2019, 4, 12, 15120-15133.
     DOI: 10.1021/acsomega.9b02011
   
   for metadynamics refer to:
   * S. Grimme, J. Chem. Theory Comput., 2019, 155, 2847-2862
     DOI: 10.1021/acs.jctc.9b00143
   
   for SPH calculations refer to:
   * S. Spicher and S. Grimme, J. Chem. Theory Comput., 2021, 17, 1701-1714
     DOI: 10.1021/acs.jctc.0c01306
   
   with help from (in alphabetical order)
   P. Atkinson, C. Bannwarth, F. Bohle, G. Brandenburg, E. Caldeweyher
   M. Checinski, S. Dohm, S. Ehlert, S. Ehrlich, I. Gerasimov, J. Koopman
   C. Lavigne, S. Lehtola, F. März, M. Müller, F. Musil, H. Neugebauer
   J. Pisarek, C. Plett, P. Pracht, J. Seibert, P. Shushkov, S. Spicher
   M. Stahn, M. Steiner, T. Strunk, J. Stückrath, T. Rose, and J. Unsleber
   
 * started run on 2022/02/11 at 06:27:55.583     

           -------------------------------------------------
          |                Calculation Setup                |
           -------------------------------------------------

          program call               : /ihome/ghutchison/oda6/xtb/xtb-641/bin/xtb ../../FF_optimized/39_24_3.mol -opt
          hostname                   : smp-n28
          coordinate file            : ../../FF_optimized/39_24_3.mol
          omp threads                :                     8
          number of atoms            :                   110
          number of electrons        :                   364
          charge                     :                     0
          spin                       :                   0.0
          first test random number   :      0.39168139607316

   ID    Z sym.   atoms
    1    6 C      1-3, 5-13, 15, 17-28, 30-33, 37, 38, 40, 41, 43-47, 49, 50,
                  52, 53, 55, 56, 58-64, 66, 68-73, 75
    2    8 O      4, 65
    3    7 N      14, 16, 34, 36, 51, 54, 74, 76
    4   16 S      29, 35, 39, 42, 48, 57, 67
    5    1 H      77-110
########################################################################
[WARNING] Please study the warnings concerning your input carefully
-1- prog_main_parseArguments: the use of '-opt' is discouraged, please use '--opt' next time
########################################################################

           -------------------------------------------------
          |                 G F N 2 - x T B                 |
           -------------------------------------------------

        Reference                      10.1021/acs.jctc.8b01176
      * Hamiltonian:
        H0-scaling (s, p, d)           1.850000    2.230000    2.230000
        zeta-weighting                 0.500000
      * Dispersion:
        s8                             2.700000
        a1                             0.520000
        a2                             5.000000
        s9                             5.000000
      * Repulsion:
        kExp                           1.500000    1.000000
        rExp                           1.000000
      * Coulomb:
        alpha                          2.000000
        third order                    shell-resolved
        anisotropic                    true
        a3                             3.000000
        a5                             4.000000
        cn-shift                       1.200000
        cn-exp                         4.000000
        max-rad                        5.000000


          ...................................................
          :                      SETUP                      :
          :.................................................:
          :  # basis functions                 380          :
          :  # atomic orbitals                 373          :
          :  # shells                          193          :
          :  # electrons                       364          :
          :  max. iterations                   250          :
          :  Hamiltonian                  GFN2-xTB          :
          :  restarted?                      false          :
          :  GBSA solvation                  false          :
          :  PC potential                    false          :
          :  electronic temp.          300.0000000     K    :
          :  accuracy                    1.0000000          :
          :  -> integral cutoff          0.2500000E+02      :
          :  -> integral neglect         0.1000000E-07      :
          :  -> SCF convergence          0.1000000E-05 Eh   :
          :  -> wf. convergence          0.1000000E-03 e    :
          :  Broyden damping             0.4000000          :
          ...................................................

 iter      E             dE          RMSdq      gap      omega  full diag
   1   -200.3335347 -0.200334E+03  0.482E+00    1.36       0.0  T
   2   -200.4991180 -0.165583E+00  0.301E+00    0.81       1.0  T
   3   -200.4126384  0.864795E-01  0.202E+00    0.76       1.0  T
   4   -200.6555936 -0.242955E+00  0.770E-01    0.86       1.0  T
   5   -200.7032623 -0.476687E-01  0.232E-01    0.61       1.0  T
   6   -200.7065137 -0.325137E-02  0.116E-01    0.74       1.0  T
   7   -200.7072028 -0.689096E-03  0.421E-02    0.73       1.0  T
   8   -200.7072813 -0.785103E-04  0.209E-02    0.73       1.0  T
   9   -200.7073019 -0.205809E-04  0.104E-02    0.73       1.0  T
  10   -200.7073070 -0.518748E-05  0.501E-03    0.73       1.9  T
  11   -200.7073080 -0.971852E-06  0.232E-03    0.73       4.1  T
  12   -200.7073083 -0.249039E-06  0.133E-03    0.73       7.2  T
  13   -200.7073083 -0.631337E-07  0.628E-04    0.73      15.2  T
  14   -200.7073083 -0.119717E-07  0.287E-04    0.73      33.2  T

   *** convergence criteria satisfied after 14 iterations ***

         #    Occupation            Energy/Eh            Energy/eV
      -------------------------------------------------------------
         1        2.0000           -0.7649731             -20.8160
       ...           ...                  ...                  ...
       176        2.0000           -0.4051396             -11.0244
       177        2.0000           -0.4042328             -10.9997
       178        2.0000           -0.3907812             -10.6337
       179        2.0000           -0.3847488             -10.4695
       180        2.0000           -0.3759821             -10.2310
       181        2.0000           -0.3693797             -10.0513
       182        2.0000           -0.3609949              -9.8232 (HOMO)
       183        0.0000           -0.3342850              -9.0964 (LUMO)
       184                         -0.3303669              -8.9897
       185                         -0.3242907              -8.8244
       186                         -0.3217710              -8.7558
       187                         -0.3001780              -8.1683
       ...                                ...                  ...
       373                          1.0735403              29.2125
      -------------------------------------------------------------
                  HL-Gap            0.0267099 Eh            0.7268 eV
             Fermi-level           -0.3476475 Eh           -9.4600 eV

 SCC (total)                   0 d,  0 h,  0 min,  0.281 sec
 SCC setup                      ...        0 min,  0.001 sec (  0.252%)
 Dispersion                     ...        0 min,  0.004 sec (  1.250%)
 classical contributions        ...        0 min,  0.000 sec (  0.043%)
 integral evaluation            ...        0 min,  0.015 sec (  5.342%)
 iterations                     ...        0 min,  0.225 sec ( 80.105%)
 molecular gradient             ...        0 min,  0.035 sec ( 12.596%)
 printout                       ...        0 min,  0.001 sec (  0.385%)

         :::::::::::::::::::::::::::::::::::::::::::::::::::::
         ::                     SUMMARY                     ::
         :::::::::::::::::::::::::::::::::::::::::::::::::::::
         :: total energy            -197.683839588182 Eh    ::
         :: gradient norm              0.292945194851 Eh/a0 ::
         :: HOMO-LUMO gap              0.726812432046 eV    ::
         ::.................................................::
         :: SCC energy              -200.707308338121 Eh    ::
         :: -> isotropic ES            0.114412476148 Eh    ::
         :: -> anisotropic ES          0.013813571387 Eh    ::
         :: -> anisotropic XC          0.133834379882 Eh    ::
         :: -> dispersion             -0.182798646868 Eh    ::
         :: repulsion energy           3.022209501077 Eh    ::
         :: add. restraining           0.000000000000 Eh    ::
         :: total charge              -0.000000000001 e     ::
         :::::::::::::::::::::::::::::::::::::::::::::::::::::

      ----------------------------------------------------------- 
     |                   =====================                   |
     |                        A N C O P T                        |
     |                   =====================                   |
     |               Approximate Normal Coordinate               |
     |                Rational Function Optimizer                |
      ----------------------------------------------------------- 

          ...................................................
          :                      SETUP                      :
          :.................................................:
          :   optimization level            normal          :
          :   max. optcycles                   330          :
          :   ANC micro-cycles                  20          :
          :   degrees of freedom               324          :
          :.................................................:
          :   RF solver                   davidson          :
          :   write xtbopt.log                true          :
          :   linear?                        false          :
          :   energy convergence         0.5000000E-05 Eh   :
          :   grad. convergence          0.1000000E-02 Eh/α :
          :   maximium RF displ.         1.0000000          :
          :   Hlow (freq-cutoff)         0.1000000E-01      :
          :   Hmax (freq-cutoff)         5.0000000          :
          :   S6 in model hess.         20.0000000          :
          ...................................................

generating ANC from model Hessian ...
Using Lindh-Hessian (1995)
 Shifting diagonal of input Hessian by   9.997363003516729E-003
 Lowest  eigenvalues of input Hessian
    0.000000    0.000000    0.000000    0.000000    0.000000    0.000000
    0.010000    0.010011    0.010022    0.010063    0.010097    0.010121
    0.010155    0.010236    0.010259    0.010359    0.010501    0.010581
 Highest eigenvalues
    2.281664    2.299364    2.501071    2.504736    2.559486    2.560764
 

........................................................................
.............................. CYCLE    1 ..............................
........................................................................
   1   -200.7073083 -0.200707E+03  0.144E-04    0.73       0.0  T
   2   -200.7073083  0.837019E-10  0.120E-04    0.73      79.5  T
   3   -200.7073083 -0.126178E-08  0.549E-05    0.73     173.7  T
     SCC iter.                  ...        0 min,  0.050 sec
     gradient                   ...        0 min,  0.035 sec
 * total energy  :  -197.6838396 Eh     change       -0.4766434E-08 Eh
   gradient norm :     0.2929455 Eh/α   predicted     0.0000000E+00 (-100.00%)
   displ. norm   :     0.4694778 α      lambda       -0.9789378E-01
   maximum displ.:     0.1081878 α      in ANC's #211, #196, #180, ...

........................................................................
.............................. CYCLE    2 ..............................
........................................................................
   1   -200.8222808 -0.200822E+03  0.345E-01    0.74       0.0  T
   2   -200.8234059 -0.112508E-02  0.201E-01    0.72       1.0  T
   3   -200.8229349  0.471007E-03  0.109E-01    0.74       1.0  T
   4   -200.8236103 -0.675406E-03  0.478E-02    0.71       1.0  T
   5   -200.8237541 -0.143846E-03  0.205E-02    0.72       1.0  T
   6   -200.8237758 -0.216672E-04  0.906E-03    0.72       1.1  T
   7   -200.8237804 -0.465934E-05  0.425E-03    0.72       2.2  T
   8   -200.8237815 -0.109035E-05  0.198E-03    0.72       4.8  T
   9   -200.8237816 -0.738343E-07  0.102E-03    0.72       9.3  T
  10   -200.8237817 -0.555018E-07  0.376E-04    0.72      25.4  T
  11   -200.8237817 -0.883969E-08  0.159E-04    0.72      59.8  T
     SCC iter.                  ...        0 min,  0.173 sec
     gradient                   ...        0 min,  0.034 sec
 * total energy  :  -197.7538698 Eh     change       -0.7003023E-01 Eh
   gradient norm :     0.1318977 Eh/α   predicted    -0.5978152E-01 ( -14.63%)
   displ. norm   :     0.4648172 α      lambda       -0.3681986E-01
   maximum displ.:     0.1240560 α      in ANC's #63, #62, #90, ...

........................................................................
.............................. CYCLE    3 ..............................
........................................................................
   1   -200.8693615 -0.200869E+03  0.271E-01    0.71       0.0  T
   2   -200.8699820 -0.620517E-03  0.155E-01    0.72       1.0  T
   3   -200.8697106  0.271360E-03  0.827E-02    0.73       1.0  T
   4   -200.8701105 -0.399847E-03  0.318E-02    0.71       1.0  T
   5   -200.8701641 -0.536734E-04  0.140E-02    0.72       1.0  T
   6   -200.8701761 -0.119910E-04  0.614E-03    0.72       1.6  T
   7   -200.8701778 -0.165065E-05  0.311E-03    0.72       3.1  T
   8   -200.8701783 -0.553715E-06  0.136E-03    0.72       7.0  T
   9   -200.8701784 -0.340459E-07  0.747E-04    0.72      12.8  T
  10   -200.8701784 -0.348136E-07  0.263E-04    0.72      36.3  T
     SCC iter.                  ...        0 min,  0.155 sec
     gradient                   ...        0 min,  0.034 sec
 * total energy  :  -197.7764713 Eh     change       -0.2260144E-01 Eh
   gradient norm :     0.0380157 Eh/α   predicted    -0.2238750E-01 (  -0.95%)
   displ. norm   :     0.4879230 α      lambda       -0.9917647E-02
   maximum displ.:     0.1391489 α      in ANC's #62, #55, #65, ...

........................................................................
.............................. CYCLE    4 ..............................
........................................................................
   1   -200.8722613 -0.200872E+03  0.254E-01    0.74       0.0  T
   2   -200.8723686 -0.107265E-03  0.144E-01    0.75       1.0  T
   3   -200.8720966  0.271975E-03  0.537E-02    0.75       1.0  T
   4   -200.8724243 -0.327702E-03  0.115E-02    0.75       1.0  T
   5   -200.8724320 -0.774337E-05  0.679E-03    0.75       1.4  T
   6   -200.8724344 -0.233505E-05  0.292E-03    0.75       3.3  T
   7   -200.8724349 -0.529515E-06  0.121E-03    0.75       7.9  T
   8   -200.8724350 -0.525642E-07  0.570E-04    0.75      16.7  T
   9   -200.8724350 -0.104386E-07  0.315E-04    0.75      30.3  T
     SCC iter.                  ...        0 min,  0.146 sec
     gradient                   ...        0 min,  0.035 sec
 * total energy  :  -197.7807668 Eh     change       -0.4295544E-02 Eh
   gradient norm :     0.0308639 Eh/α   predicted    -0.6139396E-02 (  42.92%)
   displ. norm   :     0.5849612 α      lambda       -0.9810019E-02
   maximum displ.:     0.1711054 α      in ANC's #27, #63, #51, ...

........................................................................
.............................. CYCLE    5 ..............................
........................................................................
   1   -200.8710500 -0.200871E+03  0.373E-01    0.77       0.0  T
   2   -200.8712783 -0.228315E-03  0.209E-01    0.79       1.0  T
   3   -200.8707038  0.574424E-03  0.742E-02    0.78       1.0  T
   4   -200.8714044 -0.700557E-03  0.146E-02    0.79       1.0  T
   5   -200.8714179 -0.135336E-04  0.823E-03    0.79       1.2  T
   6   -200.8714210 -0.309788E-05  0.356E-03    0.79       2.7  T
   7   -200.8714219 -0.816007E-06  0.126E-03    0.79       7.6  T
   8   -200.8714219 -0.572138E-07  0.689E-04    0.79      13.8  T
   9   -200.8714219 -0.109039E-07  0.385E-04    0.79      24.8  T
     SCC iter.                  ...        0 min,  0.141 sec
     gradient                   ...        0 min,  0.035 sec
 * total energy  :  -197.7837814 Eh     change       -0.3014638E-02 Eh
   gradient norm :     0.0331178 Eh/α   predicted    -0.6583426E-02 ( 118.38%)
   displ. norm   :     0.2990051 α      lambda       -0.3898679E-02
   maximum displ.:     0.0978143 α      in ANC's #30, #42, #34, ...

........................................................................
.............................. CYCLE    6 ..............................
........................................................................
   1   -200.8719237 -0.200872E+03  0.205E-01    0.80       0.0  T
   2   -200.8719814 -0.577236E-04  0.115E-01    0.82       1.0  T
   3   -200.8715757  0.405718E-03  0.590E-02    0.79       1.0  T
   4   -200.8720393 -0.463622E-03  0.723E-03    0.82       1.3  T
   5   -200.8720420 -0.274625E-05  0.389E-03    0.82       2.5  T
   6   -200.8720428 -0.786941E-06  0.164E-03    0.82       5.8  T
   7   -200.8720430 -0.156099E-06  0.676E-04    0.82      14.1  T
   8   -200.8720430 -0.227416E-07  0.321E-04    0.82      29.7  T
     SCC iter.                  ...        0 min,  0.125 sec
     gradient                   ...        0 min,  0.035 sec
 * total energy  :  -197.7857002 Eh     change       -0.1918743E-02 Eh
   gradient norm :     0.0317242 Eh/α   predicted    -0.2123618E-02 (  10.68%)
   displ. norm   :     0.4563825 α      lambda       -0.4455256E-02
   maximum displ.:     0.1559729 α      in ANC's #25, #37, #28, ...

........................................................................
.............................. CYCLE    7 ..............................
........................................................................
   1   -200.8702699 -0.200870E+03  0.285E-01    0.82       0.0  T
   2   -200.8703811 -0.111229E-03  0.160E-01    0.84       1.0  T
   3   -200.8698563  0.524776E-03  0.688E-02    0.81       1.0  T
   4   -200.8704656 -0.609255E-03  0.102E-02    0.84       1.0  T
   5   -200.8704703 -0.473302E-05  0.574E-03    0.84       1.7  T
   6   -200.8704721 -0.182137E-05  0.243E-03    0.84       3.9  T
   7   -200.8704725 -0.362850E-06  0.916E-04    0.84      10.4  T
   8   -200.8704725 -0.243564E-07  0.462E-04    0.84      20.7  T
     SCC iter.                  ...        0 min,  0.124 sec
     gradient                   ...        0 min,  0.035 sec
 * total energy  :  -197.7863061 Eh     change       -0.6059532E-03 Eh
   gradient norm :     0.0304466 Eh/α   predicted    -0.2691608E-02 ( 344.19%)
   displ. norm   :     0.3061607 α      lambda       -0.3532353E-02
   maximum displ.:     0.0909723 α      in ANC's #10, #17, #51, ...

........................................................................
.............................. CYCLE    8 ..............................
........................................................................
   1   -200.8707321 -0.200871E+03  0.206E-01    0.84       0.0  T
   2   -200.8707976 -0.654852E-04  0.115E-01    0.85       1.0  T
   3   -200.8706466  0.151001E-03  0.377E-02    0.84       1.0  T
   4   -200.8708330 -0.186388E-03  0.695E-03    0.85       1.4  T
   5   -200.8708355 -0.251629E-05  0.378E-03    0.85       2.5  T
   6   -200.8708361 -0.657225E-06  0.165E-03    0.85       5.8  T
   7   -200.8708363 -0.189813E-06  0.546E-04    0.85      17.4  T
   8   -200.8708363 -0.100721E-07  0.281E-04    0.85      33.9  T
     SCC iter.                  ...        0 min,  0.126 sec
     gradient                   ...        0 min,  0.035 sec
 * total energy  :  -197.7877343 Eh     change       -0.1428114E-02 Eh
   gradient norm :     0.0225969 Eh/α   predicted    -0.1931730E-02 (  35.26%)
   displ. norm   :     0.3959298 α      lambda       -0.3531311E-02
   maximum displ.:     0.1275621 α      in ANC's #35, #25, #34, ...

........................................................................
.............................. CYCLE    9 ..............................
........................................................................
   1   -200.8601152 -0.200860E+03  0.288E-01    0.84       0.0  T
   2   -200.8602207 -0.105514E-03  0.160E-01    0.86       1.0  T
   3   -200.8595727  0.648037E-03  0.732E-02    0.85       1.0  T
   4   -200.8603117 -0.739027E-03  0.972E-03    0.87       1.0  T
   5   -200.8603162 -0.447048E-05  0.554E-03    0.87       1.7  T
   6   -200.8603175 -0.136785E-05  0.229E-03    0.86       4.2  T
   7   -200.8603178 -0.310060E-06  0.854E-04    0.86      11.2  T
   8   -200.8603179 -0.283951E-07  0.407E-04    0.86      23.5  T
     SCC iter.                  ...        0 min,  0.126 sec
     gradient                   ...        0 min,  0.035 sec
 * total energy  :  -197.7879758 Eh     change       -0.2415648E-03 Eh
   gradient norm :     0.0332573 Eh/α   predicted    -0.2042440E-02 ( 745.50%)
   displ. norm   :     0.2594350 α      lambda       -0.2934793E-02
   maximum displ.:     0.0994398 α      in ANC's #37, #28, #25, ...

........................................................................
.............................. CYCLE   10 ..............................
........................................................................
   1   -200.8676152 -0.200868E+03  0.187E-01    0.86       0.0  T
   2   -200.8676644 -0.491504E-04  0.104E-01    0.88       1.0  T
   3   -200.8675294  0.134987E-03  0.372E-02    0.86       1.0  T
   4   -200.8676928 -0.163406E-03  0.536E-03    0.88       1.8  T
   5   -200.8676939 -0.111975E-05  0.317E-03    0.88       3.0  T
   6   -200.8676945 -0.595312E-06  0.128E-03    0.88       7.5  T
   7   -200.8676946 -0.943774E-07  0.501E-04    0.88      19.0  T
   8   -200.8676946 -0.134739E-07  0.212E-04    0.88      45.0  T
     SCC iter.                  ...        0 min,  0.125 sec
     gradient                   ...        0 min,  0.034 sec
 * total energy  :  -197.7894623 Eh     change       -0.1486468E-02 Eh
   gradient norm :     0.0179991 Eh/α   predicted    -0.1566161E-02 (   5.36%)
   displ. norm   :     0.3706783 α      lambda       -0.1723259E-02
   maximum displ.:     0.1507968 α      in ANC's #24, #13, #25, ...

........................................................................
.............................. CYCLE   11 ..............................
........................................................................
   1   -200.8686098 -0.200869E+03  0.198E-01    0.88       0.0  T
   2   -200.8686624 -0.526311E-04  0.110E-01    0.90       1.0  T
   3   -200.8684418  0.220595E-03  0.437E-02    0.88       1.0  T
   4   -200.8686979 -0.256071E-03  0.725E-03    0.90       1.3  T
   5   -200.8687011 -0.316857E-05  0.377E-03    0.90       2.5  T
   6   -200.8687017 -0.681108E-06  0.168E-03    0.90       5.7  T
   7   -200.8687019 -0.179283E-06  0.607E-04    0.90      15.7  T
   8   -200.8687019 -0.126920E-07  0.307E-04    0.90      31.0  T
     SCC iter.                  ...        0 min,  0.124 sec
     gradient                   ...        0 min,  0.034 sec
 * total energy  :  -197.7898428 Eh     change       -0.3804785E-03 Eh
   gradient norm :     0.0198770 Eh/α   predicted    -0.9800210E-03 ( 157.58%)
   displ. norm   :     0.2933480 α      lambda       -0.1183439E-02
   maximum displ.:     0.0987721 α      in ANC's #25, #28, #13, ...

........................................................................
.............................. CYCLE   12 ..............................
........................................................................
   1   -200.8662502 -0.200866E+03  0.938E-02    0.89       0.0  T
   2   -200.8662633 -0.131321E-04  0.534E-02    0.91       1.0  T
   3   -200.8661289  0.134423E-03  0.346E-02    0.89       1.0  T
   4   -200.8662837 -0.154794E-03  0.545E-03    0.91       1.8  T
   5   -200.8662858 -0.204446E-05  0.263E-03    0.91       3.6  T
   6   -200.8662861 -0.316295E-06  0.120E-03    0.91       7.9  T
   7   -200.8662862 -0.100558E-06  0.444E-04    0.91      21.5  T
   8   -200.8662862 -0.632255E-08  0.240E-04    0.91      39.8  T
     SCC iter.                  ...        0 min,  0.126 sec
     gradient                   ...        0 min,  0.034 sec
 * total energy  :  -197.7907371 Eh     change       -0.8943705E-03 Eh
   gradient norm :     0.0128488 Eh/α   predicted    -0.6426331E-03 ( -28.15%)
   displ. norm   :     0.4688681 α      lambda       -0.1071691E-02
   maximum displ.:     0.1446756 α      in ANC's #13, #3, #17, ...

........................................................................
.............................. CYCLE   13 ..............................
........................................................................
   1   -200.8663827 -0.200866E+03  0.104E-01    0.90       0.0  T
   2   -200.8664043 -0.216236E-04  0.605E-02    0.93       1.0  T
   3   -200.8662134  0.190905E-03  0.431E-02    0.91       1.0  T
   4   -200.8664405 -0.227124E-03  0.791E-03    0.93       1.2  T
   5   -200.8664452 -0.465992E-05  0.357E-03    0.93       2.7  T
   6   -200.8664459 -0.674964E-06  0.157E-03    0.93       6.1  T
   7   -200.8664460 -0.168729E-06  0.613E-04    0.93      15.6  T
   8   -200.8664460 -0.114165E-07  0.349E-04    0.93      27.4  T
     SCC iter.                  ...        0 min,  0.125 sec
     gradient                   ...        0 min,  0.034 sec
 * total energy  :  -197.7914830 Eh     change       -0.7458299E-03 Eh
   gradient norm :     0.0091072 Eh/α   predicted    -0.6536543E-03 ( -12.36%)
   displ. norm   :     0.5277523 α      lambda       -0.7215400E-03
   maximum displ.:     0.1622933 α      in ANC's #13, #3, #17, ...

........................................................................
.............................. CYCLE   14 ..............................
........................................................................
   1   -200.8641480 -0.200864E+03  0.101E-01    0.92       0.0  T
   2   -200.8641670 -0.190721E-04  0.597E-02    0.96       1.0  T
   3   -200.8639736  0.193468E-03  0.444E-02    0.93       1.0  T
   4   -200.8642106 -0.237017E-03  0.855E-03    0.95       1.1  T
   5   -200.8642166 -0.598691E-05  0.353E-03    0.95       2.7  T
   6   -200.8642173 -0.758764E-06  0.153E-03    0.95       6.2  T
   7   -200.8642175 -0.159282E-06  0.588E-04    0.95      16.2  T
   8   -200.8642175 -0.115128E-07  0.332E-04    0.95      28.8  T
     SCC iter.                  ...        0 min,  0.126 sec
     gradient                   ...        0 min,  0.034 sec
 * total energy  :  -197.7920422 Eh     change       -0.5591885E-03 Eh
   gradient norm :     0.0096634 Eh/α   predicted    -0.4612562E-03 ( -17.51%)
   displ. norm   :     0.6023947 α      lambda       -0.8459088E-03
   maximum displ.:     0.2067314 α      in ANC's #3, #13, #2, ...

........................................................................
.............................. CYCLE   15 ..............................
........................................................................
   1   -200.8697809 -0.200870E+03  0.986E-02    0.94       0.0  T
   2   -200.8698000 -0.190924E-04  0.575E-02    0.97       1.0  T
   3   -200.8696389  0.161050E-03  0.391E-02    0.95       1.0  T
   4   -200.8698300 -0.191053E-03  0.744E-03    0.97       1.3  T
   5   -200.8698341 -0.411203E-05  0.347E-03    0.97       2.7  T
   6   -200.8698348 -0.710488E-06  0.150E-03    0.97       6.3  T
   7   -200.8698349 -0.140145E-06  0.647E-04    0.97      14.7  T
   8   -200.8698349 -0.140511E-07  0.379E-04    0.97      25.2  T
     SCC iter.                  ...        0 min,  0.127 sec
     gradient                   ...        0 min,  0.034 sec
 * total energy  :  -197.7926765 Eh     change       -0.6343406E-03 Eh
   gradient norm :     0.0095103 Eh/α   predicted    -0.5764401E-03 (  -9.13%)
   displ. norm   :     0.6258082 α      lambda       -0.7914220E-03
   maximum displ.:     0.2309036 α      in ANC's #3, #13, #5, ...

........................................................................
.............................. CYCLE   16 ..............................
........................................................................
   1   -200.8715105 -0.200872E+03  0.101E-01    0.96       0.0  T
   2   -200.8715285 -0.179856E-04  0.586E-02    0.99       1.0  T
   3   -200.8713711  0.157335E-03  0.377E-02    0.96       1.0  T
   4   -200.8715539 -0.182765E-03  0.698E-03    0.99       1.4  T
   5   -200.8715576 -0.373484E-05  0.323E-03    0.98       3.0  T
   6   -200.8715582 -0.613317E-06  0.138E-03    0.98       6.9  T
   7   -200.8715584 -0.105152E-06  0.587E-04    0.98      16.2  T
   8   -200.8715584 -0.111668E-07  0.345E-04    0.98      27.6  T
     SCC iter.                  ...        0 min,  0.127 sec
     gradient                   ...        0 min,  0.035 sec
 * total energy  :  -197.7933125 Eh     change       -0.6359738E-03 Eh
   gradient norm :     0.0075913 Eh/α   predicted    -0.5506850E-03 ( -13.41%)
   displ. norm   :     0.6585979 α      lambda       -0.7720949E-03
   maximum displ.:     0.2527764 α      in ANC's #3, #5, #2, ...

........................................................................
.............................. CYCLE   17 ..............................
........................................................................
   1   -200.8720250 -0.200872E+03  0.962E-02    0.98       0.0  T
   2   -200.8720422 -0.172078E-04  0.553E-02    1.00       1.0  T
   3   -200.8719463  0.959275E-04  0.292E-02    0.98       1.0  T
   4   -200.8720559 -0.109692E-03  0.597E-03    1.00       1.6  T
   5   -200.8720586 -0.265708E-05  0.283E-03    0.99       3.4  T
   6   -200.8720590 -0.414990E-06  0.130E-03    0.99       7.3  T
   7   -200.8720591 -0.896397E-07  0.478E-04    0.99      20.0  T
   8   -200.8720591 -0.658801E-08  0.286E-04    0.99      33.3  T
     SCC iter.                  ...        0 min,  0.130 sec
     gradient                   ...        0 min,  0.035 sec
 * total energy  :  -197.7939625 Eh     change       -0.6500442E-03 Eh
   gradient norm :     0.0066795 Eh/α   predicted    -0.5535032E-03 ( -14.85%)
   displ. norm   :     0.7125666 α      lambda       -0.8165261E-03
   maximum displ.:     0.2898875 α      in ANC's #3, #9, #5, ...

........................................................................
.............................. CYCLE   18 ..............................
........................................................................
   1   -200.8763570 -0.200876E+03  0.102E-01    0.99       0.0  T
   2   -200.8763740 -0.169980E-04  0.577E-02    1.00       1.0  T
   3   -200.8763277  0.463262E-04  0.222E-02    0.99       1.0  T
   4   -200.8763821 -0.544271E-04  0.519E-03    1.00       1.8  T
   5   -200.8763839 -0.181325E-05  0.258E-03    1.00       3.7  T
   6   -200.8763842 -0.311455E-06  0.134E-03    1.00       7.1  T
   7   -200.8763843 -0.127649E-06  0.473E-04    1.00      20.2  T
   8   -200.8763843 -0.904140E-08  0.227E-04    1.00      42.0  T
     SCC iter.                  ...        0 min,  0.122 sec
     gradient                   ...        0 min,  0.034 sec
 * total energy  :  -197.7946474 Eh     change       -0.6848625E-03 Eh
   gradient norm :     0.0096506 Eh/α   predicted    -0.6155590E-03 ( -10.12%)
   displ. norm   :     0.7739281 α      lambda       -0.8925221E-03
   maximum displ.:     0.3237108 α      in ANC's #3, #9, #5, ...

........................................................................
.............................. CYCLE   19 ..............................
........................................................................
   1   -200.8704036 -0.200870E+03  0.112E-01    0.99       0.0  T
   2   -200.8704247 -0.210627E-04  0.636E-02    1.01       1.0  T
   3   -200.8703449  0.797526E-04  0.282E-02    0.99       1.0  T
   4   -200.8704377 -0.927975E-04  0.590E-03    1.01       1.6  T
   5   -200.8704401 -0.231639E-05  0.314E-03    1.00       3.0  T
   6   -200.8704405 -0.485509E-06  0.147E-03    1.00       6.5  T
   7   -200.8704407 -0.118909E-06  0.531E-04    1.00      17.9  T
   8   -200.8704407 -0.112739E-07  0.267E-04    1.00      35.7  T
     SCC iter.                  ...        0 min,  0.129 sec
     gradient                   ...        0 min,  0.035 sec
 * total energy  :  -197.7953750 Eh     change       -0.7276408E-03 Eh
   gradient norm :     0.0095599 Eh/α   predicted    -0.7135618E-03 (  -1.93%)
   displ. norm   :     0.7174627 α      lambda       -0.9169483E-03
   maximum displ.:     0.3165565 α      in ANC's #3, #9, #5, ...

........................................................................
.............................. CYCLE   20 ..............................
........................................................................
   1   -200.8707151 -0.200871E+03  0.106E-01    1.00       0.0  T
   2   -200.8707316 -0.164823E-04  0.597E-02    1.00       1.0  T
   3   -200.8706867  0.448926E-04  0.217E-02    1.00       1.0  T
   4   -200.8707386 -0.519675E-04  0.550E-03    1.00       1.7  T
   5   -200.8707408 -0.214572E-05  0.270E-03    1.00       3.5  T
   6   -200.8707412 -0.403113E-06  0.145E-03    1.00       6.6  T
   7   -200.8707414 -0.179278E-06  0.461E-04    1.00      20.7  T
   8   -200.8707414 -0.668962E-08  0.238E-04    1.00      40.1  T
     SCC iter.                  ...        0 min,  0.125 sec
     gradient                   ...        0 min,  0.034 sec
 * total energy  :  -197.7961432 Eh     change       -0.7682295E-03 Eh
   gradient norm :     0.0112060 Eh/α   predicted    -0.6944810E-03 (  -9.60%)
   displ. norm   :     0.7597399 α      lambda       -0.9537341E-03
   maximum displ.:     0.3515206 α      in ANC's #3, #9, #5, ...
 * RMSD in coord.:     0.6942021 α      energy gain  -0.1123037E+00 Eh

generating ANC from model Hessian ...
Using Lindh-Hessian (1995)
 Shifting diagonal of input Hessian by   1.006734110059120E-002
 Lowest  eigenvalues of input Hessian
    0.010000    0.000000    0.000000    0.000000    0.000000    0.000000
    0.000000    0.010078    0.010091    0.010105    0.010143    0.010201
    0.010232    0.010278    0.010433    0.010518    0.010581    0.010647
 Highest eigenvalues
    2.276359    2.276675    2.603106    2.610460    2.658753    2.662065
 

........................................................................
.............................. CYCLE   21 ..............................
........................................................................
   1   -200.8729459 -0.200873E+03  0.954E-02    1.00       0.0  T
   2   -200.8729609 -0.149798E-04  0.536E-02    1.00       1.0  T
   3   -200.8729092  0.516849E-04  0.233E-02    1.00       1.0  T
   4   -200.8729682 -0.590537E-04  0.586E-03    1.00       1.6  T
   5   -200.8729706 -0.239792E-05  0.292E-03    1.00       3.3  T
   6   -200.8729712 -0.543463E-06  0.150E-03    1.00       6.3  T
   7   -200.8729714 -0.196525E-06  0.518E-04    1.00      18.4  T
   8   -200.8729714 -0.936180E-08  0.265E-04    1.00      36.0  T
     SCC iter.                  ...        0 min,  0.126 sec
     gradient                   ...        0 min,  0.034 sec
 * total energy  :  -197.7969855 Eh     change       -0.8422794E-03 Eh
   gradient norm :     0.0105700 Eh/α   predicted     0.0000000E+00 (-100.00%)
   displ. norm   :     0.1369277 α      lambda       -0.4320093E-03
   maximum displ.:     0.0494867 α      in ANC's #10, #4, #19, ...

........................................................................
.............................. CYCLE   22 ..............................
........................................................................
   1   -200.8743701 -0.200874E+03  0.621E-02    1.00       0.0  T
   2   -200.8743760 -0.592501E-05  0.350E-02    1.00       1.0  T
   3   -200.8743367  0.393577E-04  0.184E-02    1.00       1.0  T
   4   -200.8743815 -0.447722E-04  0.296E-03    1.00       3.2  T
   5   -200.8743821 -0.653418E-06  0.144E-03    1.00       6.6  T
   6   -200.8743822 -0.100189E-06  0.659E-04    1.00      14.5  T
   7   -200.8743822 -0.285173E-07  0.260E-04    1.00      36.6  T
     SCC iter.                  ...        0 min,  0.112 sec
     gradient                   ...        0 min,  0.034 sec
 * total energy  :  -197.7971925 Eh     change       -0.2070098E-03 Eh
   gradient norm :     0.0069824 Eh/α   predicted    -0.2200573E-03 (   6.30%)
   displ. norm   :     0.3265200 α      lambda       -0.8252857E-03
   maximum displ.:     0.1231671 α      in ANC's #10, #4, #6, ...

........................................................................
.............................. CYCLE   23 ..............................
........................................................................
   1   -200.8788467 -0.200879E+03  0.105E-01    1.00       0.0  T
   2   -200.8788634 -0.167140E-04  0.595E-02    0.99       1.0  T
   3   -200.8787201  0.143311E-03  0.335E-02    1.00       1.0  T
   4   -200.8788812 -0.161146E-03  0.595E-03    0.99       1.6  T
   5   -200.8788839 -0.272111E-05  0.282E-03    0.99       3.4  T
   6   -200.8788843 -0.396944E-06  0.130E-03    0.99       7.3  T
   7   -200.8788844 -0.114531E-06  0.498E-04    0.99      19.1  T
   8   -200.8788845 -0.883284E-08  0.267E-04    0.99      35.7  T
     SCC iter.                  ...        0 min,  0.128 sec
     gradient                   ...        0 min,  0.034 sec
 * total energy  :  -197.7974960 Eh     change       -0.3034294E-03 Eh
   gradient norm :     0.0151100 Eh/α   predicted    -0.4566377E-03 (  50.49%)
   displ. norm   :     0.1845647 α      lambda       -0.4422994E-03
   maximum displ.:     0.0781145 α      in ANC's #10, #4, #6, ...

........................................................................
.............................. CYCLE   24 ..............................
........................................................................
   1   -200.8779022 -0.200878E+03  0.578E-02    0.99       0.0  T
   2   -200.8779074 -0.523215E-05  0.321E-02    0.99       1.0  T
   3   -200.8779026  0.485369E-05  0.851E-03    0.99       1.1  T
   4   -200.8779097 -0.711251E-05  0.199E-03    0.99       4.8  T
   5   -200.8779098 -0.141020E-06  0.110E-03    0.99       8.6  T
   6   -200.8779099 -0.525911E-07  0.513E-04    0.99      18.6  T
   7   -200.8779099 -0.209701E-07  0.187E-04    0.99      50.9  T
     SCC iter.                  ...        0 min,  0.112 sec
     gradient                   ...        0 min,  0.034 sec
 * total energy  :  -197.7978299 Eh     change       -0.3339634E-03 Eh
   gradient norm :     0.0089088 Eh/α   predicted    -0.2286837E-03 ( -31.52%)
   displ. norm   :     0.4983216 α      lambda       -0.1014664E-02
   maximum displ.:     0.1993541 α      in ANC's #10, #4, #6, ...

........................................................................
.............................. CYCLE   25 ..............................
........................................................................
   1   -200.8726256 -0.200873E+03  0.110E-01    1.00       0.0  T
   2   -200.8726467 -0.210505E-04  0.623E-02    0.98       1.0  T
   3   -200.8725911  0.555181E-04  0.252E-02    0.99       1.0  T
   4   -200.8726573 -0.661149E-04  0.602E-03    0.98       1.6  T
   5   -200.8726593 -0.204740E-05  0.310E-03    0.99       3.1  T
   6   -200.8726597 -0.390860E-06  0.142E-03    0.99       6.7  T
   7   -200.8726599 -0.160999E-06  0.528E-04    0.99      18.1  T
   8   -200.8726599 -0.853683E-08  0.281E-04    0.99      34.0  T
     SCC iter.                  ...        0 min,  0.126 sec
     gradient                   ...        0 min,  0.034 sec
 * total energy  :  -197.7980809 Eh     change       -0.2510004E-03 Eh
   gradient norm :     0.0190486 Eh/α   predicted    -0.6333272E-03 ( 152.32%)
   displ. norm   :     0.3879744 α      lambda       -0.1095258E-02
   maximum displ.:     0.1627058 α      in ANC's #10, #4, #6, ...

........................................................................
.............................. CYCLE   26 ..............................
........................................................................
   1   -200.8716076 -0.200872E+03  0.125E-01    0.99       0.0  T
   2   -200.8716307 -0.231181E-04  0.696E-02    0.98       1.0  T
   3   -200.8715954  0.353154E-04  0.196E-02    0.99       1.0  T
   4   -200.8716421 -0.467192E-04  0.400E-03    0.98       2.4  T
   5   -200.8716426 -0.530613E-06  0.248E-03    0.98       3.8  T
   6   -200.8716430 -0.403941E-06  0.106E-03    0.98       9.0  T
   7   -200.8716431 -0.909789E-07  0.350E-04    0.98      27.2  T
   8   -200.8716431 -0.261764E-08  0.204E-04    0.98      46.7  T
     SCC iter.                  ...        0 min,  0.124 sec
     gradient                   ...        0 min,  0.034 sec
 * total energy  :  -197.7986399 Eh     change       -0.5589658E-03 Eh
   gradient norm :     0.0192467 Eh/α   predicted    -0.6300644E-03 (  12.72%)
   displ. norm   :     0.3935055 α      lambda       -0.1002501E-02
   maximum displ.:     0.1564353 α      in ANC's #10, #4, #6, ...

........................................................................
.............................. CYCLE   27 ..............................
........................................................................
   1   -200.8704552 -0.200870E+03  0.121E-01    0.97       0.0  T
   2   -200.8704791 -0.238857E-04  0.681E-02    0.98       1.0  T
   3   -200.8703677  0.111369E-03  0.320E-02    0.97       1.0  T
   4   -200.8704961 -0.128412E-03  0.476E-03    0.98       2.0  T
   5   -200.8704971 -0.935443E-06  0.292E-03    0.98       3.3  T
   6   -200.8704978 -0.692557E-06  0.122E-03    0.98       7.8  T
   7   -200.8704979 -0.827379E-07  0.479E-04    0.98      19.9  T
   8   -200.8704979 -0.879609E-08  0.242E-04    0.98      39.3  T
     SCC iter.                  ...        0 min,  0.124 sec
     gradient                   ...        0 min,  0.034 sec
 * total energy  :  -197.7990870 Eh     change       -0.4471348E-03 Eh
   gradient norm :     0.0174663 Eh/α   predicted    -0.5788692E-03 (  29.46%)
   displ. norm   :     0.4662310 α      lambda       -0.8212673E-03
   maximum displ.:     0.2003267 α      in ANC's #4, #10, #6, ...

........................................................................
.............................. CYCLE   28 ..............................
........................................................................
   1   -200.8734227 -0.200873E+03  0.726E-02    0.98       0.0  T
   2   -200.8734283 -0.564408E-05  0.414E-02    0.97       1.0  T
   3   -200.8733882  0.401595E-04  0.188E-02    0.98       1.0  T
   4   -200.8734331 -0.449651E-04  0.356E-03    0.97       2.7  T
   5   -200.8734335 -0.364239E-06  0.231E-03    0.98       4.1  T
   6   -200.8734340 -0.478074E-06  0.840E-04    0.98      11.4  T
   7   -200.8734340 -0.436271E-07  0.332E-04    0.98      28.7  T
     SCC iter.                  ...        0 min,  0.109 sec
     gradient                   ...        0 min,  0.034 sec
 * total energy  :  -197.7997319 Eh     change       -0.6448526E-03 Eh
   gradient norm :     0.0089802 Eh/α   predicted    -0.4998964E-03 ( -22.48%)
   displ. norm   :     0.6730336 α      lambda       -0.1294735E-02
   maximum displ.:     0.2637275 α      in ANC's #10, #6, #4, ...

........................................................................
.............................. CYCLE   29 ..............................
........................................................................
   1   -200.8756184 -0.200876E+03  0.172E-01    0.98       0.0  T
   2   -200.8756594 -0.409929E-04  0.961E-02    0.98       1.0  T
   3   -200.8755706  0.887783E-04  0.311E-02    0.99       1.0  T
   4   -200.8756812 -0.110596E-03  0.548E-03    0.98       1.7  T
   5   -200.8756812 -0.349062E-07  0.380E-03    0.98       2.5  T
   6   -200.8756826 -0.139309E-05  0.140E-03    0.98       6.8  T
   7   -200.8756827 -0.119472E-06  0.603E-04    0.98      15.8  T
   8   -200.8756827 -0.198835E-07  0.289E-04    0.98      33.0  T
     SCC iter.                  ...        0 min,  0.124 sec
     gradient                   ...        0 min,  0.034 sec
 * total energy  :  -197.8000849 Eh     change       -0.3530106E-03 Eh
   gradient norm :     0.0267878 Eh/α   predicted    -0.9406117E-03 ( 166.45%)
   displ. norm   :     0.4752662 α      lambda       -0.1259892E-02
   maximum displ.:     0.2207397 α      in ANC's #4, #10, #6, ...

........................................................................
.............................. CYCLE   30 ..............................
........................................................................
   1   -200.8733339 -0.200873E+03  0.108E-01    0.98       0.0  T
   2   -200.8733490 -0.151226E-04  0.604E-02    0.98       1.0  T
   3   -200.8733225  0.264527E-04  0.167E-02    0.98       1.0  T
   4   -200.8733560 -0.334696E-04  0.368E-03    0.98       2.6  T
   5   -200.8733563 -0.292434E-06  0.246E-03    0.98       3.9  T
   6   -200.8733568 -0.548986E-06  0.832E-04    0.98      11.5  T
   7   -200.8733569 -0.370678E-07  0.370E-04    0.98      25.8  T
     SCC iter.                  ...        0 min,  0.109 sec
     gradient                   ...        0 min,  0.034 sec
 * total energy  :  -197.8009279 Eh     change       -0.8429708E-03 Eh
   gradient norm :     0.0123793 Eh/α   predicted    -0.7722434E-03 (  -8.39%)
   displ. norm   :     0.5903592 α      lambda       -0.6786602E-03
   maximum displ.:     0.2679037 α      in ANC's #4, #6, #10, ...

........................................................................
.............................. CYCLE   31 ..............................
........................................................................
   1   -200.8719545 -0.200872E+03  0.799E-02    0.97       0.0  T
   2   -200.8719606 -0.611331E-05  0.456E-02    0.98       1.0  T
   3   -200.8719151  0.454893E-04  0.190E-02    0.98       1.0  T
   4   -200.8719653 -0.501753E-04  0.388E-03    0.98       2.5  T
   5   -200.8719659 -0.646046E-06  0.229E-03    0.98       4.2  T
   6   -200.8719663 -0.412961E-06  0.898E-04    0.98      10.6  T
   7   -200.8719664 -0.498152E-07  0.355E-04    0.98      26.8  T
     SCC iter.                  ...        0 min,  0.110 sec
     gradient                   ...        0 min,  0.034 sec
 * total energy  :  -197.8015126 Eh     change       -0.5846937E-03 Eh
   gradient norm :     0.0078945 Eh/α   predicted    -0.4575968E-03 ( -21.74%)
   displ. norm   :     0.6689332 α      lambda       -0.8408166E-03
   maximum displ.:     0.3110007 α      in ANC's #4, #6, #5, ...

........................................................................
.............................. CYCLE   32 ..............................
........................................................................
   1   -200.8776785 -0.200878E+03  0.922E-02    0.97       0.0  T
   2   -200.8776871 -0.857384E-05  0.534E-02    0.98       1.0  T
   3   -200.8775431  0.144060E-03  0.329E-02    0.98       1.0  T
   4   -200.8777018 -0.158765E-03  0.523E-03    0.98       1.8  T
   5   -200.8777037 -0.192420E-05  0.259E-03    0.98       3.7  T
   6   -200.8777041 -0.387719E-06  0.120E-03    0.98       7.9  T
   7   -200.8777042 -0.903019E-07  0.469E-04    0.98      20.3  T
   8   -200.8777042 -0.880692E-08  0.244E-04    0.98      39.1  T
     SCC iter.                  ...        0 min,  0.127 sec
     gradient                   ...        0 min,  0.034 sec
 * total energy  :  -197.8021939 Eh     change       -0.6813714E-03 Eh
   gradient norm :     0.0100450 Eh/α   predicted    -0.6085319E-03 ( -10.69%)
   displ. norm   :     0.8369297 α      lambda       -0.8345286E-03
   maximum displ.:     0.3758882 α      in ANC's #4, #6, #5, ...

........................................................................
.............................. CYCLE   33 ..............................
........................................................................
   1   -200.8698415 -0.200870E+03  0.117E-01    0.98       0.0  T
   2   -200.8698621 -0.205738E-04  0.673E-02    0.98       1.0  T
   3   -200.8697773  0.847225E-04  0.274E-02    0.98       1.0  T
   4   -200.8698721 -0.947427E-04  0.654E-03    0.98       1.5  T
   5   -200.8698749 -0.277633E-05  0.324E-03    0.98       2.9  T
   6   -200.8698753 -0.448787E-06  0.156E-03    0.98       6.1  T
   7   -200.8698755 -0.233638E-06  0.560E-04    0.98      17.0  T
   8   -200.8698755 -0.901727E-08  0.334E-04    0.98      28.6  T
     SCC iter.                  ...        0 min,  0.128 sec
     gradient                   ...        0 min,  0.034 sec
 * total energy  :  -197.8028126 Eh     change       -0.6186530E-03 Eh
   gradient norm :     0.0137802 Eh/α   predicted    -0.7095456E-03 (  14.69%)
   displ. norm   :     0.6302973 α      lambda       -0.7929777E-03
   maximum displ.:     0.2945062 α      in ANC's #4, #6, #5, ...

........................................................................
.............................. CYCLE   34 ..............................
........................................................................
   1   -200.8743162 -0.200874E+03  0.102E-01    0.98       0.0  T
   2   -200.8743396 -0.234158E-04  0.587E-02    0.99       1.0  T
   3   -200.8741890  0.150621E-03  0.354E-02    0.98       1.0  T
   4   -200.8743598 -0.170755E-03  0.679E-03    0.99       1.4  T
   5   -200.8743639 -0.412712E-05  0.280E-03    0.99       3.4  T
   6   -200.8743643 -0.388662E-06  0.146E-03    0.99       6.5  T
   7   -200.8743644 -0.143936E-06  0.580E-04    0.99      16.4  T
   8   -200.8743644 -0.140670E-07  0.312E-04    0.99      30.6  T
     SCC iter.                  ...        0 min,  0.128 sec
     gradient                   ...        0 min,  0.034 sec
 * total energy  :  -197.8034007 Eh     change       -0.5881436E-03 Eh
   gradient norm :     0.0122710 Eh/α   predicted    -0.5540093E-03 (  -5.80%)
   displ. norm   :     0.7141148 α      lambda       -0.6511173E-03
   maximum displ.:     0.3557431 α      in ANC's #4, #6, #5, ...

........................................................................
.............................. CYCLE   35 ..............................
........................................................................
   1   -200.8784106 -0.200878E+03  0.844E-02    0.99       0.0  T
   2   -200.8784169 -0.638247E-05  0.484E-02    1.00       1.0  T
   3   -200.8783572  0.597155E-04  0.219E-02    0.99       1.0  T
   4   -200.8784237 -0.664860E-04  0.418E-03    0.99       2.3  T
   5   -200.8784245 -0.825568E-06  0.233E-03    0.99       4.1  T
   6   -200.8784248 -0.300370E-06  0.864E-04    0.99      11.0  T
   7   -200.8784249 -0.486477E-07  0.333E-04    0.99      28.7  T
     SCC iter.                  ...        0 min,  0.112 sec
     gradient                   ...        0 min,  0.034 sec
 * total energy  :  -197.8039405 Eh     change       -0.5397455E-03 Eh
   gradient norm :     0.0079834 Eh/α   predicted    -0.4915895E-03 (  -8.92%)
   displ. norm   :     0.7371807 α      lambda       -0.6564222E-03
   maximum displ.:     0.3674513 α      in ANC's #4, #5, #6, ...

........................................................................
.............................. CYCLE   36 ..............................
........................................................................
   1   -200.8807867 -0.200881E+03  0.932E-02    0.99       0.0  T
   2   -200.8807954 -0.867048E-05  0.532E-02    1.00       1.0  T
   3   -200.8807233  0.720873E-04  0.243E-02    0.99       1.0  T
   4   -200.8808043 -0.810352E-04  0.457E-03    1.00       2.1  T
   5   -200.8808054 -0.102741E-05  0.259E-03    1.00       3.7  T
   6   -200.8808057 -0.351949E-06  0.956E-04    1.00      10.0  T
   7   -200.8808058 -0.659810E-07  0.346E-04    1.00      27.6  T
     SCC iter.                  ...        0 min,  0.114 sec
     gradient                   ...        0 min,  0.034 sec
 * total energy  :  -197.8045110 Eh     change       -0.5704951E-03 Eh
   gradient norm :     0.0072343 Eh/α   predicted    -0.5065731E-03 ( -11.20%)
   displ. norm   :     0.7862034 α      lambda       -0.6571699E-03
   maximum displ.:     0.3934264 α      in ANC's #4, #5, #6, ...

........................................................................
.............................. CYCLE   37 ..............................
........................................................................
   1   -200.8792197 -0.200879E+03  0.934E-02    1.00       0.0  T
   2   -200.8792274 -0.772402E-05  0.531E-02    1.01       1.0  T
   3   -200.8791752  0.521402E-04  0.204E-02    1.00       1.0  T
   4   -200.8792331 -0.578203E-04  0.479E-03    1.01       2.0  T
   5   -200.8792344 -0.128506E-05  0.270E-03    1.01       3.5  T
   6   -200.8792348 -0.439347E-06  0.909E-04    1.01      10.5  T
   7   -200.8792349 -0.638222E-07  0.342E-04    1.01      27.9  T
     SCC iter.                  ...        0 min,  0.108 sec
     gradient                   ...        0 min,  0.034 sec
 * total energy  :  -197.8050873 Eh     change       -0.5763559E-03 Eh
   gradient norm :     0.0071127 Eh/α   predicted    -0.5316944E-03 (  -7.75%)
   displ. norm   :     0.7754238 α      lambda       -0.6520558E-03
   maximum displ.:     0.3792580 α      in ANC's #4, #5, #6, ...

........................................................................
.............................. CYCLE   38 ..............................
........................................................................
   1   -200.8822032 -0.200882E+03  0.892E-02    1.01       0.0  T
   2   -200.8822116 -0.837118E-05  0.509E-02    1.01       1.0  T
   3   -200.8821667  0.448908E-04  0.195E-02    1.00       1.0  T
   4   -200.8822167 -0.499750E-04  0.481E-03    1.01       2.0  T
   5   -200.8822180 -0.131435E-05  0.257E-03    1.01       3.7  T
   6   -200.8822184 -0.401535E-06  0.862E-04    1.01      11.1  T
   7   -200.8822185 -0.528223E-07  0.322E-04    1.01      29.6  T
     SCC iter.                  ...        0 min,  0.107 sec
     gradient                   ...        0 min,  0.034 sec
 * total energy  :  -197.8056231 Eh     change       -0.5357505E-03 Eh
   gradient norm :     0.0069088 Eh/α   predicted    -0.5220709E-03 (  -2.55%)
   displ. norm   :     0.8274757 α      lambda       -0.6010670E-03
   maximum displ.:     0.4180498 α      in ANC's #4, #5, #6, ...

........................................................................
.............................. CYCLE   39 ..............................
........................................................................
   1   -200.8720388 -0.200872E+03  0.974E-02    1.01       0.0  T
   2   -200.8720455 -0.676024E-05  0.556E-02    1.01       1.0  T
   3   -200.8719843  0.612204E-04  0.222E-02    1.00       1.0  T
   4   -200.8720512 -0.669110E-04  0.486E-03    1.01       2.0  T
   5   -200.8720522 -0.996683E-06  0.275E-03    1.01       3.5  T
   6   -200.8720528 -0.570006E-06  0.860E-04    1.01      11.1  T
   7   -200.8720529 -0.679958E-07  0.329E-04    1.01      29.0  T
     SCC iter.                  ...        0 min,  0.108 sec
     gradient                   ...        0 min,  0.034 sec
 * total energy  :  -197.8061028 Eh     change       -0.4797559E-03 Eh
   gradient norm :     0.0092909 Eh/α   predicted    -0.5063194E-03 (   5.54%)
   displ. norm   :     0.6992736 α      lambda       -0.5670139E-03
   maximum displ.:     0.3558408 α      in ANC's #4, #5, #3, ...

........................................................................
.............................. CYCLE   40 ..............................
........................................................................
   1   -200.8758486 -0.200876E+03  0.705E-02    1.01       0.0  T
   2   -200.8758559 -0.729773E-05  0.404E-02    1.01       1.0  T
   3   -200.8758335  0.223911E-04  0.145E-02    1.01       1.0  T
   4   -200.8758578 -0.243432E-04  0.447E-03    1.01       2.1  T
   5   -200.8758592 -0.133612E-05  0.207E-03    1.01       4.6  T
   6   -200.8758594 -0.257432E-06  0.860E-04    1.01      11.1  T
   7   -200.8758595 -0.717765E-07  0.302E-04    1.01      31.5  T
     SCC iter.                  ...        0 min,  0.111 sec
     gradient                   ...        0 min,  0.034 sec
 * total energy  :  -197.8065390 Eh     change       -0.4361338E-03 Eh
   gradient norm :     0.0082674 Eh/α   predicted    -0.4221430E-03 (  -3.21%)
   displ. norm   :     0.7176593 α      lambda       -0.5087461E-03
   maximum displ.:     0.3826228 α      in ANC's #4, #5, #6, ...

........................................................................
.............................. CYCLE   41 ..............................
........................................................................
   1   -200.8754379 -0.200875E+03  0.744E-02    1.01       0.0  T
   2   -200.8754453 -0.736218E-05  0.427E-02    1.01       1.0  T
   3   -200.8754006  0.446890E-04  0.194E-02    1.01       1.0  T
   4   -200.8754503 -0.497377E-04  0.461E-03    1.01       2.1  T
   5   -200.8754517 -0.140652E-05  0.219E-03    1.01       4.4  T
   6   -200.8754519 -0.198045E-06  0.873E-04    1.01      10.9  T
   7   -200.8754520 -0.718003E-07  0.287E-04    1.01      33.2  T
     SCC iter.                  ...        0 min,  0.107 sec
     gradient                   ...        0 min,  0.034 sec
 * total energy  :  -197.8069598 Eh     change       -0.4208564E-03 Eh
   gradient norm :     0.0065701 Eh/α   predicted    -0.3853857E-03 (  -8.43%)
   displ. norm   :     0.7200120 α      lambda       -0.4700013E-03
   maximum displ.:     0.4069627 α      in ANC's #4, #5, #3, ...

........................................................................
.............................. CYCLE   42 ..............................
........................................................................
   1   -200.8772675 -0.200877E+03  0.755E-02    1.01       0.0  T
   2   -200.8772732 -0.564565E-05  0.427E-02    1.01       1.0  T
   3   -200.8772619  0.113112E-04  0.117E-02    1.01       1.0  T
   4   -200.8772757 -0.138582E-04  0.337E-03    1.01       2.8  T
   5   -200.8772760 -0.266562E-06  0.181E-03    1.01       5.3  T
   6   -200.8772763 -0.252904E-06  0.574E-04    1.01      16.6  T
   7   -200.8772763 -0.250517E-07  0.283E-04    1.01      33.7  T
     SCC iter.                  ...        0 min,  0.108 sec
     gradient                   ...        0 min,  0.034 sec
 * total energy  :  -197.8073658 Eh     change       -0.4060246E-03 Eh
   gradient norm :     0.0073145 Eh/α   predicted    -0.3568360E-03 ( -12.11%)
   displ. norm   :     0.7534796 α      lambda       -0.4947958E-03
   maximum displ.:     0.4401294 α      in ANC's #4, #5, #3, ...
 * RMSD in coord.:     1.1277092 α      energy gain  -0.1122260E-01 Eh

generating ANC from model Hessian ...
Using Lindh-Hessian (1995)
 Shifting diagonal of input Hessian by   1.005712580778968E-002
 Lowest  eigenvalues of input Hessian
    0.010000    0.000000    0.000000    0.000000    0.000000    0.000000
    0.000000    0.010064    0.010075    0.010122    0.010160    0.010200
    0.010235    0.010364    0.010428    0.010502    0.010575    0.010637
 Highest eigenvalues
    2.274870    2.284101    2.608426    2.609497    2.654815    2.659938
 

........................................................................
.............................. CYCLE   43 ..............................
........................................................................
   1   -200.8815208 -0.200882E+03  0.730E-02    1.01       0.0  T
   2   -200.8815255 -0.476650E-05  0.414E-02    1.01       1.0  T
   3   -200.8815101  0.154746E-04  0.125E-02    1.01       1.0  T
   4   -200.8815274 -0.173560E-04  0.392E-03    1.01       2.4  T
   5   -200.8815280 -0.565506E-06  0.229E-03    1.01       4.2  T
   6   -200.8815285 -0.482308E-06  0.701E-04    1.01      13.6  T
   7   -200.8815285 -0.409107E-07  0.288E-04    1.01      33.1  T
     SCC iter.                  ...        0 min,  0.109 sec
     gradient                   ...        0 min,  0.034 sec
 * total energy  :  -197.8077775 Eh     change       -0.4116486E-03 Eh
   gradient norm :     0.0078878 Eh/α   predicted     0.0000000E+00 (-100.00%)
   displ. norm   :     0.0903970 α      lambda       -0.1571194E-03
   maximum displ.:     0.0452854 α      in ANC's #4, #3, #14, ...

........................................................................
.............................. CYCLE   44 ..............................
........................................................................
   1   -200.8807434 -0.200881E+03  0.390E-02    1.01       0.0  T
   2   -200.8807459 -0.244386E-05  0.216E-02    1.01       1.0  T
   3   -200.8807409  0.497831E-05  0.674E-03    1.01       1.4  T
   4   -200.8807470 -0.611486E-05  0.155E-03    1.01       6.1  T
   5   -200.8807471 -0.147494E-06  0.909E-04    1.01      10.5  T
   6   -200.8807472 -0.556860E-07  0.323E-04    1.01      29.5  T
     SCC iter.                  ...        0 min,  0.094 sec
     gradient                   ...        0 min,  0.034 sec
 * total energy  :  -197.8078883 Eh     change       -0.1108342E-03 Eh
   gradient norm :     0.0037837 Eh/α   predicted    -0.7920254E-04 ( -28.54%)
   displ. norm   :     0.2987977 α      lambda       -0.3974172E-03
   maximum displ.:     0.1343725 α      in ANC's #4, #3, #6, ...

........................................................................
.............................. CYCLE   45 ..............................
........................................................................
   1   -200.8792970 -0.200879E+03  0.754E-02    1.01       0.0  T
   2   -200.8793067 -0.964059E-05  0.426E-02    1.02       1.0  T
   3   -200.8792682  0.384798E-04  0.193E-02    1.01       1.0  T
   4   -200.8793128 -0.446300E-04  0.416E-03    1.01       2.3  T
   5   -200.8793139 -0.105412E-05  0.250E-03    1.01       3.8  T
   6   -200.8793143 -0.459321E-06  0.913E-04    1.01      10.4  T
   7   -200.8793144 -0.444661E-07  0.399E-04    1.01      23.9  T
     SCC iter.                  ...        0 min,  0.108 sec
     gradient                   ...        0 min,  0.034 sec
 * total energy  :  -197.8078935 Eh     change       -0.5170773E-05 Eh
   gradient norm :     0.0152955 Eh/α   predicted    -0.2164543E-03 (4086.11%)
   displ. norm   :     0.1329804 α      lambda       -0.4563382E-03
   maximum displ.:     0.0680959 α      in ANC's #4, #3, #1, ...

........................................................................
.............................. CYCLE   46 ..............................
........................................................................
   1   -200.8809921 -0.200881E+03  0.722E-02    1.01       0.0  T
   2   -200.8809991 -0.698296E-05  0.400E-02    1.01       1.0  T
   3   -200.8809944  0.473496E-05  0.754E-03    1.01       1.3  T
   4   -200.8810022 -0.779328E-05  0.178E-03    1.01       5.4  T
   5   -200.8810022 -0.733479E-07  0.103E-03    1.01       9.2  T
   6   -200.8810023 -0.727983E-07  0.344E-04    1.01      27.7  T
   7   -200.8810023 -0.888895E-08  0.141E-04    1.01      67.5  T
     SCC iter.                  ...        0 min,  0.108 sec
     gradient                   ...        0 min,  0.034 sec
 * total energy  :  -197.8081228 Eh     change       -0.2292598E-03 Eh
   gradient norm :     0.0092339 Eh/α   predicted    -0.2322073E-03 (   1.29%)
   displ. norm   :     0.1438603 α      lambda       -0.3179644E-03
   maximum displ.:     0.0628393 α      in ANC's #4, #3, #10, ...

........................................................................
.............................. CYCLE   47 ..............................
........................................................................
   1   -200.8832623 -0.200883E+03  0.865E-02    1.02       0.0  T
   2   -200.8832728 -0.105013E-04  0.481E-02    1.02       1.0  T
   3   -200.8832460  0.267527E-04  0.160E-02    1.01       1.0  T
   4   -200.8832789 -0.328554E-04  0.234E-03    1.02       4.1  T
   5   -200.8832790 -0.121339E-06  0.138E-03    1.01       6.9  T
   6   -200.8832791 -0.114336E-06  0.569E-04    1.02      16.8  T
   7   -200.8832792 -0.239523E-07  0.213E-04    1.01      44.7  T
     SCC iter.                  ...        0 min,  0.109 sec
     gradient                   ...        0 min,  0.034 sec
 * total energy  :  -197.8081676 Eh     change       -0.4488224E-04 Eh
   gradient norm :     0.0079877 Eh/α   predicted    -0.1622761E-03 ( 261.56%)
   displ. norm   :     0.1748536 α      lambda       -0.3253382E-03
   maximum displ.:     0.0847233 α      in ANC's #4, #3, #14, ...

........................................................................
.............................. CYCLE   48 ..............................
........................................................................
   1   -200.8831106 -0.200883E+03  0.686E-02    1.01       0.0  T
   2   -200.8831174 -0.678425E-05  0.380E-02    1.01       1.0  T
   3   -200.8831148  0.257917E-05  0.750E-03    1.01       1.3  T
   4   -200.8831202 -0.547424E-05  0.163E-03    1.01       5.9  T
   5   -200.8831202  0.558855E-07  0.112E-03    1.01       8.5  T
   6   -200.8831203 -0.138760E-06  0.340E-04    1.01      28.1  T
   7   -200.8831203 -0.913741E-08  0.141E-04    1.01      67.6  T
     SCC iter.                  ...        0 min,  0.108 sec
     gradient                   ...        0 min,  0.034 sec
 * total energy  :  -197.8082936 Eh     change       -0.1260062E-03 Eh
   gradient norm :     0.0066632 Eh/α   predicted    -0.1676447E-03 (  33.04%)
   displ. norm   :     0.2995728 α      lambda       -0.4753854E-03
   maximum displ.:     0.1538564 α      in ANC's #4, #3, #6, ...

........................................................................
.............................. CYCLE   49 ..............................
........................................................................
   1   -200.8808387 -0.200881E+03  0.903E-02    1.01       0.0  T
   2   -200.8808493 -0.105465E-04  0.502E-02    1.02       1.0  T
   3   -200.8808427  0.652301E-05  0.987E-03    1.01       1.0  T
   4   -200.8808537 -0.109834E-04  0.255E-03    1.02       3.7  T
   5   -200.8808538 -0.877886E-07  0.156E-03    1.02       6.1  T
   6   -200.8808540 -0.202924E-06  0.508E-04    1.02      18.8  T
   7   -200.8808540 -0.162467E-07  0.204E-04    1.02      46.8  T
     SCC iter.                  ...        0 min,  0.110 sec
     gradient                   ...        0 min,  0.034 sec
 * total energy  :  -197.8084582 Eh     change       -0.1645244E-03 Eh
   gradient norm :     0.0077243 Eh/α   predicted    -0.2590248E-03 (  57.44%)
   displ. norm   :     0.2334330 α      lambda       -0.2513413E-03
   maximum displ.:     0.1287325 α      in ANC's #4, #3, #6, ...

........................................................................
.............................. CYCLE   50 ..............................
........................................................................
   1   -200.8817019 -0.200882E+03  0.451E-02    1.02       0.0  T
   2   -200.8817042 -0.234084E-05  0.252E-02    1.02       1.0  T
   3   -200.8816998  0.440530E-05  0.625E-03    1.01       1.5  T
   4   -200.8817054 -0.560482E-05  0.147E-03    1.02       6.5  T
   5   -200.8817054 -0.355807E-07  0.776E-04    1.02      12.3  T
   6   -200.8817055 -0.428143E-07  0.273E-04    1.02      34.9  T
     SCC iter.                  ...        0 min,  0.093 sec
     gradient                   ...        0 min,  0.034 sec
 * total energy  :  -197.8086621 Eh     change       -0.2038947E-03 Eh
   gradient norm :     0.0047339 Eh/α   predicted    -0.1325187E-03 ( -35.01%)
   displ. norm   :     0.4459741 α      lambda       -0.3160802E-03
   maximum displ.:     0.2473390 α      in ANC's #4, #3, #6, ...

........................................................................
.............................. CYCLE   51 ..............................
........................................................................
   1   -200.8831576 -0.200883E+03  0.582E-02    1.02       0.0  T
   2   -200.8831607 -0.312557E-05  0.330E-02    1.02       1.0  T
   3   -200.8831498  0.109493E-04  0.978E-03    1.02       1.0  T
   4   -200.8831623 -0.125612E-04  0.260E-03    1.02       3.7  T
   5   -200.8831626 -0.284396E-06  0.127E-03    1.02       7.5  T
   6   -200.8831627 -0.100985E-06  0.449E-04    1.02      21.2  T
   7   -200.8831627 -0.140867E-07  0.201E-04    1.02      47.4  T
     SCC iter.                  ...        0 min,  0.109 sec
     gradient                   ...        0 min,  0.034 sec
 * total energy  :  -197.8088990 Eh     change       -0.2369477E-03 Eh
   gradient norm :     0.0046310 Eh/α   predicted    -0.1894796E-03 ( -20.03%)
   displ. norm   :     0.5516144 α      lambda       -0.3219531E-03
   maximum displ.:     0.3073712 α      in ANC's #4, #3, #6, ...

........................................................................
.............................. CYCLE   52 ..............................
........................................................................
   1   -200.8812814 -0.200881E+03  0.946E-02    1.02       0.0  T
   2   -200.8812927 -0.112897E-04  0.527E-02    1.02       1.0  T
   3   -200.8812893  0.342905E-05  0.870E-03    1.02       1.1  T
   4   -200.8812968 -0.753986E-05  0.328E-03    1.02       2.9  T
   5   -200.8812972 -0.372543E-06  0.169E-03    1.02       5.6  T
   6   -200.8812974 -0.213280E-06  0.610E-04    1.02      15.6  T
   7   -200.8812974 -0.283949E-07  0.249E-04    1.02      38.3  T
     SCC iter.                  ...        0 min,  0.110 sec
     gradient                   ...        0 min,  0.034 sec
 * total energy  :  -197.8091058 Eh     change       -0.2068066E-03 Eh
   gradient norm :     0.0070695 Eh/α   predicted    -0.2099603E-03 (   1.52%)
   displ. norm   :     0.4840688 α      lambda       -0.2862997E-03
   maximum displ.:     0.2738778 α      in ANC's #4, #3, #6, ...

........................................................................
.............................. CYCLE   53 ..............................
........................................................................
   1   -200.8823750 -0.200882E+03  0.495E-02    1.02       0.0  T
   2   -200.8823770 -0.195593E-05  0.282E-02    1.02       1.0  T
   3   -200.8823733  0.371534E-05  0.670E-03    1.02       1.4  T
   4   -200.8823777 -0.438554E-05  0.233E-03    1.02       4.1  T
   5   -200.8823779 -0.203393E-06  0.989E-04    1.02       9.6  T
   6   -200.8823779 -0.625712E-07  0.388E-04    1.02      24.6  T
     SCC iter.                  ...        0 min,  0.094 sec
     gradient                   ...        0 min,  0.034 sec
 * total energy  :  -197.8093516 Eh     change       -0.2457907E-03 Eh
   gradient norm :     0.0052959 Eh/α   predicted    -0.1766937E-03 ( -28.11%)
   displ. norm   :     0.5831085 α      lambda       -0.3260895E-03
   maximum displ.:     0.3414186 α      in ANC's #4, #3, #6, ...

........................................................................
.............................. CYCLE   54 ..............................
........................................................................
   1   -200.8837091 -0.200884E+03  0.602E-02    1.02       0.0  T
   2   -200.8837123 -0.318405E-05  0.341E-02    1.02       1.0  T
   3   -200.8837073  0.491660E-05  0.781E-03    1.02       1.2  T
   4   -200.8837134 -0.602672E-05  0.279E-03    1.02       3.4  T
   5   -200.8837136 -0.274070E-06  0.131E-03    1.02       7.3  T
   6   -200.8837138 -0.130041E-06  0.481E-04    1.02      19.8  T
   7   -200.8837138 -0.213524E-07  0.193E-04    1.02      49.4  T
     SCC iter.                  ...        0 min,  0.112 sec
     gradient                   ...        0 min,  0.034 sec
 * total energy  :  -197.8096294 Eh     change       -0.2777835E-03 Eh
   gradient norm :     0.0041261 Eh/α   predicted    -0.2184844E-03 ( -21.35%)
   displ. norm   :     0.6223338 α      lambda       -0.2930375E-03
   maximum displ.:     0.3712916 α      in ANC's #4, #3, #6, ...

........................................................................
.............................. CYCLE   55 ..............................
........................................................................
   1   -200.8832773 -0.200883E+03  0.651E-02    1.02       0.0  T
   2   -200.8832813 -0.400628E-05  0.367E-02    1.02       1.0  T
   3   -200.8832766  0.469648E-05  0.775E-03    1.02       1.2  T
   4   -200.8832828 -0.614907E-05  0.284E-03    1.02       3.4  T
   5   -200.8832831 -0.274760E-06  0.134E-03    1.02       7.1  T
   6   -200.8832832 -0.139792E-06  0.495E-04    1.02      19.3  T
   7   -200.8832832 -0.230787E-07  0.191E-04    1.02      49.9  T
     SCC iter.                  ...        0 min,  0.113 sec
     gradient                   ...        0 min,  0.034 sec
 * total energy  :  -197.8098903 Eh     change       -0.2609013E-03 Eh
   gradient norm :     0.0033770 Eh/α   predicted    -0.2032696E-03 ( -22.09%)
   displ. norm   :     0.5890571 α      lambda       -0.2733078E-03
   maximum displ.:     0.3567658 α      in ANC's #4, #3, #6, ...

........................................................................
.............................. CYCLE   56 ..............................
........................................................................
   1   -200.8836397 -0.200884E+03  0.583E-02    1.02       0.0  T
   2   -200.8836429 -0.316336E-05  0.329E-02    1.02       1.0  T
   3   -200.8836401  0.278568E-05  0.623E-03    1.02       1.5  T
   4   -200.8836440 -0.388252E-05  0.244E-03    1.02       3.9  T
   5   -200.8836442 -0.178763E-06  0.118E-03    1.02       8.1  T
   6   -200.8836443 -0.132593E-06  0.452E-04    1.02      21.1  T
   7   -200.8836443 -0.222740E-07  0.176E-04    1.02      54.2  T
     SCC iter.                  ...        0 min,  0.112 sec
     gradient                   ...        0 min,  0.034 sec
 * total energy  :  -197.8101422 Eh     change       -0.2518672E-03 Eh
   gradient norm :     0.0039475 Eh/α   predicted    -0.1840718E-03 ( -26.92%)
   displ. norm   :     0.5998998 α      lambda       -0.2903472E-03
   maximum displ.:     0.3657235 α      in ANC's #4, #3, #6, ...

........................................................................
.............................. CYCLE   57 ..............................
........................................................................
   1   -200.8834025 -0.200883E+03  0.565E-02    1.02       0.0  T
   2   -200.8834054 -0.287486E-05  0.319E-02    1.02       1.0  T
   3   -200.8834031  0.235115E-05  0.588E-03    1.02       1.6  T
   4   -200.8834064 -0.337064E-05  0.232E-03    1.02       4.1  T
   5   -200.8834066 -0.146258E-06  0.106E-03    1.02       9.0  T
   6   -200.8834067 -0.108932E-06  0.414E-04    1.02      23.1  T
   7   -200.8834067 -0.159836E-07  0.162E-04    1.02      59.0  T
     SCC iter.                  ...        0 min,  0.113 sec
     gradient                   ...        0 min,  0.034 sec
 * total energy  :  -197.8104135 Eh     change       -0.2713286E-03 Eh
   gradient norm :     0.0041608 Eh/α   predicted    -0.1974201E-03 ( -27.24%)
   displ. norm   :     0.6550942 α      lambda       -0.3310321E-03
   maximum displ.:     0.3996500 α      in ANC's #4, #3, #6, ...

........................................................................
.............................. CYCLE   58 ..............................
........................................................................
   1   -200.8839871 -0.200884E+03  0.567E-02    1.02       0.0  T
   2   -200.8839896 -0.253096E-05  0.322E-02    1.02       1.0  T
   3   -200.8839853  0.438068E-05  0.700E-03    1.02       1.4  T
   4   -200.8839906 -0.530482E-05  0.251E-03    1.02       3.8  T
   5   -200.8839907 -0.151144E-06  0.139E-03    1.02       6.9  T
   6   -200.8839909 -0.213942E-06  0.420E-04    1.02      22.7  T
   7   -200.8839909 -0.133179E-07  0.171E-04    1.02      55.8  T
     SCC iter.                  ...        0 min,  0.109 sec
     gradient                   ...        0 min,  0.034 sec
 * total energy  :  -197.8107200 Eh     change       -0.3065124E-03 Eh
   gradient norm :     0.0043676 Eh/α   predicted    -0.2365483E-03 ( -22.83%)
   displ. norm   :     0.7319914 α      lambda       -0.3723602E-03
   maximum displ.:     0.4480861 α      in ANC's #4, #3, #6, ...

........................................................................
.............................. CYCLE   59 ..............................
........................................................................
   1   -200.8823116 -0.200882E+03  0.689E-02    1.02       0.0  T
   2   -200.8823158 -0.427086E-05  0.390E-02    1.02       1.0  T
   3   -200.8823039  0.119919E-04  0.108E-02    1.02       1.0  T
   4   -200.8823178 -0.139735E-04  0.313E-03    1.02       3.0  T
   5   -200.8823181 -0.323677E-06  0.178E-03    1.02       5.4  T
[...]
    94   1 H        0.924     0.052     2.297     2.370
    95   1 H        0.925     0.040     2.445     2.445
    96   1 H        0.925     0.041     2.441     2.443
    97   1 H        0.925     0.053     2.287     2.365
    98   1 H        0.924     0.058     2.220     2.330
    99   1 H        0.924     0.070     2.083     2.257
   100   1 H        0.925     0.052     2.299     2.371
   101   1 H        0.925     0.052     2.294     2.369
   102   1 H        0.925     0.049     2.333     2.389
   103   1 H        0.925     0.058     2.219     2.329
   104   1 H        0.924     0.070     2.088     2.260
   105   1 H        0.925     0.051     2.302     2.373
   106   1 H        0.925     0.049     2.326     2.385
   107   1 H        0.925     0.052     2.292     2.368
   108   1 H        0.925     0.073     2.055     2.242
   109   1 H        0.926     0.063     2.162     2.300
   110   1 H        0.926     0.066     2.128     2.281

 Mol. C6AA /au·bohr⁶  :     234954.366385
 Mol. C8AA /au·bohr⁸  :    6795969.756916
 Mol. α(0) /au        :        771.190648


Wiberg/Mayer (AO) data.
largest (>0.10) Wiberg bond orders for each atom

 ---------------------------------------------------------------------------
     #   Z sym  total        # sym  WBO       # sym  WBO       # sym  WBO
 ---------------------------------------------------------------------------
     1   6 C    3.949 --     2 C    1.543    24 C    1.242    77 H    0.946
     2   6 C    3.957 --     1 C    1.543    11 C    1.135     3 C    1.025
     3   6 C    3.931 --     4 O    1.754     2 C    1.025     5 C    1.024
     4   8 O    2.050 --     3 C    1.754
     5   6 C    3.974 --     6 C    1.381    10 C    1.309     3 C    1.024
     6   6 C    3.982 --     7 C    1.444     5 C    1.381    78 H    0.964
     7   6 C    3.957 --     6 C    1.444     8 C    1.326    23 C    0.996
     8   6 C    3.967 --     9 C    1.452     7 C    1.326    17 C    0.996
     9   6 C    3.979 --     8 C    1.452    10 C    1.364    79 H    0.959
    10   6 C    3.979 --     9 C    1.364     5 C    1.309    11 C    1.091
    11   6 C    3.974 --    12 C    1.483     2 C    1.135    10 C    1.091
    12   6 C    3.953 --    11 C    1.483    13 C    1.099    15 C    1.097
    13   6 C    3.945 --    14 N    2.763    12 C    1.099
    14   7 N    2.967 --    13 C    2.763
    15   6 C    3.946 --    16 N    2.761    12 C    1.097
    16   7 N    2.968 --    15 C    2.761
    17   6 C    3.985 --     8 C    0.996    23 C    0.978    80 H    0.960
                            18 C    0.947
    18   6 C    3.990 --    19 C    1.010    22 C    0.985    81 H    0.972
                            17 C    0.947
    19   6 C    3.987 --    20 C    1.924    18 C    1.010    82 H    0.971
    20   6 C    3.987 --    19 C    1.924    21 C    1.010    83 H    0.972
    21   6 C    3.989 --    20 C    1.010    22 C    0.985    84 H    0.972
                            23 C    0.947
    22   6 C    3.993 --    21 C    0.985    18 C    0.985    86 H    0.978
                            85 H    0.977
    23   6 C    3.984 --     7 C    0.996    17 C    0.978    87 H    0.960
                            21 C    0.947
    24   6 C    3.923 --    25 C    1.414     1 C    1.242    57 S    1.060
    25   6 C    3.957 --    24 C    1.414    28 C    1.297    26 C    1.020
    26   6 C    3.993 --    25 C    1.020    27 C    1.002    88 H    0.971
                            89 H    0.943
    27   6 C    3.993 --    26 C    1.002    91 H    0.988    92 H    0.985
                            90 H    0.980
    28   6 C    3.928 --    56 C    1.329    25 C    1.297    29 S    1.093
    29  16 S    2.527 --    30 C    1.115    28 C    1.093
    30   6 C    3.922 --    55 C    1.307    31 C    1.270    29 S    1.115
    31   6 C    3.956 --    53 C    1.274    30 C    1.270    32 C    1.173
    32   6 C    3.973 --    36 N    1.426    31 C    1.173    33 C    1.167
                            35 S    0.101
    33   6 C    3.973 --    34 N    1.426    37 C    1.172    32 C    1.167
                            35 S    0.101
    34   7 N    3.075 --    33 C    1.426    35 S    1.393    36 N    0.150
    35  16 S    3.109 --    34 N    1.393    36 N    1.393    33 C    0.101
                            32 C    0.101
    36   7 N    3.074 --    32 C    1.426    35 S    1.393    34 N    0.150
    37   6 C    3.956 --    52 C    1.277    38 C    1.268    33 C    1.172
    38   6 C    3.920 --    50 C    1.304    37 C    1.268    39 S    1.119
    39  16 S    2.535 --    38 C    1.119    40 C    1.102
    40   6 C    3.928 --    49 C    1.342    41 C    1.274    39 S    1.102
    41   6 C    3.947 --    47 C    1.293    40 C    1.274    42 S    1.168
    42  16 S    2.728 --    41 C    1.168    43 C    1.090    65 O    0.123
    43   6 C    3.934 --    44 C    1.337    62 C    1.303    42 S    1.090
    44   6 C    3.957 --    47 C    1.360    43 C    1.337    45 C    1.017
    45   6 C    3.993 --    44 C    1.017    46 C    0.993    94 H    0.969
                            93 H    0.963
    46   6 C    3.990 --    45 C    0.993    95 H    0.988    96 H    0.987
                            97 H    0.984
    47   6 C    3.925 --    44 C    1.360    41 C    1.293    48 S    1.065
    48  16 S    2.491 --    49 C    1.091    47 C    1.065
    49   6 C    3.915 --    40 C    1.342    50 C    1.253    48 S    1.091
    50   6 C    3.937 --    38 C    1.304    49 C    1.253    51 N    1.155
    51   7 N    3.548 --    52 C    1.160    50 C    1.155    60 C    0.982
    52   6 C    3.928 --    37 C    1.277    53 C    1.225    51 N    1.160
    53   6 C    3.929 --    31 C    1.274    52 C    1.225    54 N    1.163
    54   7 N    3.549 --    53 C    1.163    55 C    1.154    58 C    0.982
    55   6 C    3.937 --    30 C    1.307    56 C    1.249    54 N    1.154
    56   6 C    3.933 --    28 C    1.329    55 C    1.249    57 S    1.127
    57  16 S    2.531 --    56 C    1.127    24 C    1.060
    58   6 C    3.964 --    59 C    1.007    54 N    0.982    99 H    0.963
                            98 H    0.956
    59   6 C    3.989 --    58 C    1.007   101 H    0.986   100 H    0.983
                           102 H    0.983
    60   6 C    3.964 --    61 C    1.008    51 N    0.982   104 H    0.963
                           103 H    0.956
    61   6 C    3.989 --    60 C    1.008   105 H    0.986   107 H    0.983
                           106 H    0.983
    62   6 C    3.947 --    63 C    1.507    43 C    1.303   108 H    0.932
    63   6 C    3.948 --    62 C    1.507    71 C    1.133    64 C    1.042
    64   6 C    3.928 --    65 O    1.704    66 C    1.064    63 C    1.042
    65   8 O    2.122 --    64 C    1.704    42 S    0.123
    66   6 C    3.926 --    70 C    1.392    67 S    1.202    64 C    1.064
    67  16 S    2.700 --    68 C    1.214    66 C    1.202
    68   6 C    3.934 --    69 C    1.599    67 S    1.214   109 H    0.969
    69   6 C    3.981 --    68 C    1.599    70 C    1.275   110 H    0.958
    70   6 C    3.971 --    66 C    1.392    69 C    1.275    71 C    1.095
    71   6 C    3.973 --    72 C    1.475    63 C    1.133    70 C    1.095
    72   6 C    3.954 --    71 C    1.475    73 C    1.104    75 C    1.096
    73   6 C    3.945 --    74 N    2.749    72 C    1.104
    74   7 N    2.959 --    73 C    2.749
    75   6 C    3.945 --    76 N    2.770    72 C    1.096
    76   7 N    2.969 --    75 C    2.770
    77   1 H    0.993 --     1 C    0.946
    78   1 H    0.996 --     6 C    0.964
    79   1 H    0.996 --     9 C    0.959
    80   1 H    0.997 --    17 C    0.960
    81   1 H    0.998 --    18 C    0.972
    82   1 H    0.999 --    19 C    0.971
    83   1 H    0.999 --    20 C    0.972
    84   1 H    0.999 --    21 C    0.972
    85   1 H    0.996 --    22 C    0.977
    86   1 H    0.998 --    22 C    0.978
    87   1 H    0.996 --    23 C    0.960
    88   1 H    0.998 --    26 C    0.971
    89   1 H    0.993 --    26 C    0.943
    90   1 H    0.997 --    27 C    0.980
    91   1 H    0.998 --    27 C    0.988
    92   1 H    0.997 --    27 C    0.985
    93   1 H    0.996 --    45 C    0.963
    94   1 H    0.996 --    45 C    0.969
    95   1 H    0.998 --    46 C    0.988
    96   1 H    0.998 --    46 C    0.987
    97   1 H    0.996 --    46 C    0.984
    98   1 H    0.994 --    58 C    0.956
    99   1 H    0.995 --    58 C    0.963
   100   1 H    0.996 --    59 C    0.983
   101   1 H    0.997 --    59 C    0.986
   102   1 H    0.997 --    59 C    0.983
   103   1 H    0.994 --    60 C    0.956
   104   1 H    0.995 --    60 C    0.963
   105   1 H    0.997 --    61 C    0.986
   106   1 H    0.997 --    61 C    0.983
   107   1 H    0.996 --    61 C    0.983
   108   1 H    0.993 --    62 C    0.932
   109   1 H    0.995 --    68 C    0.969
   110   1 H    0.995 --    69 C    0.958
 ---------------------------------------------------------------------------

Topologies differ in bond orders
Writing corrected topology to xtbtopo.mol

molecular dipole:
                 x           y           z       tot (Debye)
 q only:       -0.494       1.551      -0.328
   full:       -0.264       1.893      -0.090       4.863
molecular quadrupole (traceless):
                xx          xy          yy          xz          yz          zz
 q only:        4.809      16.078      53.250     -36.318      -0.494     -58.059
  q+dip:       -9.478      22.568      65.095     -34.300     -10.014     -55.616
   full:       -4.365      28.137      67.954     -31.151      -6.301     -63.590

           -------------------------------------------------
          |                Geometry Summary                 |
           -------------------------------------------------

      molecular mass/u    :     1111.4093510
   center of mass at/Å    :        0.0027969      -0.6578022       1.0980061
  moments of inertia/u·Å² :        0.7128993E+04   0.9359105E+05   0.9684828E+05
rotational constants/cm⁻¹ :        0.2364658E-02   0.1801201E-03   0.1740623E-03

 * 109 selected distances

     #   Z          #   Z                                           value/Å
     1   6 C        2   6 C                                       1.3662275
     3   6 C        4   8 O                                       1.2135405
     5   6 C        6   6 C                                       1.3926690
     6   6 C        7   6 C                                       1.3741763
     7   6 C        8   6 C                                       1.4014702
     8   6 C        9   6 C                                       1.3745647
     5   6 C       10   6 C                                       1.4096792
     9   6 C       10   6 C                                       1.3977415
    11   6 C       12   6 C                                       1.3709176
    13   6 C       14   7 N                                       1.1482970
    15   6 C       16   7 N                                       1.1484369
     8   6 C       17   6 C                                       1.5080724
    17   6 C       18   6 C                                       1.5486878
    19   6 C       20   6 C                                       1.3263114
    18   6 C       22   6 C                                       1.5370949
    21   6 C       22   6 C                                       1.5370259
     7   6 C       23   6 C                                       1.5080194
    17   6 C       23   6 C                                       1.5613306
    21   6 C       23   6 C                                       1.5488938
     1   6 C       24   6 C                                       1.4131074
    24   6 C       25   6 C                                       1.3884370
    25   6 C       26   6 C                                       1.4916562
    26   6 C       27   6 C                                       1.5277581
    25   6 C       28   6 C                                       1.4034314
    28   6 C       29  16 S                                       1.7501124 (max)
    29  16 S       30   6 C                                       1.7270687
    30   6 C       31   6 C                                       1.4019461
    31   6 C       32   6 C                                       1.4117375
    32   6 C       33   6 C                                       1.4327293
    33   6 C       34   7 N                                       1.3238680
    34   7 N       35  16 S                                       1.6183671
    32   6 C       36   7 N                                       1.3239774
    35  16 S       36   7 N                                       1.6187052
    33   6 C       37   6 C                                       1.4118498
    37   6 C       38   6 C                                       1.4024112
    38   6 C       39  16 S                                       1.7290763
    39  16 S       40   6 C                                       1.7443245
    40   6 C       41   6 C                                       1.3992197
    41   6 C       42  16 S                                       1.7187710
    43   6 C       44   6 C                                       1.4049780
    45   6 C       46   6 C                                       1.5311366
    41   6 C       47   6 C                                       1.4026541
    44   6 C       47   6 C                                       1.3871947
    47   6 C       48  16 S                                       1.7460228
    40   6 C       49   6 C                                       1.4018486
    48  16 S       49   6 C                                       1.7422897
    38   6 C       50   6 C                                       1.3990017
    49   6 C       50   6 C                                       1.3988070
    50   6 C       51   7 N                                       1.3693357
    37   6 C       52   6 C                                       1.4245177
    51   7 N       52   6 C                                       1.3869325
    31   6 C       53   6 C                                       1.4251887
    52   6 C       53   6 C                                       1.4210299
    53   6 C       54   7 N                                       1.3863479
    30   6 C       55   6 C                                       1.3977984
    54   7 N       55   6 C                                       1.3696952
    28   6 C       56   6 C                                       1.4014744
    55   6 C       56   6 C                                       1.3988132
    56   6 C       57  16 S                                       1.7228870
    54   7 N       58   6 C                                       1.4459997
    58   6 C       59   6 C                                       1.5265885
    51   7 N       60   6 C                                       1.4460455
    60   6 C       61   6 C                                       1.5265043
    43   6 C       62   6 C                                       1.4014526
    62   6 C       63   6 C                                       1.3697249
    64   6 C       65   8 O                                       1.2167859
    66   6 C       67  16 S                                       1.7081099
    67  16 S       68   6 C                                       1.7246563
    68   6 C       69   6 C                                       1.3638133
    66   6 C       70   6 C                                       1.3884155
    69   6 C       70   6 C                                       1.4081671
    70   6 C       71   6 C                                       1.4510777
    71   6 C       72   6 C                                       1.3716915
    73   6 C       74   7 N                                       1.1494227
    75   6 C       76   7 N                                       1.1475930
     1   6 C       77   1 H                                       1.0842766
     6   6 C       78   1 H                                       1.0788117
     9   6 C       79   1 H                                       1.0774240
    17   6 C       80   1 H                                       1.0881737
    18   6 C       81   1 H                                       1.0866084
    19   6 C       82   1 H                                       1.0742605
    20   6 C       83   1 H                                       1.0743304
    21   6 C       84   1 H                                       1.0868791
    22   6 C       85   1 H                                       1.0889118
    22   6 C       86   1 H                                       1.0891658
    23   6 C       87   1 H                                       1.0883741
    26   6 C       88   1 H                                       1.0909906
    26   6 C       89   1 H                                       1.0929466
    27   6 C       90   1 H                                       1.0856753
    27   6 C       91   1 H                                       1.0875651
    27   6 C       92   1 H                                       1.0869367
    45   6 C       93   1 H                                       1.0908647
    45   6 C       94   1 H                                       1.0924309
    46   6 C       95   1 H                                       1.0877243
    46   6 C       96   1 H                                       1.0871804
    46   6 C       97   1 H                                       1.0862188
    58   6 C       98   1 H                                       1.0902352
    58   6 C       99   1 H                                       1.0927180
    59   6 C      100   1 H                                       1.0866369
    59   6 C      101   1 H                                       1.0875172
    59   6 C      102   1 H                                       1.0874873
    60   6 C      103   1 H                                       1.0901849
    60   6 C      104   1 H                                       1.0925649
    61   6 C      105   1 H                                       1.0875271
    61   6 C      106   1 H                                       1.0873829
    61   6 C      107   1 H                                       1.0866129
    62   6 C      108   1 H                                       1.0820279
    68   6 C      109   1 H                                       1.0724664 (min)
    69   6 C      110   1 H                                       1.0740692

 * 6 distinct bonds (by element types)

   Z      Z             #   av. dist./Å        max./Å        min./Å
   1 H    6 C          34     1.0859759     1.0929466     1.0724664
   6 C    6 C          49     1.4295723     1.5613306     1.3263114
   6 C    7 N          12     1.3038293     1.4460455     1.1475930
   6 C    8 O           2     1.2151632     1.2167859     1.2135405
   6 C   16 S          10     1.7313319     1.7501124     1.7081099
   7 N   16 S           2     1.6185361     1.6187052     1.6183671


optimized geometry written to: xtbopt.mol


           -------------------------------------------------
          | TOTAL ENERGY             -197.819262796589 Eh   |
          | GRADIENT NORM               0.000622458332 Eh/α |
          | HOMO-LUMO GAP               1.064537539225 eV   |
           -------------------------------------------------

------------------------------------------------------------------------
 * finished run on 2022/02/11 at 06:28:18.439     
------------------------------------------------------------------------
 total:
 * wall-time:     0 d,  0 h,  0 min, 22.856 sec
 *  cpu-time:     0 d,  0 h,  3 min,  2.742 sec
 * ratio c/w:     7.995 speedup
 SCF:
 * wall-time:     0 d,  0 h,  0 min,  0.283 sec
 *  cpu-time:     0 d,  0 h,  0 min,  2.251 sec
 * ratio c/w:     7.962 speedup
 ANC optimizer:
 * wall-time:     0 d,  0 h,  0 min, 22.510 sec
 *  cpu-time:     0 d,  0 h,  3 min,  0.062 sec
 * ratio c/w:     7.999 speedup

