      -----------------------------------------------------------      
     |                   =====================                   |     
     |                           x T B                           |     
     |                   =====================                   |     
     |                         S. Grimme                         |     
     |          Mulliken Center for Theoretical Chemistry        |     
     |                    University of Bonn                     |     
      -----------------------------------------------------------      

   * xtb version 6.4.1 (unknown) compiled by 'oda6@login1.crc.pitt.edu' on 2021-06-25

   xtb is free software: you can redistribute it and/or modify it under
   the terms of the GNU Lesser General Public License as published by
   the Free Software Foundation, either version 3 of the License, or
   (at your option) any later version.
   
   xtb is distributed in the hope that it will be useful,
   but WITHOUT ANY WARRANTY; without even the implied warranty of
   MERCHANTABILITY or FITNESS FOR A PARTICULAR PURPOSE.  See the
   GNU Lesser General Public License for more details.
   
   Cite this work as:
   * C. Bannwarth, E. Caldeweyher, S. Ehlert, A. Hansen, P. Pracht,
     J. Seibert, S. Spicher, S. Grimme, WIREs Comput. Mol. Sci., 2020, 11,
     e01493. DOI: 10.1002/wcms.1493
   
   for GFN2-xTB:
   * C. Bannwarth, S. Ehlert and S. Grimme., J. Chem. Theory Comput., 2019,
     15, 1652-1671. DOI: 10.1021/acs.jctc.8b01176
   for GFN1-xTB:
   * S. Grimme, C. Bannwarth, P. Shushkov, J. Chem. Theory Comput., 2017,
     13, 1989-2009. DOI: 10.1021/acs.jctc.7b00118
   for GFN0-xTB:
   * P. Pracht, E. Caldeweyher, S. Ehlert, S. Grimme, ChemRxiv, 2019, preprint.
     DOI: 10.26434/chemrxiv.8326202.v1
   for GFN-FF:
   * S. Spicher and S. Grimme, Angew. Chem. Int. Ed., 2020, 59, 15665-15673.
     DOI: 10.1002/anie.202004239
   
   for DFT-D4:
   * E. Caldeweyher, C. Bannwarth and S. Grimme, J. Chem. Phys., 2017,
     147, 034112. DOI: 10.1063/1.4993215
   * E. Caldeweyher, S. Ehlert, A. Hansen, H. Neugebauer, S. Spicher,
     C. Bannwarth and S. Grimme, J. Chem. Phys., 2019, 150, 154122.
     DOI: 10.1063/1.5090222
   * E. Caldeweyher, J.-M. Mewes, S. Ehlert and S. Grimme, Phys. Chem. Chem. Phys.
     2020, 22, 8499-8512. DOI: 10.1039/D0CP00502A
   
   for sTDA-xTB:
   * S. Grimme and C. Bannwarth, J. Chem. Phys., 2016, 145, 054103.
     DOI: 10.1063/1.4959605
   
   in the mass-spec context:
   * V. Asgeirsson, C. Bauer and S. Grimme, Chem. Sci., 2017, 8, 4879.
     DOI: 10.1039/c7sc00601b
   * J. Koopman and S. Grimme, ACS Omega 2019, 4, 12, 15120-15133.
     DOI: 10.1021/acsomega.9b02011
   
   for metadynamics refer to:
   * S. Grimme, J. Chem. Theory Comput., 2019, 155, 2847-2862
     DOI: 10.1021/acs.jctc.9b00143
   
   for SPH calculations refer to:
   * S. Spicher and S. Grimme, J. Chem. Theory Comput., 2021, 17, 1701-1714
     DOI: 10.1021/acs.jctc.0c01306
   
   with help from (in alphabetical order)
   P. Atkinson, C. Bannwarth, F. Bohle, G. Brandenburg, E. Caldeweyher
   M. Checinski, S. Dohm, S. Ehlert, S. Ehrlich, I. Gerasimov, J. Koopman
   C. Lavigne, S. Lehtola, F. März, M. Müller, F. Musil, H. Neugebauer
   J. Pisarek, C. Plett, P. Pracht, J. Seibert, P. Shushkov, S. Spicher
   M. Stahn, M. Steiner, T. Strunk, J. Stückrath, T. Rose, and J. Unsleber
   
 * started run on 2022/02/03 at 00:09:33.147     

           -------------------------------------------------
          |                Calculation Setup                |
           -------------------------------------------------

          program call               : /ihome/ghutchison/oda6/xtb/xtb-641/bin/xtb ../../FF_optimized/39_26_11.mol -opt
          hostname                   : smp-n39
          coordinate file            : ../../FF_optimized/39_26_11.mol
          omp threads                :                     8
          number of atoms            :                   114
          number of electrons        :                   380
          charge                     :                     0
          spin                       :                   0.0
          first test random number   :      0.27100008867448

   ID    Z sym.   atoms
    1    6 C      1-3, 5-13, 15, 17-24, 26, 27, 29-32, 36, 37, 39-43, 45, 46,
                  48, 49, 51, 52, 54-64, 66-68, 70, 72-76, 78
    2    8 O      4, 65
    3    7 N      14, 16, 33, 35, 47, 50, 53, 77, 79
    4   16 S      25, 28, 34, 38, 44
    5   35 Br     69, 71
    6    1 H      80-114
########################################################################
[WARNING] Please study the warnings concerning your input carefully
-1- prog_main_parseArguments: the use of '-opt' is discouraged, please use '--opt' next time
########################################################################

           -------------------------------------------------
          |                 G F N 2 - x T B                 |
           -------------------------------------------------

        Reference                      10.1021/acs.jctc.8b01176
      * Hamiltonian:
        H0-scaling (s, p, d)           1.850000    2.230000    2.230000
        zeta-weighting                 0.500000
      * Dispersion:
        s8                             2.700000
        a1                             0.520000
        a2                             5.000000
        s9                             5.000000
      * Repulsion:
        kExp                           1.500000    1.000000
        rExp                           1.000000
      * Coulomb:
        alpha                          2.000000
        third order                    shell-resolved
        anisotropic                    true
        a3                             3.000000
        a5                             4.000000
        cn-shift                       1.200000
        cn-exp                         4.000000
        max-rad                        5.000000


          ...................................................
          :                      SETUP                      :
          :.................................................:
          :  # basis functions                 393          :
          :  # atomic orbitals                 386          :
          :  # shells                          200          :
          :  # electrons                       380          :
          :  max. iterations                   250          :
          :  Hamiltonian                  GFN2-xTB          :
          :  restarted?                      false          :
          :  GBSA solvation                  false          :
          :  PC potential                    false          :
          :  electronic temp.          300.0000000     K    :
          :  accuracy                    1.0000000          :
          :  -> integral cutoff          0.2500000E+02      :
          :  -> integral neglect         0.1000000E-07      :
          :  -> SCF convergence          0.1000000E-05 Eh   :
          :  -> wf. convergence          0.1000000E-03 e    :
          :  Broyden damping             0.4000000          :
          ...................................................

 iter      E             dE          RMSdq      gap      omega  full diag
   1   -209.7343783 -0.209734E+03  0.502E+00    1.27       0.0  T
   2   -209.9515183 -0.217140E+00  0.321E+00    0.65       1.0  T
   3   -209.8828986  0.686196E-01  0.201E+00    0.93       1.0  T
   4   -210.1165551 -0.233656E+00  0.836E-01    1.03       1.0  T
   5   -210.1762720 -0.597170E-01  0.259E-01    0.66       1.0  T
   6   -210.1801957 -0.392362E-02  0.157E-01    0.85       1.0  T
   7   -210.1815458 -0.135013E-02  0.687E-02    0.77       1.0  T
   8   -210.1818237 -0.277903E-03  0.403E-02    0.79       1.0  T
   9   -210.1818625 -0.388374E-04  0.277E-02    0.77       1.0  T
  10   -210.1818720 -0.944159E-05  0.196E-02    0.78       1.0  T
  11   -210.1818830 -0.110438E-04  0.112E-02    0.77       1.0  T
  12   -210.1818881 -0.506348E-05  0.633E-03    0.78       1.5  T
  13   -210.1818894 -0.130427E-05  0.314E-03    0.77       3.0  T
  14   -210.1818898 -0.455693E-06  0.147E-03    0.77       6.4  T
  15   -210.1818900 -0.137388E-06  0.683E-04    0.77      13.7  T
  16   -210.1818900 -0.180023E-07  0.440E-04    0.77      21.3  T

   *** convergence criteria satisfied after 16 iterations ***

         #    Occupation            Energy/Eh            Energy/eV
      -------------------------------------------------------------
         1        2.0000           -0.8623230             -23.4650
       ...           ...                  ...                  ...
       184        2.0000           -0.4081048             -11.1051
       185        2.0000           -0.4041610             -10.9978
       186        2.0000           -0.4015297             -10.9262
       187        2.0000           -0.3942698             -10.7286
       188        2.0000           -0.3868204             -10.5259
       189        2.0000           -0.3769041             -10.2561
       190        2.0000           -0.3706819             -10.0868 (HOMO)
       191        0.0000           -0.3422348              -9.3127 (LUMO)
       192                         -0.3362305              -9.1493
       193                         -0.3309522              -9.0057
       194                         -0.3219850              -8.7617
       195                         -0.3117718              -8.4837
       ...                                ...                  ...
       386                          1.0704909              29.1295
      -------------------------------------------------------------
                  HL-Gap            0.0284471 Eh            0.7741 eV
             Fermi-level           -0.3564585 Eh           -9.6997 eV

 SCC (total)                   0 d,  0 h,  0 min,  0.405 sec
 SCC setup                      ...        0 min,  0.001 sec (  0.184%)
 Dispersion                     ...        0 min,  0.005 sec (  1.248%)
 classical contributions        ...        0 min,  0.000 sec (  0.038%)
 integral evaluation            ...        0 min,  0.020 sec (  4.954%)
 iterations                     ...        0 min,  0.338 sec ( 83.425%)
 molecular gradient             ...        0 min,  0.040 sec (  9.749%)
 printout                       ...        0 min,  0.002 sec (  0.372%)

         :::::::::::::::::::::::::::::::::::::::::::::::::::::
         ::                     SUMMARY                     ::
         :::::::::::::::::::::::::::::::::::::::::::::::::::::
         :: total energy            -207.077726075009 Eh    ::
         :: gradient norm              0.304538286373 Eh/a0 ::
         :: HOMO-LUMO gap              0.774085966077 eV    ::
         ::.................................................::
         :: SCC energy              -210.181889997626 Eh    ::
         :: -> isotropic ES            0.122124070962 Eh    ::
         :: -> anisotropic ES          0.018861483114 Eh    ::
         :: -> anisotropic XC          0.137436622632 Eh    ::
         :: -> dispersion             -0.185822638481 Eh    ::
         :: repulsion energy           3.103566996773 Eh    ::
         :: add. restraining           0.000000000000 Eh    ::
         :: total charge              -0.000000000235 e     ::
         :::::::::::::::::::::::::::::::::::::::::::::::::::::

      ----------------------------------------------------------- 
     |                   =====================                   |
     |                        A N C O P T                        |
     |                   =====================                   |
     |               Approximate Normal Coordinate               |
     |                Rational Function Optimizer                |
      ----------------------------------------------------------- 

          ...................................................
          :                      SETUP                      :
          :.................................................:
          :   optimization level            normal          :
          :   max. optcycles                   342          :
          :   ANC micro-cycles                  20          :
          :   degrees of freedom               336          :
          :.................................................:
          :   RF solver                   davidson          :
          :   write xtbopt.log                true          :
          :   linear?                        false          :
          :   energy convergence         0.5000000E-05 Eh   :
          :   grad. convergence          0.1000000E-02 Eh/α :
          :   maximium RF displ.         1.0000000          :
          :   Hlow (freq-cutoff)         0.1000000E-01      :
          :   Hmax (freq-cutoff)         5.0000000          :
          :   S6 in model hess.         20.0000000          :
          ...................................................

generating ANC from model Hessian ...
Using Lindh-Hessian (1995)
 Shifting diagonal of input Hessian by   1.011590915867128E-002
 Lowest  eigenvalues of input Hessian
    0.010000    0.000000    0.000000    0.000000    0.000000    0.000000
    0.000000    0.010124    0.010136    0.010141    0.010181    0.010192
    0.010246    0.010292    0.010317    0.010461    0.010524    0.010599
 Highest eigenvalues
    2.303211    2.337758    2.499291    2.502478    2.556756    2.556903
 

........................................................................
.............................. CYCLE    1 ..............................
........................................................................
   1   -210.1818900 -0.210182E+03  0.294E-04    0.77       0.0  T
   2   -210.1818900 -0.578154E-09  0.251E-04    0.77      37.3  T
   3   -210.1818900 -0.999563E-09  0.214E-04    0.77      43.7  T
     SCC iter.                  ...        0 min,  0.064 sec
     gradient                   ...        0 min,  0.038 sec
 * total energy  :  -207.0777261 Eh     change       -0.7263139E-08 Eh
   gradient norm :     0.3045390 Eh/α   predicted     0.0000000E+00 (-100.00%)
   displ. norm   :     0.4853771 α      lambda       -0.1042228E+00
   maximum displ.:     0.0915534 α      in ANC's #221, #132, #155, ...

........................................................................
.............................. CYCLE    2 ..............................
........................................................................
   1   -210.3076050 -0.210308E+03  0.358E-01    0.77       0.0  T
   2   -210.3088783 -0.127329E-02  0.210E-01    0.86       1.0  T
   3   -210.3082696  0.608668E-03  0.122E-01    0.80       1.0  T
   4   -210.3092863 -0.101669E-02  0.527E-02    0.86       1.0  T
   5   -210.3094814 -0.195055E-03  0.275E-02    0.83       1.0  T
   6   -210.3095272 -0.457947E-04  0.135E-02    0.84       1.0  T
   7   -210.3095356 -0.847166E-05  0.701E-03    0.83       1.3  T
   8   -210.3095368 -0.119604E-05  0.504E-03    0.84       1.9  T
   9   -210.3095372 -0.380987E-06  0.334E-03    0.84       2.8  T
  10   -210.3095377 -0.451995E-06  0.192E-03    0.84       4.9  T
  11   -210.3095378 -0.102218E-06  0.112E-03    0.84       8.3  T
  12   -210.3095378 -0.226622E-07  0.592E-04    0.84      15.8  T
  13   -210.3095378 -0.149062E-07  0.277E-04    0.84      33.8  T
     SCC iter.                  ...        0 min,  0.259 sec
     gradient                   ...        0 min,  0.040 sec
 * total energy  :  -207.1531518 Eh     change       -0.7542574E-01 Eh
   gradient norm :     0.1394292 Eh/α   predicted    -0.6444912E-01 ( -14.55%)
   displ. norm   :     0.4893813 α      lambda       -0.4180502E-01
   maximum displ.:     0.1116273 α      in ANC's #80, #95, #64, ...

........................................................................
.............................. CYCLE    3 ..............................
........................................................................
   1   -210.3610882 -0.210361E+03  0.292E-01    0.81       0.0  T
   2   -210.3618527 -0.764451E-03  0.167E-01    0.91       1.0  T
   3   -210.3612552  0.597488E-03  0.113E-01    0.84       1.0  T
   4   -210.3622215 -0.966327E-03  0.443E-02    0.90       1.0  T
   5   -210.3624104 -0.188850E-03  0.232E-02    0.88       1.0  T
   6   -210.3624461 -0.357053E-04  0.106E-02    0.89       1.0  T
   7   -210.3624499 -0.385033E-05  0.617E-03    0.88       1.5  T
   8   -210.3624506 -0.667330E-06  0.438E-03    0.88       2.1  T
   9   -210.3624510 -0.350858E-06  0.289E-03    0.88       3.2  T
  10   -210.3624513 -0.293102E-06  0.165E-03    0.88       5.7  T
  11   -210.3624513 -0.837781E-07  0.911E-04    0.88      10.3  T
  12   -210.3624514 -0.188265E-07  0.497E-04    0.88      18.8  T
     SCC iter.                  ...        0 min,  0.270 sec
     gradient                   ...        0 min,  0.038 sec
 * total energy  :  -207.1790627 Eh     change       -0.2591083E-01 Eh
   gradient norm :     0.0407806 Eh/α   predicted    -0.2590855E-01 (  -0.01%)
   displ. norm   :     0.5112021 α      lambda       -0.1179416E-01
   maximum displ.:     0.1382596 α      in ANC's #55, #69, #65, ...

........................................................................
.............................. CYCLE    4 ..............................
........................................................................
   1   -210.3656618 -0.210366E+03  0.249E-01    0.89       0.0  T
   2   -210.3657789 -0.117053E-03  0.142E-01    0.91       1.0  T
   3   -210.3654622  0.316629E-03  0.583E-02    0.90       1.0  T
   4   -210.3658382 -0.376013E-03  0.143E-02    0.90       1.0  T
   5   -210.3658508 -0.125382E-04  0.833E-03    0.90       1.1  T
   6   -210.3658531 -0.235483E-05  0.467E-03    0.90       2.0  T
   7   -210.3658541 -0.963095E-06  0.270E-03    0.90       3.5  T
   8   -210.3658542 -0.719403E-07  0.194E-03    0.90       4.8  T
   9   -210.3658542 -0.789951E-07  0.125E-03    0.90       7.5  T
  10   -210.3658543 -0.595488E-07  0.752E-04    0.90      12.5  T
  11   -210.3658543 -0.285780E-07  0.383E-04    0.90      24.5  T
     SCC iter.                  ...        0 min,  0.246 sec
     gradient                   ...        0 min,  0.038 sec
 * total energy  :  -207.1838383 Eh     change       -0.4775686E-02 Eh
   gradient norm :     0.0347271 Eh/α   predicted    -0.7438165E-02 (  55.75%)
   displ. norm   :     0.5764650 α      lambda       -0.1109131E-01
   maximum displ.:     0.1877791 α      in ANC's #16, #56, #10, ...

........................................................................
.............................. CYCLE    5 ..............................
........................................................................
   1   -210.3633319 -0.210363E+03  0.360E-01    0.91       0.0  T
   2   -210.3635577 -0.225763E-03  0.202E-01    0.92       1.0  T
   3   -210.3630534  0.504356E-03  0.721E-02    0.91       1.0  T
   4   -210.3636759 -0.622547E-03  0.145E-02    0.91       1.0  T
   5   -210.3636879 -0.119693E-04  0.841E-03    0.91       1.1  T
   6   -210.3636920 -0.410565E-05  0.468E-03    0.91       2.0  T
   7   -210.3636939 -0.192980E-05  0.206E-03    0.91       4.6  T
   8   -210.3636940 -0.126329E-06  0.143E-03    0.91       6.6  T
   9   -210.3636941 -0.417992E-07  0.928E-04    0.91      10.1  T
  10   -210.3636941 -0.252386E-07  0.516E-04    0.91      18.1  T
     SCC iter.                  ...        0 min,  0.226 sec
     gradient                   ...        0 min,  0.038 sec
 * total energy  :  -207.1873895 Eh     change       -0.3551162E-02 Eh
   gradient norm :     0.0351609 Eh/α   predicted    -0.7388535E-02 ( 108.06%)
   displ. norm   :     0.2884976 α      lambda       -0.3885118E-02
   maximum displ.:     0.0970294 α      in ANC's #17, #29, #15, ...

........................................................................
.............................. CYCLE    6 ..............................
........................................................................
   1   -210.3681774 -0.210368E+03  0.162E-01    0.91       0.0  T
   2   -210.3682264 -0.489769E-04  0.915E-02    0.90       1.0  T
   3   -210.3680005  0.225826E-03  0.453E-02    0.90       1.0  T
   4   -210.3682645 -0.263925E-03  0.850E-03    0.90       1.1  T
   5   -210.3682702 -0.570789E-05  0.416E-03    0.90       2.3  T
   6   -210.3682707 -0.511923E-06  0.215E-03    0.90       4.4  T
   7   -210.3682709 -0.197785E-06  0.121E-03    0.90       7.7  T
   8   -210.3682709 -0.122384E-07  0.870E-04    0.90      10.8  T
   9   -210.3682709 -0.137899E-07  0.548E-04    0.90      17.1  T
     SCC iter.                  ...        0 min,  0.201 sec
     gradient                   ...        0 min,  0.038 sec
 * total energy  :  -207.1895675 Eh     change       -0.2177990E-02 Eh
   gradient norm :     0.0252814 Eh/α   predicted    -0.2104243E-02 (  -3.39%)
   displ. norm   :     0.4977210 α      lambda       -0.4470629E-02
   maximum displ.:     0.1873965 α      in ANC's #17, #7, #37, ...

........................................................................
.............................. CYCLE    7 ..............................
........................................................................
   1   -210.3630845 -0.210363E+03  0.284E-01    0.91       0.0  T
   2   -210.3632153 -0.130853E-03  0.159E-01    0.89       1.0  T
   3   -210.3626694  0.545900E-03  0.682E-02    0.91       1.0  T
   4   -210.3633011 -0.631647E-03  0.132E-02    0.89       1.0  T
   5   -210.3633160 -0.149901E-04  0.665E-03    0.89       1.4  T
   6   -210.3633180 -0.191988E-05  0.302E-03    0.89       3.1  T
   7   -210.3633184 -0.471341E-06  0.169E-03    0.90       5.5  T
   8   -210.3633185 -0.853332E-07  0.119E-03    0.89       7.9  T
   9   -210.3633186 -0.450026E-07  0.821E-04    0.89      11.4  T
  10   -210.3633186 -0.149288E-07  0.467E-04    0.89      20.0  T
     SCC iter.                  ...        0 min,  0.201 sec
     gradient                   ...        0 min,  0.038 sec
 * total energy  :  -207.1896239 Eh     change       -0.5639629E-04 Eh
   gradient norm :     0.0313154 Eh/α   predicted    -0.2789065E-02 (4845.48%)
   displ. norm   :     0.2879775 α      lambda       -0.3984555E-02
   maximum displ.:     0.0837977 α      in ANC's #36, #17, #39, ...

........................................................................
.............................. CYCLE    8 ..............................
........................................................................
   1   -210.3655531 -0.210366E+03  0.189E-01    0.90       0.0  T
   2   -210.3656091 -0.559792E-04  0.106E-01    0.90       1.0  T
   3   -210.3654209  0.188197E-03  0.387E-02    0.89       1.0  T
   4   -210.3656442 -0.223262E-03  0.683E-03    0.90       1.4  T
   5   -210.3656471 -0.293572E-05  0.386E-03    0.90       2.4  T
   6   -210.3656477 -0.598186E-06  0.188E-03    0.90       5.0  T
   7   -210.3656479 -0.209260E-06  0.949E-04    0.90       9.9  T
   8   -210.3656480 -0.237210E-07  0.632E-04    0.90      14.8  T
     SCC iter.                  ...        0 min,  0.161 sec
     gradient                   ...        0 min,  0.038 sec
 * total energy  :  -207.1919359 Eh     change       -0.2312032E-02 Eh
   gradient norm :     0.0172500 Eh/α   predicted    -0.2157500E-02 (  -6.68%)
   displ. norm   :     0.4257332 α      lambda       -0.2603641E-02
   maximum displ.:     0.1290845 α      in ANC's #17, #41, #15, ...

........................................................................
.............................. CYCLE    9 ..............................
........................................................................
   1   -210.3516320 -0.210352E+03  0.269E-01    0.88       0.0  T
   2   -210.3517648 -0.132736E-03  0.149E-01    0.89       1.0  T
   3   -210.3514798  0.284994E-03  0.484E-02    0.86       1.0  T
   4   -210.3518251 -0.345295E-03  0.105E-02    0.89       1.0  T
   5   -210.3518334 -0.830211E-05  0.614E-03    0.89       1.5  T
   6   -210.3518364 -0.299533E-05  0.239E-03    0.89       3.9  T
   7   -210.3518367 -0.355108E-06  0.108E-03    0.89       8.7  T
   8   -210.3518368 -0.481950E-07  0.668E-04    0.89      14.0  T
   9   -210.3518368 -0.130743E-07  0.449E-04    0.89      20.8  T
     SCC iter.                  ...        0 min,  0.180 sec
     gradient                   ...        0 min,  0.038 sec
 * total energy  :  -207.1914781 Eh     change        0.4578268E-03 Eh
   gradient norm :     0.0419379 Eh/α   predicted    -0.1537776E-02 (-435.89%)
   displ. norm   :     0.2682346 α      lambda       -0.3825202E-02
   maximum displ.:     0.1066281 α      in ANC's #17, #41, #1, ...

........................................................................
.............................. CYCLE   10 ..............................
........................................................................
   1   -210.3662003 -0.210366E+03  0.180E-01    0.90       0.0  T
   2   -210.3662537 -0.533986E-04  0.100E-01    0.90       1.0  T
   3   -210.3660813  0.172431E-03  0.358E-02    0.90       1.0  T
   4   -210.3662834 -0.202141E-03  0.561E-03    0.89       1.7  T
   5   -210.3662856 -0.218921E-05  0.326E-03    0.90       2.9  T
   6   -210.3662864 -0.803747E-06  0.155E-03    0.90       6.0  T
   7   -210.3662866 -0.155950E-06  0.835E-04    0.90      11.2  T
   8   -210.3662866 -0.301039E-07  0.526E-04    0.90      17.8  T
     SCC iter.                  ...        0 min,  0.157 sec
     gradient                   ...        0 min,  0.038 sec
 * total energy  :  -207.1934917 Eh     change       -0.2013589E-02 Eh
   gradient norm :     0.0126647 Eh/α   predicted    -0.2050215E-02 (   1.82%)
   displ. norm   :     0.3974811 α      lambda       -0.1133226E-02
   maximum displ.:     0.1899583 α      in ANC's #17, #5, #21, ...

........................................................................
.............................. CYCLE   11 ..............................
........................................................................
   1   -210.3630504 -0.210363E+03  0.915E-02    0.90       0.0  T
   2   -210.3630591 -0.865921E-05  0.521E-02    0.89       1.0  T
   3   -210.3629344  0.124645E-03  0.304E-02    0.89       1.0  T
   4   -210.3630747 -0.140332E-03  0.505E-03    0.89       1.9  T
   5   -210.3630763 -0.158330E-05  0.288E-03    0.89       3.2  T
   6   -210.3630768 -0.426890E-06  0.119E-03    0.89       7.9  T
   7   -210.3630768 -0.703186E-07  0.643E-04    0.89      14.6  T
   8   -210.3630768 -0.117547E-07  0.448E-04    0.89      20.9  T
     SCC iter.                  ...        0 min,  0.158 sec
     gradient                   ...        0 min,  0.038 sec
 * total energy  :  -207.1941179 Eh     change       -0.6262003E-03 Eh
   gradient norm :     0.0131378 Eh/α   predicted    -0.6561315E-03 (   4.78%)
   displ. norm   :     0.6235363 α      lambda       -0.1770119E-02
   maximum displ.:     0.2783889 α      in ANC's #17, #5, #21, ...

........................................................................
.............................. CYCLE   12 ..............................
........................................................................
   1   -210.3589796 -0.210359E+03  0.185E-01    0.89       0.0  T
   2   -210.3590255 -0.459960E-04  0.103E-01    0.89       1.0  T
   3   -210.3587614  0.264101E-03  0.436E-02    0.88       1.0  T
   4   -210.3590648 -0.303336E-03  0.758E-03    0.89       1.2  T
   5   -210.3590679 -0.310900E-05  0.476E-03    0.89       2.0  T
   6   -210.3590692 -0.135204E-05  0.189E-03    0.89       4.9  T
   7   -210.3590694 -0.174845E-06  0.113E-03    0.89       8.3  T
   8   -210.3590695 -0.352981E-07  0.819E-04    0.89      11.4  T
   9   -210.3590695 -0.934691E-08  0.542E-04    0.89      17.3  T
     SCC iter.                  ...        0 min,  0.179 sec
     gradient                   ...        0 min,  0.038 sec
 * total energy  :  -207.1949749 Eh     change       -0.8570570E-03 Eh
   gradient norm :     0.0215301 Eh/α   predicted    -0.1229173E-02 (  43.42%)
   displ. norm   :     0.4324648 α      lambda       -0.1291152E-02
   maximum displ.:     0.2081406 α      in ANC's #17, #5, #3, ...

........................................................................
.............................. CYCLE   13 ..............................
........................................................................
   1   -210.3670837 -0.210367E+03  0.884E-02    0.88       0.0  T
   2   -210.3671167 -0.330247E-04  0.507E-02    0.89       1.0  T
   3   -210.3670334  0.832651E-04  0.310E-02    0.88       1.0  T
   4   -210.3671371 -0.103659E-03  0.692E-03    0.89       1.4  T
   5   -210.3671431 -0.597145E-05  0.294E-03    0.89       3.2  T
   6   -210.3671437 -0.650957E-06  0.140E-03    0.89       6.7  T
   7   -210.3671438 -0.108476E-06  0.576E-04    0.89      16.3  T
   8   -210.3671438 -0.130530E-07  0.330E-04    0.89      28.3  T
     SCC iter.                  ...        0 min,  0.158 sec
     gradient                   ...        0 min,  0.038 sec
 * total energy  :  -207.1958739 Eh     change       -0.8989156E-03 Eh
   gradient norm :     0.0134834 Eh/α   predicted    -0.7663165E-03 ( -14.75%)
   displ. norm   :     0.5659447 α      lambda       -0.1024500E-02
   maximum displ.:     0.2568171 α      in ANC's #17, #5, #3, ...

........................................................................
.............................. CYCLE   14 ..............................
........................................................................
   1   -210.3676154 -0.210368E+03  0.920E-02    0.88       0.0  T
   2   -210.3676330 -0.176060E-04  0.534E-02    0.88       1.0  T
   3   -210.3674993  0.133626E-03  0.316E-02    0.88       1.0  T
   4   -210.3676512 -0.151827E-03  0.627E-03    0.88       1.5  T
   5   -210.3676554 -0.424138E-05  0.281E-03    0.88       3.3  T
   6   -210.3676558 -0.428578E-06  0.138E-03    0.88       6.8  T
   7   -210.3676559 -0.110071E-06  0.603E-04    0.88      15.5  T
   8   -210.3676560 -0.190077E-07  0.351E-04    0.88      26.7  T
     SCC iter.                  ...        0 min,  0.166 sec
     gradient                   ...        0 min,  0.039 sec
 * total energy  :  -207.1966284 Eh     change       -0.7545121E-03 Eh
   gradient norm :     0.0113455 Eh/α   predicted    -0.6763275E-03 ( -10.36%)
   displ. norm   :     0.6353455 α      lambda       -0.9814992E-03
   maximum displ.:     0.2701253 α      in ANC's #5, #17, #3, ...

........................................................................
.............................. CYCLE   15 ..............................
........................................................................
   1   -210.3691679 -0.210369E+03  0.979E-02    0.88       0.0  T
   2   -210.3691904 -0.224358E-04  0.560E-02    0.89       1.0  T
   3   -210.3690909  0.994825E-04  0.261E-02    0.87       1.0  T
   4   -210.3692028 -0.111908E-03  0.643E-03    0.88       1.5  T
   5   -210.3692070 -0.420563E-05  0.288E-03    0.88       3.2  T
   6   -210.3692074 -0.421994E-06  0.147E-03    0.88       6.4  T
   7   -210.3692076 -0.148037E-06  0.604E-04    0.88      15.5  T
   8   -210.3692076 -0.264824E-07  0.326E-04    0.88      28.7  T
     SCC iter.                  ...        0 min,  0.150 sec
     gradient                   ...        0 min,  0.038 sec
 * total energy  :  -207.1973708 Eh     change       -0.7424167E-03 Eh
   gradient norm :     0.0145664 Eh/α   predicted    -0.6888545E-03 (  -7.21%)
   displ. norm   :     0.6357676 α      lambda       -0.8697143E-03
   maximum displ.:     0.2878975 α      in ANC's #5, #17, #3, ...

........................................................................
.............................. CYCLE   16 ..............................
........................................................................
   1   -210.3717810 -0.210372E+03  0.817E-02    0.88       0.0  T
   2   -210.3717906 -0.957292E-05  0.470E-02    0.88       1.0  T
   3   -210.3717253  0.652524E-04  0.212E-02    0.88       1.0  T
   4   -210.3717975 -0.721921E-04  0.468E-03    0.88       2.0  T
   5   -210.3717997 -0.216331E-05  0.234E-03    0.88       4.0  T
   6   -210.3718000 -0.357853E-06  0.116E-03    0.88       8.1  T
   7   -210.3718001 -0.894254E-07  0.573E-04    0.88      16.3  T
   8   -210.3718001 -0.212412E-07  0.339E-04    0.88      27.6  T
     SCC iter.                  ...        0 min,  0.150 sec
     gradient                   ...        0 min,  0.038 sec
 * total energy  :  -207.1981120 Eh     change       -0.7411967E-03 Eh
   gradient norm :     0.0103622 Eh/α   predicted    -0.6106273E-03 ( -17.62%)
   displ. norm   :     0.6649344 α      lambda       -0.8982922E-03
   maximum displ.:     0.3177019 α      in ANC's #5, #3, #17, ...

........................................................................
.............................. CYCLE   17 ..............................
........................................................................
   1   -210.3750236 -0.210375E+03  0.963E-02    0.88       0.0  T
   2   -210.3750388 -0.152204E-04  0.549E-02    0.88       1.0  T
   3   -210.3749640  0.748068E-04  0.235E-02    0.88       1.0  T
   4   -210.3750481 -0.841431E-04  0.532E-03    0.88       1.8  T
   5   -210.3750505 -0.242167E-05  0.252E-03    0.88       3.7  T
   6   -210.3750508 -0.208827E-06  0.144E-03    0.88       6.5  T
   7   -210.3750509 -0.154870E-06  0.808E-04    0.88      11.6  T
   8   -210.3750509 -0.293179E-07  0.572E-04    0.88      16.4  T
     SCC iter.                  ...        0 min,  0.146 sec
     gradient                   ...        0 min,  0.038 sec
 * total energy  :  -207.1988495 Eh     change       -0.7375098E-03 Eh
   gradient norm :     0.0071804 Eh/α   predicted    -0.6477321E-03 ( -12.17%)
   displ. norm   :     0.7336919 α      lambda       -0.8146013E-03
   maximum displ.:     0.3537928 α      in ANC's #5, #3, #6, ...

........................................................................
.............................. CYCLE   18 ..............................
........................................................................
   1   -210.3683543 -0.210368E+03  0.104E-01    0.88       0.0  T
   2   -210.3683678 -0.135037E-04  0.592E-02    0.88       1.0  T
   3   -210.3682962  0.716157E-04  0.226E-02    0.88       1.0  T
   4   -210.3683764 -0.801853E-04  0.517E-03    0.88       1.8  T
   5   -210.3683779 -0.157841E-05  0.306E-03    0.88       3.1  T
   6   -210.3683785 -0.556770E-06  0.157E-03    0.88       6.0  T
   7   -210.3683787 -0.161964E-06  0.913E-04    0.88      10.3  T
   8   -210.3683787 -0.263639E-07  0.660E-04    0.88      14.2  T
     SCC iter.                  ...        0 min,  0.164 sec
     gradient                   ...        0 min,  0.038 sec
 * total energy  :  -207.1994869 Eh     change       -0.6373880E-03 Eh
   gradient norm :     0.0100898 Eh/α   predicted    -0.6265561E-03 (  -1.70%)
   displ. norm   :     0.6726319 α      lambda       -0.8286571E-03
   maximum displ.:     0.3404596 α      in ANC's #5, #3, #6, ...

........................................................................
.............................. CYCLE   19 ..............................
........................................................................
   1   -210.3737263 -0.210374E+03  0.988E-02    0.88       0.0  T
   2   -210.3737380 -0.116633E-04  0.558E-02    0.88       1.0  T
   3   -210.3736953  0.426969E-04  0.188E-02    0.88       1.0  T
   4   -210.3737440 -0.487152E-04  0.528E-03    0.88       1.8  T
   5   -210.3737451 -0.116188E-05  0.292E-03    0.88       3.2  T
   6   -210.3737455 -0.384353E-06  0.159E-03    0.88       5.9  T
   7   -210.3737456 -0.105595E-06  0.103E-03    0.88       9.1  T
   8   -210.3737456  0.143584E-08  0.784E-04    0.88      11.9  T
   9   -210.3737456 -0.129084E-07  0.414E-04    0.88      22.6  T
     SCC iter.                  ...        0 min,  0.167 sec
     gradient                   ...        0 min,  0.038 sec
 * total energy  :  -207.2001202 Eh     change       -0.6332938E-03 Eh
   gradient norm :     0.0127714 Eh/α   predicted    -0.6017861E-03 (  -4.98%)
   displ. norm   :     0.7070141 α      lambda       -0.7502201E-03
   maximum displ.:     0.3641902 α      in ANC's #5, #3, #6, ...

........................................................................
.............................. CYCLE   20 ..............................
........................................................................
   1   -210.3682243 -0.210368E+03  0.101E-01    0.87       0.0  T
   2   -210.3682358 -0.115044E-04  0.571E-02    0.88       1.0  T
   3   -210.3681965  0.393630E-04  0.174E-02    0.87       1.0  T
   4   -210.3682419 -0.454532E-04  0.463E-03    0.87       2.0  T
   5   -210.3682427 -0.737184E-06  0.308E-03    0.87       3.0  T
   6   -210.3682434 -0.731551E-06  0.124E-03    0.87       7.5  T
   7   -210.3682435 -0.585962E-07  0.826E-04    0.87      11.3  T
   8   -210.3682435 -0.613755E-08  0.620E-04    0.87      15.1  T
     SCC iter.                  ...        0 min,  0.150 sec
     gradient                   ...        0 min,  0.038 sec
 * total energy  :  -207.2007495 Eh     change       -0.6293064E-03 Eh
   gradient norm :     0.0115630 Eh/α   predicted    -0.5626156E-03 ( -10.60%)
   displ. norm   :     0.7023765 α      lambda       -0.8626173E-03
   maximum displ.:     0.3644929 α      in ANC's #5, #3, #6, ...
 * RMSD in coord.:     0.7356126 α      energy gain  -0.1230234E+00 Eh

generating ANC from model Hessian ...
Using Lindh-Hessian (1995)
 Shifting diagonal of input Hessian by   1.042671054610377E-002
 Lowest  eigenvalues of input Hessian
    0.010000    0.000000    0.000000    0.000000    0.000000    0.000000
    0.000000    0.010430    0.010441    0.010455    0.010482    0.010519
    0.010621    0.010665    0.010827    0.010922    0.011026    0.011138
 Highest eigenvalues
    2.269248    2.272068    2.605614    2.616803    2.657067    2.660333
 

........................................................................
.............................. CYCLE   21 ..............................
........................................................................
   1   -210.3722792 -0.210372E+03  0.888E-02    0.88       0.0  T
   2   -210.3722877 -0.846131E-05  0.506E-02    0.87       1.0  T
   3   -210.3722057  0.820470E-04  0.258E-02    0.87       1.0  T
   4   -210.3722951 -0.894177E-04  0.632E-03    0.87       1.5  T
   5   -210.3722988 -0.371947E-05  0.318E-03    0.87       2.9  T
   6   -210.3722994 -0.599439E-06  0.165E-03    0.87       5.7  T
   7   -210.3722995 -0.133074E-06  0.103E-03    0.87       9.1  T
   8   -210.3722995 -0.149207E-07  0.791E-04    0.87      11.8  T
   9   -210.3722995 -0.552291E-08  0.494E-04    0.87      19.0  T
     SCC iter.                  ...        0 min,  0.186 sec
     gradient                   ...        0 min,  0.038 sec
 * total energy  :  -207.2014091 Eh     change       -0.6596163E-03 Eh
   gradient norm :     0.0131285 Eh/α   predicted     0.0000000E+00 (-100.00%)
   displ. norm   :     0.1152642 α      lambda       -0.3312716E-03
   maximum displ.:     0.0567826 α      in ANC's #6, #2, #4, ...

........................................................................
.............................. CYCLE   22 ..............................
........................................................................
   1   -210.3726190 -0.210373E+03  0.460E-02    0.87       0.0  T
   2   -210.3726219 -0.287507E-05  0.257E-02    0.87       1.0  T
   3   -210.3726115  0.103292E-04  0.953E-03    0.87       1.0  T
   4   -210.3726235 -0.119951E-04  0.190E-03    0.87       4.9  T
   5   -210.3726237 -0.185952E-06  0.110E-03    0.87       8.5  T
   6   -210.3726238 -0.598842E-07  0.592E-04    0.87      15.8  T
   7   -210.3726238 -0.263224E-07  0.300E-04    0.87      31.2  T
     SCC iter.                  ...        0 min,  0.145 sec
     gradient                   ...        0 min,  0.038 sec
 * total energy  :  -207.2016181 Eh     change       -0.2089541E-03 Eh
   gradient norm :     0.0053942 Eh/α   predicted    -0.1678431E-03 ( -19.67%)
   displ. norm   :     0.3027609 α      lambda       -0.5619389E-03
   maximum displ.:     0.1480172 α      in ANC's #6, #12, #4, ...

........................................................................
.............................. CYCLE   23 ..............................
........................................................................
   1   -210.3742223 -0.210374E+03  0.938E-02    0.87       0.0  T
   2   -210.3742343 -0.120044E-04  0.527E-02    0.87       1.0  T
   3   -210.3741961  0.382184E-04  0.182E-02    0.87       1.0  T
   4   -210.3742415 -0.454445E-04  0.355E-03    0.87       2.6  T
   5   -210.3742421 -0.546008E-06  0.205E-03    0.87       4.6  T
   6   -210.3742423 -0.182194E-06  0.103E-03    0.87       9.1  T
   7   -210.3742423 -0.882305E-07  0.564E-04    0.87      16.6  T
   8   -210.3742424 -0.122754E-07  0.398E-04    0.87      23.6  T
     SCC iter.                  ...        0 min,  0.166 sec
     gradient                   ...        0 min,  0.038 sec
 * total energy  :  -207.2016618 Eh     change       -0.4375670E-04 Eh
   gradient norm :     0.0217028 Eh/α   predicted    -0.3067261E-03 ( 600.98%)
   displ. norm   :     0.1648951 α      lambda       -0.6241371E-03
   maximum displ.:     0.0813618 α      in ANC's #6, #2, #4, ...

........................................................................
.............................. CYCLE   24 ..............................
........................................................................
   1   -210.3767197 -0.210377E+03  0.734E-02    0.87       0.0  T
   2   -210.3767281 -0.843224E-05  0.407E-02    0.87       1.0  T
   3   -210.3767218  0.637587E-05  0.846E-03    0.87       1.1  T
   4   -210.3767316 -0.984420E-05  0.219E-03    0.87       4.3  T
   5   -210.3767318 -0.177771E-06  0.131E-03    0.87       7.1  T
   6   -210.3767319 -0.114011E-06  0.635E-04    0.87      14.8  T
   7   -210.3767319 -0.289662E-07  0.346E-04    0.87      27.1  T
     SCC iter.                  ...        0 min,  0.148 sec
     gradient                   ...        0 min,  0.038 sec
 * total energy  :  -207.2020319 Eh     change       -0.3700927E-03 Eh
   gradient norm :     0.0104660 Eh/α   predicted    -0.3205563E-03 ( -13.38%)
   displ. norm   :     0.2461808 α      lambda       -0.4651502E-03
   maximum displ.:     0.1281086 α      in ANC's #6, #2, #4, ...

........................................................................
.............................. CYCLE   25 ..............................
........................................................................
   1   -210.3764193 -0.210376E+03  0.818E-02    0.87       0.0  T
   2   -210.3764283 -0.906978E-05  0.455E-02    0.87       1.0  T
   3   -210.3764185  0.980566E-05  0.110E-02    0.87       1.0  T
   4   -210.3764324 -0.138556E-04  0.233E-03    0.87       4.0  T
   5   -210.3764324 -0.222602E-07  0.160E-03    0.87       5.8  T
   6   -210.3764326 -0.230732E-06  0.723E-04    0.87      13.0  T
   7   -210.3764327 -0.348236E-07  0.362E-04    0.87      25.9  T
     SCC iter.                  ...        0 min,  0.147 sec
     gradient                   ...        0 min,  0.038 sec
 * total energy  :  -207.2022446 Eh     change       -0.2126600E-03 Eh
   gradient norm :     0.0087634 Eh/α   predicted    -0.2466725E-03 (  15.99%)
   displ. norm   :     0.3233582 α      lambda       -0.4032888E-03
   maximum displ.:     0.1714727 α      in ANC's #6, #2, #4, ...

........................................................................
.............................. CYCLE   26 ..............................
........................................................................
   1   -210.3760511 -0.210376E+03  0.485E-02    0.87       0.0  T
   2   -210.3760534 -0.229589E-05  0.273E-02    0.87       1.0  T
   3   -210.3760496  0.386052E-05  0.626E-03    0.87       1.5  T
   4   -210.3760542 -0.463589E-05  0.231E-03    0.87       4.1  T
   5   -210.3760544 -0.203940E-06  0.136E-03    0.87       6.9  T
   6   -210.3760546 -0.155686E-06  0.648E-04    0.87      14.5  T
   7   -210.3760546 -0.178098E-07  0.447E-04    0.87      20.9  T
     SCC iter.                  ...        0 min,  0.145 sec
     gradient                   ...        0 min,  0.038 sec
 * total energy  :  -207.2025906 Eh     change       -0.3460588E-03 Eh
   gradient norm :     0.0079808 Eh/α   predicted    -0.2227306E-03 ( -35.64%)
   displ. norm   :     0.5913272 α      lambda       -0.6231468E-03
   maximum displ.:     0.3107085 α      in ANC's #6, #2, #4, ...

........................................................................
.............................. CYCLE   27 ..............................
........................................................................
   1   -210.3743093 -0.210374E+03  0.772E-02    0.86       0.0  T
   2   -210.3743142 -0.489553E-05  0.437E-02    0.86       1.0  T
   3   -210.3743022  0.120132E-04  0.110E-02    0.86       1.0  T
   4   -210.3743162 -0.139948E-04  0.374E-03    0.86       2.5  T
   5   -210.3743165 -0.269557E-06  0.228E-03    0.86       4.1  T
   6   -210.3743169 -0.457557E-06  0.105E-03    0.86       8.9  T
   7   -210.3743170 -0.319580E-07  0.770E-04    0.86      12.2  T
   8   -210.3743170 -0.446801E-08  0.521E-04    0.86      18.0  T
     SCC iter.                  ...        0 min,  0.164 sec
     gradient                   ...        0 min,  0.039 sec
 * total energy  :  -207.2030883 Eh     change       -0.4977033E-03 Eh
   gradient norm :     0.0055776 Eh/α   predicted    -0.4205226E-03 ( -15.51%)
   displ. norm   :     0.7029891 α      lambda       -0.7138326E-03
   maximum displ.:     0.3797766 α      in ANC's #6, #2, #4, ...

........................................................................
.............................. CYCLE   28 ..............................
........................................................................
   1   -210.3715202 -0.210372E+03  0.124E-01    0.86       0.0  T
   2   -210.3715377 -0.175004E-04  0.692E-02    0.86       1.0  T
   3   -210.3715210  0.166953E-04  0.158E-02    0.86       1.0  T
   4   -210.3715459 -0.249112E-04  0.430E-03    0.86       2.2  T
   5   -210.3715459 -0.108464E-07  0.226E-03    0.86       4.1  T
   6   -210.3715463 -0.364185E-06  0.124E-03    0.86       7.6  T
   7   -210.3715463 -0.438514E-07  0.899E-04    0.86      10.4  T
   8   -210.3715464 -0.864412E-08  0.600E-04    0.86      15.6  T
     SCC iter.                  ...        0 min,  0.163 sec
     gradient                   ...        0 min,  0.038 sec
 * total energy  :  -207.2034329 Eh     change       -0.3445600E-03 Eh
   gradient norm :     0.0106878 Eh/α   predicted    -0.5333042E-03 (  54.78%)
   displ. norm   :     0.5165034 α      lambda       -0.7021849E-03
   maximum displ.:     0.2735086 α      in ANC's #6, #2, #4, ...

........................................................................
.............................. CYCLE   29 ..............................
........................................................................
   1   -210.3732488 -0.210373E+03  0.824E-02    0.86       0.0  T
   2   -210.3732547 -0.591517E-05  0.462E-02    0.86       1.0  T
   3   -210.3732397  0.149850E-04  0.117E-02    0.86       1.0  T
   4   -210.3732580 -0.182903E-04  0.333E-03    0.86       2.8  T
   5   -210.3732581 -0.555871E-07  0.200E-03    0.86       4.7  T
   6   -210.3732584 -0.321663E-06  0.102E-03    0.86       9.2  T
   7   -210.3732584 -0.147359E-07  0.766E-04    0.86      12.2  T
   8   -210.3732584 -0.639076E-08  0.449E-04    0.86      20.8  T
     SCC iter.                  ...        0 min,  0.164 sec
     gradient                   ...        0 min,  0.038 sec
 * total energy  :  -207.2039726 Eh     change       -0.5396814E-03 Eh
   gradient norm :     0.0077187 Eh/α   predicted    -0.4447600E-03 ( -17.59%)
   displ. norm   :     0.6212667 α      lambda       -0.6547712E-03
   maximum displ.:     0.3453898 α      in ANC's #6, #2, #4, ...

........................................................................
.............................. CYCLE   30 ..............................
........................................................................
   1   -210.3755178 -0.210376E+03  0.954E-02    0.86       0.0  T
   2   -210.3755267 -0.888955E-05  0.534E-02    0.86       1.0  T
   3   -210.3754954  0.312991E-04  0.159E-02    0.86       1.0  T
   4   -210.3755321 -0.367118E-04  0.391E-03    0.86       2.4  T
   5   -210.3755323 -0.187282E-06  0.258E-03    0.86       3.6  T
   6   -210.3755328 -0.449437E-06  0.118E-03    0.86       7.9  T
   7   -210.3755328 -0.326668E-07  0.856E-04    0.86      10.9  T
   8   -210.3755328 -0.623226E-08  0.576E-04    0.86      16.2  T
     SCC iter.                  ...        0 min,  0.165 sec
     gradient                   ...        0 min,  0.038 sec
 * total energy  :  -207.2044621 Eh     change       -0.4895066E-03 Eh
   gradient norm :     0.0063154 Eh/α   predicted    -0.4537544E-03 (  -7.30%)
   displ. norm   :     0.6841924 α      lambda       -0.6473762E-03
   maximum displ.:     0.3914975 α      in ANC's #6, #2, #4, ...

........................................................................
.............................. CYCLE   31 ..............................
........................................................................
   1   -210.3785730 -0.210379E+03  0.906E-02    0.86       0.0  T
   2   -210.3785808 -0.780629E-05  0.510E-02    0.85       1.0  T
   3   -210.3785577  0.231165E-04  0.150E-02    0.86       1.0  T
   4   -210.3785853 -0.276527E-04  0.402E-03    0.86       2.3  T
   5   -210.3785854 -0.524652E-07  0.282E-03    0.86       3.3  T
   6   -210.3785860 -0.611017E-06  0.130E-03    0.86       7.2  T
   7   -210.3785860 -0.533874E-07  0.943E-04    0.86       9.9  T
   8   -210.3785860 -0.197764E-08  0.649E-04    0.86      14.4  T
     SCC iter.                  ...        0 min,  0.164 sec
     gradient                   ...        0 min,  0.038 sec
 * total energy  :  -207.2049759 Eh     change       -0.5138463E-03 Eh
   gradient norm :     0.0059547 Eh/α   predicted    -0.4752186E-03 (  -7.52%)
   displ. norm   :     0.6804705 α      lambda       -0.6071193E-03
   maximum displ.:     0.3914823 α      in ANC's #6, #2, #4, ...

........................................................................
.............................. CYCLE   32 ..............................
........................................................................
   1   -210.3796887 -0.210380E+03  0.855E-02    0.86       0.0  T
   2   -210.3796953 -0.663771E-05  0.481E-02    0.85       1.0  T
   3   -210.3796653  0.300226E-04  0.160E-02    0.86       1.0  T
   4   -210.3796996 -0.343183E-04  0.431E-03    0.86       2.2  T
   5   -210.3796999 -0.291534E-06  0.290E-03    0.86       3.2  T
   6   -210.3797005 -0.576616E-06  0.139E-03    0.86       6.7  T
   7   -210.3797005 -0.542405E-07  0.964E-04    0.86       9.7  T
   8   -210.3797005  0.374371E-09  0.659E-04    0.86      14.2  T
     SCC iter.                  ...        0 min,  0.170 sec
     gradient                   ...        0 min,  0.038 sec
 * total energy  :  -207.2055241 Eh     change       -0.5482284E-03 Eh
   gradient norm :     0.0055021 Eh/α   predicted    -0.4441287E-03 ( -18.99%)
   displ. norm   :     0.7058748 α      lambda       -0.6487811E-03
   maximum displ.:     0.4060367 α      in ANC's #6, #4, #2, ...

........................................................................
.............................. CYCLE   33 ..............................
........................................................................
   1   -210.3810537 -0.210381E+03  0.907E-02    0.86       0.0  T
   2   -210.3810627 -0.894256E-05  0.509E-02    0.86       1.0  T
   3   -210.3810318  0.308335E-04  0.161E-02    0.86       1.0  T
   4   -210.3810675 -0.356876E-04  0.432E-03    0.86       2.2  T
   5   -210.3810681 -0.571081E-06  0.282E-03    0.86       3.3  T
   6   -210.3810686 -0.513740E-06  0.137E-03    0.86       6.8  T
   7   -210.3810687 -0.716421E-07  0.916E-04    0.86      10.2  T
   8   -210.3810687 -0.315043E-08  0.676E-04    0.86      13.9  T
     SCC iter.                  ...        0 min,  0.171 sec
     gradient                   ...        0 min,  0.038 sec
 * total energy  :  -207.2061059 Eh     change       -0.5817591E-03 Eh
   gradient norm :     0.0043583 Eh/α   predicted    -0.4860361E-03 ( -16.45%)
   displ. norm   :     0.8059984 α      lambda       -0.6533364E-03
   maximum displ.:     0.4622984 α      in ANC's #6, #4, #2, ...

........................................................................
.............................. CYCLE   34 ..............................
........................................................................
   1   -210.3773413 -0.210377E+03  0.102E-01    0.86       0.0  T
   2   -210.3773523 -0.109593E-04  0.571E-02    0.86       1.0  T
   3   -210.3773361  0.161276E-04  0.133E-02    0.86       1.0  T
   4   -210.3773569 -0.207574E-04  0.439E-03    0.86       2.1  T
   5   -210.3773571 -0.209756E-06  0.284E-03    0.86       3.3  T
   6   -210.3773577 -0.624888E-06  0.143E-03    0.86       6.5  T
   7   -210.3773579 -0.109218E-06  0.930E-04    0.86      10.1  T
   8   -210.3773579 -0.349874E-08  0.661E-04    0.86      14.2  T
     SCC iter.                  ...        0 min,  0.168 sec
     gradient                   ...        0 min,  0.037 sec
 * total energy  :  -207.2067084 Eh     change       -0.6025355E-03 Eh
   gradient norm :     0.0053186 Eh/α   predicted    -0.5388883E-03 ( -10.56%)
   displ. norm   :     0.8532972 α      lambda       -0.6931406E-03
   maximum displ.:     0.4901268 α      in ANC's #6, #4, #2, ...

........................................................................
.............................. CYCLE   35 ..............................
........................................................................
   1   -210.3794224 -0.210379E+03  0.910E-02    0.86       0.0  T
   2   -210.3794300 -0.760759E-05  0.514E-02    0.86       1.0  T
   3   -210.3794064  0.235714E-04  0.145E-02    0.86       1.0  T
   4   -210.3794333 -0.268436E-04  0.459E-03    0.85       2.0  T
   5   -210.3794339 -0.596722E-06  0.296E-03    0.86       3.2  T
   6   -210.3794346 -0.757368E-06  0.134E-03    0.86       7.0  T
   7   -210.3794347 -0.829048E-07  0.893E-04    0.86      10.5  T
   8   -210.3794347 -0.137365E-08  0.666E-04    0.86      14.1  T
     SCC iter.                  ...        0 min,  0.168 sec
     gradient                   ...        0 min,  0.038 sec
 * total energy  :  -207.2073437 Eh     change       -0.6352526E-03 Eh
   gradient norm :     0.0065909 Eh/α   predicted    -0.5989211E-03 (  -5.72%)
   displ. norm   :     0.8634782 α      lambda       -0.6980052E-03
   maximum displ.:     0.4958610 α      in ANC's #6, #4, #2, ...

........................................................................
.............................. CYCLE   36 ..............................
........................................................................
   1   -210.3769222 -0.210377E+03  0.101E-01    0.86       0.0  T
   2   -210.3769324 -0.101483E-04  0.568E-02    0.85       1.0  T
   3   -210.3769083  0.241333E-04  0.143E-02    0.85       1.0  T
   4   -210.3769373 -0.290251E-04  0.444E-03    0.85       2.1  T
   5   -210.3769377 -0.405104E-06  0.286E-03    0.85       3.3  T
   6   -210.3769384 -0.670705E-06  0.124E-03    0.85       7.6  T
   7   -210.3769384 -0.532962E-07  0.847E-04    0.85      11.1  T
   8   -210.3769384 -0.935870E-09  0.616E-04    0.85      15.2  T
     SCC iter.                  ...        0 min,  0.187 sec
     gradient                   ...        0 min,  0.038 sec
 * total energy  :  -207.2079770 Eh     change       -0.6333076E-03 Eh
   gradient norm :     0.0075670 Eh/α   predicted    -0.6092197E-03 (  -3.80%)
   displ. norm   :     0.8494552 α      lambda       -0.7118771E-03
   maximum displ.:     0.4871719 α      in ANC's #6, #4, #2, ...

........................................................................
.............................. CYCLE   37 ..............................
........................................................................
   1   -210.3779084 -0.210378E+03  0.884E-02    0.85       0.0  T
   2   -210.3779127 -0.428546E-05  0.504E-02    0.85       1.0  T
   3   -210.3778217  0.909941E-04  0.257E-02    0.85       1.0  T
   4   -210.3779222 -0.100448E-03  0.442E-03    0.85       2.1  T
   5   -210.3779228 -0.632337E-06  0.298E-03    0.85       3.1  T
   6   -210.3779234 -0.555893E-06  0.115E-03    0.85       8.2  T
   7   -210.3779234 -0.405843E-07  0.790E-04    0.85      11.8  T
   8   -210.3779234 -0.918433E-08  0.557E-04    0.85      16.8  T
     SCC iter.                  ...        0 min,  0.197 sec
     gradient                   ...        0 min,  0.037 sec
 * total energy  :  -207.2086169 Eh     change       -0.6399419E-03 Eh
   gradient norm :     0.0063920 Eh/α   predicted    -0.6127772E-03 (  -4.24%)
   displ. norm   :     0.8424296 α      lambda       -0.6838364E-03
   maximum displ.:     0.4797601 α      in ANC's #6, #4, #2, ...

........................................................................
.............................. CYCLE   38 ..............................
........................................................................
   1   -210.3798265 -0.210380E+03  0.888E-02    0.85       0.0  T
   2   -210.3798320 -0.548489E-05  0.506E-02    0.85       1.0  T
   3   -210.3797173  0.114685E-03  0.282E-02    0.84       1.0  T
   4   -210.3798451 -0.127721E-03  0.473E-03    0.85       2.0  T
   5   -210.3798461 -0.100671E-05  0.309E-03    0.85       3.0  T
   6   -210.3798466 -0.536625E-06  0.124E-03    0.85       7.6  T
   7   -210.3798467 -0.681065E-07  0.783E-04    0.85      12.0  T
   8   -210.3798467 -0.134632E-07  0.560E-04    0.85      16.7  T
     SCC iter.                  ...        0 min,  0.195 sec
     gradient                   ...        0 min,  0.037 sec
 * total energy  :  -207.2092397 Eh     change       -0.6227675E-03 Eh
   gradient norm :     0.0057319 Eh/α   predicted    -0.5845811E-03 (  -6.13%)
   displ. norm   :     0.8756136 α      lambda       -0.6704955E-03
   maximum displ.:     0.5043468 α      in ANC's #6, #4, #2, ...

........................................................................
.............................. CYCLE   39 ..............................
........................................................................
   1   -210.3758275 -0.210376E+03  0.952E-02    0.85       0.0  T
   2   -210.3758326 -0.516399E-05  0.542E-02    0.85       1.0  T
   3   -210.3756970  0.135586E-03  0.298E-02    0.84       1.0  T
   4   -210.3758463 -0.149302E-03  0.473E-03    0.85       2.0  T
   5   -210.3758472 -0.855902E-06  0.309E-03    0.85       3.0  T
   6   -210.3758477 -0.535986E-06  0.122E-03    0.85       7.7  T
   7   -210.3758478 -0.631309E-07  0.786E-04    0.85      11.9  T
   8   -210.3758478 -0.153061E-07  0.561E-04    0.85      16.7  T
     SCC iter.                  ...        0 min,  0.191 sec
     gradient                   ...        0 min,  0.037 sec
 * total energy  :  -207.2098463 Eh     change       -0.6065700E-03 Eh
   gradient norm :     0.0073280 Eh/α   predicted    -0.5922922E-03 (  -2.35%)
   displ. norm   :     0.8220094 α      lambda       -0.6459688E-03
   maximum displ.:     0.4614238 α      in ANC's #6, #4, #2, ...

........................................................................
.............................. CYCLE   40 ..............................
........................................................................
   1   -210.3840672 -0.210384E+03  0.853E-02    0.85       0.0  T
   2   -210.3840722 -0.496085E-05  0.487E-02    0.85       1.0  T
   3   -210.3839407  0.131431E-03  0.303E-02    0.84       1.0  T
   4   -210.3840874 -0.146675E-03  0.481E-03    0.85       1.9  T
   5   -210.3840887 -0.132194E-05  0.299E-03    0.85       3.1  T
   6   -210.3840892 -0.506628E-06  0.126E-03    0.85       7.5  T
   7   -210.3840893 -0.737108E-07  0.733E-04    0.85      12.8  T
   8   -210.3840893 -0.141445E-07  0.533E-04    0.85      17.6  T
     SCC iter.                  ...        0 min,  0.181 sec
     gradient                   ...        0 min,  0.037 sec
 * total energy  :  -207.2103767 Eh     change       -0.5304346E-03 Eh
   gradient norm :     0.0059559 Eh/α   predicted    -0.5412272E-03 (   2.03%)
   displ. norm   :     0.8996524 α      lambda       -0.6261985E-03
   maximum displ.:     0.5225275 α      in ANC's #6, #4, #2, ...

........................................................................
.............................. CYCLE   41 ..............................
........................................................................
   1   -210.3727013 -0.210373E+03  0.936E-02    0.84       0.0  T
   2   -210.3727075 -0.618141E-05  0.533E-02    0.85       1.0  T
   3   -210.3726562  0.512644E-04  0.199E-02    0.84       1.0  T
   4   -210.3727129 -0.567274E-04  0.455E-03    0.85       2.1  T
   5   -210.3727132 -0.284528E-06  0.317E-03    0.84       3.0  T
   6   -210.3727140 -0.767612E-06  0.146E-03    0.84       6.4  T
   7   -210.3727140 -0.477739E-07  0.113E-03    0.84       8.3  T
   8   -210.3727141 -0.978960E-08  0.777E-04    0.84      12.0  T
   9   -210.3727141 -0.236522E-07  0.430E-04    0.84      21.8  T
     SCC iter.                  ...        0 min,  0.189 sec
     gradient                   ...        0 min,  0.037 sec
 * total energy  :  -207.2108945 Eh     change       -0.5178287E-03 Eh
   gradient norm :     0.0100987 Eh/α   predicted    -0.5665219E-03 (   9.40%)
   displ. norm   :     0.7818514 α      lambda       -0.5514667E-03
   maximum displ.:     0.4499549 α      in ANC's #6, #4, #2, ...

........................................................................
.............................. CYCLE   42 ..............................
........................................................................
   1   -210.3724240 -0.210372E+03  0.806E-02    0.85       0.0  T
   2   -210.3724299 -0.585204E-05  0.456E-02    0.85       1.0  T
   3   -210.3724097  0.201596E-04  0.138E-02    0.85       1.0  T
   4   -210.3724333 -0.235404E-04  0.320E-03    0.85       2.9  T
   5   -210.3724332  0.343817E-07  0.233E-03    0.85       4.0  T
   6   -210.3724338 -0.536581E-06  0.848E-04    0.85      11.0  T
   7   -210.3724338 -0.346947E-07  0.537E-04    0.85      17.4  T
     SCC iter.                  ...        0 min,  0.147 sec
     gradient                   ...        0 min,  0.037 sec
 * total energy  :  -207.2113791 Eh     change       -0.4845952E-03 Eh
   gradient norm :     0.0079202 Eh/α   predicted    -0.4442923E-03 (  -8.32%)
   displ. norm   :     0.7778655 α      lambda       -0.6044013E-03
   maximum displ.:     0.4461872 α      in ANC's #4, #6, #2, ...
 * RMSD in coord.:     1.2591930 α      energy gain  -0.1062966E-01 Eh

generating ANC from model Hessian ...
Using Lindh-Hessian (1995)
 Shifting diagonal of input Hessian by   1.060210692986239E-002
 Lowest  eigenvalues of input Hessian
    0.010000    0.010524    0.000000    0.000000    0.000000    0.000000
    0.000000    0.000000    0.010605    0.010628    0.010636    0.010688
    0.010771    0.010838    0.010976    0.011035    0.011054    0.011190
 Highest eigenvalues
    2.269562    2.275836    2.605429    2.609456    2.643915    2.648673
 

........................................................................
.............................. CYCLE   43 ..............................
........................................................................
   1   -210.3796523 -0.210380E+03  0.787E-02    0.85       0.0  T
   2   -210.3796594 -0.704569E-05  0.446E-02    0.85       1.0  T
   3   -210.3796351  0.242517E-04  0.145E-02    0.86       1.0  T
   4   -210.3796631 -0.279841E-04  0.366E-03    0.85       2.6  T
   5   -210.3796637 -0.544878E-06  0.225E-03    0.85       4.2  T
   6   -210.3796640 -0.291220E-06  0.111E-03    0.85       8.5  T
   7   -210.3796640 -0.636580E-07  0.696E-04    0.85      13.5  T
   8   -210.3796640 -0.127463E-07  0.499E-04    0.85      18.8  T
     SCC iter.                  ...        0 min,  0.170 sec
     gradient                   ...        0 min,  0.037 sec
 * total energy  :  -207.2119018 Eh     change       -0.5226825E-03 Eh
   gradient norm :     0.0059525 Eh/α   predicted     0.0000000E+00 (-100.00%)
   displ. norm   :     0.0752749 α      lambda       -0.1055122E-03
   maximum displ.:     0.0380823 α      in ANC's #4, #6, #5, ...

........................................................................
.............................. CYCLE   44 ..............................
........................................................................
   1   -210.3832368 -0.210383E+03  0.380E-02    0.85       0.0  T
   2   -210.3832385 -0.165341E-05  0.212E-02    0.85       1.0  T
   3   -210.3832324  0.608624E-05  0.751E-03    0.85       1.2  T
   4   -210.3832396 -0.717283E-05  0.125E-03    0.85       7.5  T
   5   -210.3832396 -0.659018E-07  0.809E-04    0.85      11.6  T
   6   -210.3832397 -0.401265E-07  0.405E-04    0.85      23.1  T
     SCC iter.                  ...        0 min,  0.134 sec
     gradient                   ...        0 min,  0.038 sec
 * total energy  :  -207.2119658 Eh     change       -0.6394570E-04 Eh
   gradient norm :     0.0031797 Eh/α   predicted    -0.6019253E-04 (  -5.87%)
   displ. norm   :     0.1920104 α      lambda       -0.2238742E-03
   maximum displ.:     0.1085476 α      in ANC's #4, #6, #2, ...

........................................................................
.............................. CYCLE   45 ..............................
........................................................................
   1   -210.3901591 -0.210390E+03  0.632E-02    0.85       0.0  T
   2   -210.3901649 -0.574223E-05  0.353E-02    0.85       1.0  T
   3   -210.3901451  0.197659E-04  0.135E-02    0.85       1.0  T
   4   -210.3901683 -0.232238E-04  0.262E-03    0.85       3.6  T
   5   -210.3901687 -0.402100E-06  0.159E-03    0.85       5.9  T
   6   -210.3901689 -0.166671E-06  0.712E-04    0.85      13.2  T
   7   -210.3901689 -0.264077E-07  0.467E-04    0.85      20.1  T
     SCC iter.                  ...        0 min,  0.149 sec
     gradient                   ...        0 min,  0.037 sec
 * total energy  :  -207.2120065 Eh     change       -0.4074158E-04 Eh
   gradient norm :     0.0120662 Eh/α   predicted    -0.1160834E-03 ( 184.93%)
   displ. norm   :     0.1302843 α      lambda       -0.2332594E-03
   maximum displ.:     0.0687799 α      in ANC's #4, #6, #5, ...

........................................................................
.............................. CYCLE   46 ..............................
........................................................................
   1   -210.3896606 -0.210390E+03  0.504E-02    0.85       0.0  T
   2   -210.3896648 -0.422657E-05  0.280E-02    0.85       1.0  T
   3   -210.3896607  0.414482E-05  0.695E-03    0.85       1.3  T
   4   -210.3896668 -0.611407E-05  0.132E-03    0.85       7.1  T
   5   -210.3896668  0.527541E-08  0.949E-04    0.85       9.9  T
   6   -210.3896669 -0.817950E-07  0.308E-04    0.85      30.4  T
     SCC iter.                  ...        0 min,  0.126 sec
     gradient                   ...        0 min,  0.037 sec
 * total energy  :  -207.2121117 Eh     change       -0.1051647E-03 Eh
   gradient norm :     0.0078302 Eh/α   predicted    -0.1186144E-03 (  12.79%)
   displ. norm   :     0.1413928 α      lambda       -0.2283759E-03
   maximum displ.:     0.0833530 α      in ANC's #4, #6, #5, ...

........................................................................
.............................. CYCLE   47 ..............................
........................................................................
   1   -210.3843570 -0.210384E+03  0.381E-02    0.85       0.0  T
   2   -210.3843588 -0.173771E-05  0.215E-02    0.85       1.0  T
   3   -210.3843442  0.146100E-04  0.115E-02    0.85       1.0  T
   4   -210.3843607 -0.165733E-04  0.154E-03    0.85       6.1  T
   5   -210.3843609 -0.117039E-06  0.999E-04    0.85       9.4  T
   6   -210.3843609 -0.654381E-07  0.474E-04    0.85      19.8  T
     SCC iter.                  ...        0 min,  0.129 sec
     gradient                   ...        0 min,  0.037 sec
 * total energy  :  -207.2122406 Eh     change       -0.1289099E-03 Eh
   gradient norm :     0.0080584 Eh/α   predicted    -0.1164709E-03 (  -9.65%)
   displ. norm   :     0.2299466 α      lambda       -0.1549271E-03
   maximum displ.:     0.1343989 α      in ANC's #4, #6, #5, ...

........................................................................
.............................. CYCLE   48 ..............................
........................................................................
   1   -210.3839054 -0.210384E+03  0.265E-02    0.85       0.0  T
   2   -210.3839063 -0.865101E-06  0.147E-02    0.85       1.0  T
   3   -210.3839049  0.140382E-05  0.412E-03    0.85       2.3  T
   4   -210.3839067 -0.183823E-05  0.110E-03    0.85       8.5  T
   5   -210.3839067  0.120256E-07  0.722E-04    0.85      13.0  T
   6   -210.3839068 -0.520773E-07  0.325E-04    0.85      28.8  T
     SCC iter.                  ...        0 min,  0.126 sec
     gradient                   ...        0 min,  0.037 sec
 * total energy  :  -207.2123828 Eh     change       -0.1422470E-03 Eh
   gradient norm :     0.0068951 Eh/α   predicted    -0.8156091E-04 ( -42.66%)
   displ. norm   :     0.4486748 α      lambda       -0.3132552E-03
   maximum displ.:     0.2583194 α      in ANC's #4, #6, #5, ...

........................................................................
.............................. CYCLE   49 ..............................
........................................................................
   1   -210.3846789 -0.210385E+03  0.528E-02    0.85       0.0  T
   2   -210.3846823 -0.336894E-05  0.295E-02    0.85       1.0  T
   3   -210.3846792  0.303393E-05  0.668E-03    0.85       1.4  T
   4   -210.3846837 -0.444709E-05  0.197E-03    0.85       4.8  T
   5   -210.3846837 -0.376325E-07  0.105E-03    0.85       8.9  T
   6   -210.3846838 -0.639679E-07  0.547E-04    0.85      17.1  T
   7   -210.3846838 -0.876832E-08  0.399E-04    0.85      23.5  T
     SCC iter.                  ...        0 min,  0.149 sec
     gradient                   ...        0 min,  0.037 sec
 * total energy  :  -207.2126003 Eh     change       -0.2174776E-03 Eh
   gradient norm :     0.0050612 Eh/α   predicted    -0.1881590E-03 ( -13.48%)
   displ. norm   :     0.6018182 α      lambda       -0.4350649E-03
   maximum displ.:     0.3414339 α      in ANC's #4, #6, #5, ...

........................................................................
.............................. CYCLE   50 ..............................
........................................................................
   1   -210.3851528 -0.210385E+03  0.781E-02    0.85       0.0  T
   2   -210.3851607 -0.796126E-05  0.434E-02    0.85       1.0  T
   3   -210.3851577  0.308671E-05  0.781E-03    0.85       1.2  T
   4   -210.3851639 -0.623151E-05  0.262E-03    0.85       3.6  T
   5   -210.3851639 -0.237191E-07  0.159E-03    0.85       5.9  T
   6   -210.3851642 -0.252514E-06  0.634E-04    0.85      14.8  T
   7   -210.3851642 -0.218735E-07  0.387E-04    0.85      24.2  T
     SCC iter.                  ...        0 min,  0.151 sec
     gradient                   ...        0 min,  0.037 sec
 * total energy  :  -207.2129187 Eh     change       -0.3184130E-03 Eh
   gradient norm :     0.0101323 Eh/α   predicted    -0.2963245E-03 (  -6.94%)
   displ. norm   :     0.7020404 α      lambda       -0.3906015E-03
   maximum displ.:     0.4054560 α      in ANC's #4, #6, #5, ...

........................................................................
.............................. CYCLE   51 ..............................
........................................................................
   1   -210.3838546 -0.210384E+03  0.666E-02    0.85       0.0  T
   2   -210.3838598 -0.514344E-05  0.373E-02    0.85       1.0  T
   3   -210.3838559  0.392258E-05  0.818E-03    0.85       1.1  T
   4   -210.3838621 -0.619201E-05  0.255E-03    0.85       3.7  T
   5   -210.3838621 -0.125436E-07  0.126E-03    0.85       7.4  T
   6   -210.3838622 -0.102466E-06  0.714E-04    0.85      13.1  T
   7   -210.3838622 -0.217220E-07  0.513E-04    0.85      18.3  T
     SCC iter.                  ...        0 min,  0.150 sec
     gradient                   ...        0 min,  0.037 sec
 * total energy  :  -207.2132629 Eh     change       -0.3442148E-03 Eh
   gradient norm :     0.0089414 Eh/α   predicted    -0.2915598E-03 ( -15.30%)
   displ. norm   :     0.7169367 α      lambda       -0.4702137E-03
   maximum displ.:     0.4196307 α      in ANC's #4, #6, #5, ...

........................................................................
.............................. CYCLE   52 ..............................
........................................................................
   1   -210.3837930 -0.210384E+03  0.632E-02    0.85       0.0  T
   2   -210.3837976 -0.463130E-05  0.355E-02    0.85       1.0  T
   3   -210.3837909  0.664167E-05  0.838E-03    0.85       1.1  T
   4   -210.3837992 -0.823520E-05  0.281E-03    0.85       3.3  T
   5   -210.3837993 -0.152909E-06  0.182E-03    0.85       5.2  T
   6   -210.3837997 -0.356237E-06  0.693E-04    0.85      13.5  T
   7   -210.3837997 -0.217960E-07  0.442E-04    0.85      21.2  T
     SCC iter.                  ...        0 min,  0.157 sec
     gradient                   ...        0 min,  0.037 sec
 * total energy  :  -207.2136573 Eh     change       -0.3943583E-03 Eh
   gradient norm :     0.0048221 Eh/α   predicted    -0.3559554E-03 (  -9.74%)
   displ. norm   :     0.7172190 α      lambda       -0.4362289E-03
   maximum displ.:     0.4252571 α      in ANC's #4, #6, #5, ...

........................................................................
.............................. CYCLE   53 ..............................
........................................................................
   1   -210.3862285 -0.210386E+03  0.560E-02    0.85       0.0  T
   2   -210.3862313 -0.278711E-05  0.316E-02    0.85       1.0  T
   3   -210.3862210  0.103213E-04  0.967E-03    0.85       1.0  T
   4   -210.3862327 -0.116781E-04  0.307E-03    0.85       3.1  T
   5   -210.3862329 -0.198449E-06  0.204E-03    0.85       4.6  T
   6   -210.3862332 -0.342071E-06  0.951E-04    0.85       9.9  T
   7   -210.3862332 -0.312908E-07  0.651E-04    0.85      14.4  T
     SCC iter.                  ...        0 min,  0.153 sec
     gradient                   ...        0 min,  0.037 sec
 * total energy  :  -207.2140338 Eh     change       -0.3765187E-03 Eh
   gradient norm :     0.0064634 Eh/α   predicted    -0.3303154E-03 ( -12.27%)
   displ. norm   :     0.7390389 α      lambda       -0.4120276E-03
   maximum displ.:     0.4376013 α      in ANC's #4, #6, #5, ...

........................................................................
.............................. CYCLE   54 ..............................
........................................................................
   1   -210.3870044 -0.210387E+03  0.560E-02    0.85       0.0  T
   2   -210.3870068 -0.241536E-05  0.316E-02    0.85       1.0  T
   3   -210.3869940  0.128663E-04  0.101E-02    0.85       1.0  T
   4   -210.3870084 -0.144671E-04  0.269E-03    0.84       3.5  T
   5   -210.3870086 -0.181708E-06  0.179E-03    0.85       5.2  T
   6   -210.3870089 -0.257196E-06  0.669E-04    0.84      14.0  T
   7   -210.3870089 -0.189636E-07  0.452E-04    0.85      20.7  T
     SCC iter.                  ...        0 min,  0.158 sec
     gradient                   ...        0 min,  0.037 sec
 * total energy  :  -207.2144257 Eh     change       -0.3918522E-03 Eh
   gradient norm :     0.0053477 Eh/α   predicted    -0.3185361E-03 ( -18.71%)
   displ. norm   :     0.7812125 α      lambda       -0.4689227E-03
   maximum displ.:     0.4647464 α      in ANC's #4, #6, #5, ...

........................................................................
.............................. CYCLE   55 ..............................
........................................................................
   1   -210.3872552 -0.210387E+03  0.600E-02    0.85       0.0  T
   2   -210.3872576 -0.238447E-05  0.338E-02    0.84       1.0  T
   3   -210.3872309  0.267384E-04  0.137E-02    0.84       1.0  T
   4   -210.3872605 -0.295811E-04  0.299E-03    0.84       3.1  T
   5   -210.3872607 -0.205854E-06  0.202E-03    0.84       4.6  T
   6   -210.3872609 -0.266414E-06  0.753E-04    0.84      12.4  T
   7   -210.3872610 -0.171864E-07  0.530E-04    0.84      17.7  T
     SCC iter.                  ...        0 min,  0.154 sec
     gradient                   ...        0 min,  0.037 sec
 * total energy  :  -207.2148746 Eh     change       -0.4489267E-03 Eh
   gradient norm :     0.0037252 Eh/α   predicted    -0.3775525E-03 ( -15.90%)
   displ. norm   :     0.8311613 α      lambda       -0.5220372E-03
   maximum displ.:     0.4971619 α      in ANC's #4, #6, #5, ...

........................................................................
.............................. CYCLE   56 ..............................
........................................................................
   1   -210.3867897 -0.210387E+03  0.671E-02    0.85       0.0  T
   2   -210.3867926 -0.287188E-05  0.379E-02    0.84       1.0  T
   3   -210.3867464  0.461896E-04  0.177E-02    0.84       1.0  T
   4   -210.3867974 -0.509875E-04  0.341E-03    0.84       2.7  T
   5   -210.3867977 -0.268296E-06  0.233E-03    0.84       4.0  T
   6   -210.3867980 -0.361748E-06  0.881E-04    0.84      10.6  T
   7   -210.3867981 -0.242791E-07  0.614E-04    0.84      15.3  T
     SCC iter.                  ...        0 min,  0.150 sec
     gradient                   ...        0 min,  0.037 sec
 * total energy  :  -207.2153725 Eh     change       -0.4978722E-03 Eh
   gradient norm :     0.0040806 Eh/α   predicted    -0.4413387E-03 ( -11.36%)
   displ. norm   :     0.8615093 α      lambda       -0.5458628E-03
   maximum displ.:     0.5188236 α      in ANC's #4, #6, #5, ...

........................................................................
.............................. CYCLE   57 ..............................
........................................................................
   1   -210.3862136 -0.210386E+03  0.703E-02    0.85       0.0  T
   2   -210.3862164 -0.282582E-05  0.399E-02    0.85       1.0  T
   3   -210.3861576  0.588271E-04  0.198E-02    0.84       1.0  T
   4   -210.3862223 -0.647146E-04  0.370E-03    0.85       2.5  T
   5   -210.3862227 -0.379546E-06  0.250E-03    0.84       3.7  T
   6   -210.3862231 -0.427185E-06  0.964E-04    0.85       9.7  T
   7   -210.3862232 -0.260905E-07  0.668E-04    0.85      14.0  T
     SCC iter.                  ...        0 min,  0.147 sec
     gradient                   ...        0 min,  0.037 sec
 * total energy  :  -207.2158879 Eh     change       -0.5154000E-03 Eh
   gradient norm :     0.0043111 Eh/α   predicted    -0.4755053E-03 (  -7.74%)
   displ. norm   :     0.8701042 α      lambda       -0.5325890E-03
   maximum displ.:     0.5267557 α      in ANC's #4, #6, #5, ...

[...]
   110   1 H        0.925     0.044     2.397     2.421
   111   1 H        0.925     0.053     2.281     2.362
   112   1 H        0.926     0.073     2.054     2.241
   113   1 H        0.926     0.082     1.957     2.187
   114   1 H        0.926     0.080     1.974     2.197

 Mol. C6AA /au·bohr⁶  :     254632.466319
 Mol. C8AA /au·bohr⁸  :    7511610.684175
 Mol. α(0) /au        :        801.201243


Wiberg/Mayer (AO) data.
largest (>0.10) Wiberg bond orders for each atom

 ---------------------------------------------------------------------------
     #   Z sym  total        # sym  WBO       # sym  WBO       # sym  WBO
 ---------------------------------------------------------------------------
     1   6 C    3.947 --     2 C    1.518    24 C    1.280    80 H    0.942
     2   6 C    3.948 --     1 C    1.518    11 C    1.131     3 C    1.045
     3   6 C    3.920 --     4 O    1.727     2 C    1.045     5 C    1.031
     4   8 O    2.035 --     3 C    1.727
     5   6 C    3.974 --     6 C    1.377    10 C    1.311     3 C    1.031
     6   6 C    3.982 --     7 C    1.447     5 C    1.377    81 H    0.964
     7   6 C    3.957 --     6 C    1.447     8 C    1.325    23 C    0.995
     8   6 C    3.966 --     9 C    1.452     7 C    1.325    17 C    0.997
     9   6 C    3.979 --     8 C    1.452    10 C    1.364    82 H    0.958
    10   6 C    3.977 --     9 C    1.364     5 C    1.311    11 C    1.089
    11   6 C    3.973 --    12 C    1.490     2 C    1.131    10 C    1.089
    12   6 C    3.949 --    11 C    1.490    13 C    1.095    15 C    1.095
    13   6 C    3.945 --    14 N    2.753    12 C    1.095
    14   7 N    2.964 --    13 C    2.753
    15   6 C    3.944 --    16 N    2.761    12 C    1.095
    16   7 N    2.968 --    15 C    2.761
    17   6 C    3.985 --     8 C    0.997    23 C    0.978    83 H    0.960
                            18 C    0.947
    18   6 C    3.990 --    19 C    1.010    22 C    0.985    84 H    0.972
                            17 C    0.947
    19   6 C    3.987 --    20 C    1.924    18 C    1.010    85 H    0.971
    20   6 C    3.987 --    19 C    1.924    21 C    1.010    86 H    0.972
    21   6 C    3.989 --    20 C    1.010    22 C    0.985    87 H    0.972
                            23 C    0.947
    22   6 C    3.993 --    21 C    0.985    18 C    0.985    89 H    0.978
                            88 H    0.977
    23   6 C    3.985 --     7 C    0.995    17 C    0.978    90 H    0.960
                            21 C    0.947
    24   6 C    3.922 --    55 C    1.411     1 C    1.280    25 S    1.066
    25  16 S    2.542 --    26 C    1.152    24 C    1.066    55 C    0.101
    26   6 C    3.931 --    27 C    1.323    54 C    1.239    25 S    1.152
    27   6 C    3.918 --    26 C    1.323    52 C    1.279    28 S    1.095
    28  16 S    2.508 --    29 C    1.115    27 C    1.095
    29   6 C    3.914 --    51 C    1.306    30 C    1.280    28 S    1.115
    30   6 C    3.953 --    29 C    1.280    49 C    1.269    31 C    1.170
    31   6 C    3.973 --    35 N    1.427    30 C    1.170    32 C    1.169
                            34 S    0.100
    32   6 C    3.973 --    33 N    1.426    36 C    1.171    31 C    1.169
                            34 S    0.102
    33   7 N    3.073 --    32 C    1.426    34 S    1.393    35 N    0.148
    34  16 S    3.111 --    35 N    1.395    33 N    1.393    32 C    0.102
                            31 C    0.100
    35   7 N    3.076 --    31 C    1.427    34 S    1.395    33 N    0.148
    36   6 C    3.955 --    37 C    1.276    48 C    1.270    32 C    1.171
    37   6 C    3.914 --    46 C    1.301    36 C    1.276    38 S    1.117
    38  16 S    2.504 --    37 C    1.117    39 C    1.077
    39   6 C    3.928 --    40 C    1.384    45 C    1.271    38 S    1.077
    40   6 C    3.952 --    39 C    1.384    43 C    1.307    41 C    1.019
    41   6 C    3.992 --    40 C    1.019    42 C    0.991    91 H    0.969
                            92 H    0.962
    42   6 C    3.988 --    41 C    0.991    94 H    0.988    95 H    0.987
                            93 H    0.983
    43   6 C    3.930 --    62 C    1.352    40 C    1.307    44 S    1.068
    44  16 S    2.718 --    45 C    1.157    43 C    1.068    65 O    0.134
    45   6 C    3.940 --    46 C    1.273    39 C    1.271    44 S    1.157
    46   6 C    3.938 --    37 C    1.301    45 C    1.273    47 N    1.138
    47   7 N    3.517 --    48 C    1.156    46 C    1.138    60 C    0.975
    48   6 C    3.923 --    36 C    1.270    49 C    1.230    47 N    1.156
    49   6 C    3.927 --    30 C    1.269    48 C    1.230    50 N    1.166
    50   7 N    3.554 --    49 C    1.166    51 C    1.148    58 C    0.990
    51   6 C    3.925 --    29 C    1.306    52 C    1.226    50 N    1.148
    52   6 C    3.914 --    27 C    1.279    51 C    1.226    53 N    1.156
    53   7 N    3.558 --    52 C    1.156    54 C    1.146    56 C    0.985
    54   6 C    3.935 --    55 C    1.340    26 C    1.239    53 N    1.146
    55   6 C    3.948 --    24 C    1.411    54 C    1.340    96 H    0.932
                            25 S    0.101
    56   6 C    3.967 --    57 C    1.005    53 N    0.985    97 H    0.967
                            98 H    0.960
    57   6 C    3.988 --    56 C    1.005   100 H    0.985    99 H    0.984
                           101 H    0.984
    58   6 C    3.969 --    59 C    1.004    50 N    0.990   102 H    0.960
                           103 H    0.958
    59   6 C    3.988 --    58 C    1.004   105 H    0.984   104 H    0.980
                           106 H    0.979
    60   6 C    3.961 --    61 C    1.006    47 N    0.975   108 H    0.962
                           107 H    0.955
    61   6 C    3.989 --    60 C    1.006   109 H    0.986   110 H    0.985
                           111 H    0.983
    62   6 C    3.937 --    63 C    1.442    43 C    1.352   112 H    0.931
    63   6 C    3.949 --    62 C    1.442    74 C    1.156    64 C    1.085
    64   6 C    3.914 --    65 O    1.699    63 C    1.085    66 C    1.013
    65   8 O    2.111 --    64 C    1.699    44 S    0.134
    66   6 C    3.975 --    67 C    1.425    73 C    1.290    64 C    1.013
    67   6 C    3.976 --    66 C    1.425    68 C    1.387   113 H    0.960
    68   6 C    3.933 --    67 C    1.387    70 C    1.361    69 Br   1.016
    69  35 Br   1.182 --    68 C    1.016
    70   6 C    3.940 --    72 C    1.391    68 C    1.361    71 Br   1.022
    71  35 Br   1.191 --    70 C    1.022
    72   6 C    3.971 --    73 C    1.408    70 C    1.391   114 H    0.955
    73   6 C    3.982 --    72 C    1.408    66 C    1.290    74 C    1.076
    74   6 C    3.965 --    75 C    1.475    63 C    1.156    73 C    1.076
    75   6 C    3.938 --    74 C    1.475    76 C    1.100    78 C    1.096
    76   6 C    3.945 --    77 N    2.748    75 C    1.100
    77   7 N    2.963 --    76 C    2.748
    78   6 C    3.945 --    79 N    2.764    75 C    1.096
    79   7 N    2.967 --    78 C    2.764
    80   1 H    0.994 --     1 C    0.942
    81   1 H    0.996 --     6 C    0.964
    82   1 H    0.996 --     9 C    0.958
    83   1 H    0.997 --    17 C    0.960
    84   1 H    0.998 --    18 C    0.972
    85   1 H    0.999 --    19 C    0.971
    86   1 H    0.999 --    20 C    0.972
    87   1 H    0.999 --    21 C    0.972
    88   1 H    0.996 --    22 C    0.977
    89   1 H    0.998 --    22 C    0.978
    90   1 H    0.996 --    23 C    0.960
    91   1 H    0.996 --    41 C    0.969
    92   1 H    0.995 --    41 C    0.962
    93   1 H    0.995 --    42 C    0.983
    94   1 H    0.998 --    42 C    0.988
    95   1 H    0.998 --    42 C    0.987
    96   1 H    0.989 --    55 C    0.932
    97   1 H    0.994 --    56 C    0.967
    98   1 H    0.995 --    56 C    0.960
    99   1 H    0.998 --    57 C    0.984
   100   1 H    0.997 --    57 C    0.985
   101   1 H    0.996 --    57 C    0.984
   102   1 H    0.996 --    58 C    0.960
   103   1 H    0.995 --    58 C    0.958
   104   1 H    0.997 --    59 C    0.980
   105   1 H    0.997 --    59 C    0.984
   106   1 H    0.997 --    59 C    0.979
   107   1 H    0.995 --    60 C    0.955
   108   1 H    0.994 --    60 C    0.962
   109   1 H    0.997 --    61 C    0.986
   110   1 H    0.998 --    61 C    0.985
   111   1 H    0.997 --    61 C    0.983
   112   1 H    0.994 --    62 C    0.931
   113   1 H    0.993 --    67 C    0.960
   114   1 H    0.993 --    72 C    0.955
 ---------------------------------------------------------------------------

Topologies differ in bond orders
Writing corrected topology to xtbtopo.mol

molecular dipole:
                 x           y           z       tot (Debye)
 q only:       -1.627      -1.037       0.589
   full:       -1.579      -1.690       0.943       6.349
molecular quadrupole (traceless):
                xx          xy          yy          xz          yz          zz
 q only:     -106.423     138.239      -8.195     -23.699      -7.727     114.618
  q+dip:     -112.851     153.586     -31.245     -29.260       1.429     144.096
   full:     -119.067     157.637     -34.818     -24.463       7.233     153.885

           -------------------------------------------------
          |                Geometry Summary                 |
           -------------------------------------------------

      molecular mass/u    :     1246.1229475
   center of mass at/Å    :        1.4811297      -0.4488944      -0.2531568
  moments of inertia/u·Å² :        0.1957834E+05   0.9903377E+05   0.1169437E+06
rotational constants/cm⁻¹ :        0.8610347E-03   0.1702211E-03   0.1441517E-03

 * 113 selected distances

     #   Z          #   Z                                           value/Å
     1   6 C        2   6 C                                       1.3716415
     3   6 C        4   8 O                                       1.2179458
     5   6 C        6   6 C                                       1.3931336
     6   6 C        7   6 C                                       1.3732898
     7   6 C        8   6 C                                       1.4013990
     8   6 C        9   6 C                                       1.3745528
     5   6 C       10   6 C                                       1.4073215
     9   6 C       10   6 C                                       1.3981886
    11   6 C       12   6 C                                       1.3710654
    13   6 C       14   7 N                                       1.1488729
    15   6 C       16   7 N                                       1.1483305
     8   6 C       17   6 C                                       1.5081623
    17   6 C       18   6 C                                       1.5487164
    19   6 C       20   6 C                                       1.3262920
    18   6 C       22   6 C                                       1.5370869
    21   6 C       22   6 C                                       1.5369606
     7   6 C       23   6 C                                       1.5079746
    17   6 C       23   6 C                                       1.5613049
    21   6 C       23   6 C                                       1.5489540
     1   6 C       24   6 C                                       1.4054591
    25  16 S       26   6 C                                       1.7157100
    26   6 C       27   6 C                                       1.3913601
    27   6 C       28  16 S                                       1.7381295
    28  16 S       29   6 C                                       1.7263153
    29   6 C       30   6 C                                       1.3991125
    30   6 C       31   6 C                                       1.4123762
    31   6 C       32   6 C                                       1.4325878
    32   6 C       33   7 N                                       1.3239175
    33   7 N       34  16 S                                       1.6189385
    31   6 C       35   7 N                                       1.3234516
    34  16 S       35   7 N                                       1.6177588
    32   6 C       36   6 C                                       1.4124398
    36   6 C       37   6 C                                       1.4013075
    37   6 C       38  16 S                                       1.7289925
    38  16 S       39   6 C                                       1.7559594
    39   6 C       40   6 C                                       1.3850815
    40   6 C       41   6 C                                       1.4931212
    41   6 C       42   6 C                                       1.5314317
    40   6 C       43   6 C                                       1.4110271
    39   6 C       45   6 C                                       1.4089287
    44  16 S       45   6 C                                       1.7211533
    37   6 C       46   6 C                                       1.3989863
    45   6 C       46   6 C                                       1.3936359
    46   6 C       47   7 N                                       1.3759237
    36   6 C       48   6 C                                       1.4277835
    47   7 N       48   6 C                                       1.3914593
    30   6 C       49   6 C                                       1.4221182
    48   6 C       49   6 C                                       1.4209650
    49   6 C       50   7 N                                       1.3821486
    29   6 C       51   6 C                                       1.4041733
    50   7 N       51   6 C                                       1.3766345
    27   6 C       52   6 C                                       1.4212979
    51   6 C       52   6 C                                       1.4118363
    52   6 C       53   7 N                                       1.3793055
    26   6 C       54   6 C                                       1.4143231
    53   7 N       54   6 C                                       1.3731002
    24   6 C       55   6 C                                       1.3869697
    54   6 C       55   6 C                                       1.3865484
    53   7 N       56   6 C                                       1.4431968
    56   6 C       57   6 C                                       1.5285835
    50   7 N       58   6 C                                       1.4382525
    58   6 C       59   6 C                                       1.5307438
    47   7 N       60   6 C                                       1.4516468
    60   6 C       61   6 C                                       1.5275446
    43   6 C       62   6 C                                       1.3924026
    62   6 C       63   6 C                                       1.3800217
    64   6 C       65   8 O                                       1.2194470
    66   6 C       67   6 C                                       1.3781102
    67   6 C       68   6 C                                       1.3891061
    68   6 C       69  35 Br                                      1.8911503
    68   6 C       70   6 C                                       1.3947100
    70   6 C       71  35 Br                                      1.8919718 (max)
    70   6 C       72   6 C                                       1.3913750
    66   6 C       73   6 C                                       1.4052726
    72   6 C       73   6 C                                       1.3842862
    74   6 C       75   6 C                                       1.3728870
    76   6 C       77   7 N                                       1.1492987
    78   6 C       79   7 N                                       1.1480465
     1   6 C       80   1 H                                       1.0835357
     6   6 C       81   1 H                                       1.0789323
     9   6 C       82   1 H                                       1.0768030
    17   6 C       83   1 H                                       1.0881562
    18   6 C       84   1 H                                       1.0865697
    19   6 C       85   1 H                                       1.0742264
    20   6 C       86   1 H                                       1.0743590
    21   6 C       87   1 H                                       1.0869806
    22   6 C       88   1 H                                       1.0889342
    22   6 C       89   1 H                                       1.0891740
    23   6 C       90   1 H                                       1.0884335
    41   6 C       91   1 H                                       1.0917141
    41   6 C       92   1 H                                       1.0910414
    42   6 C       93   1 H                                       1.0860187
    42   6 C       94   1 H                                       1.0874922
    42   6 C       95   1 H                                       1.0874075
    55   6 C       96   1 H                                       1.0736924 (min)
    56   6 C       97   1 H                                       1.0930541
    56   6 C       98   1 H                                       1.0882935
    57   6 C       99   1 H                                       1.0886104
    57   6 C      100   1 H                                       1.0869406
    57   6 C      101   1 H                                       1.0864849
    58   6 C      102   1 H                                       1.0903974
    58   6 C      103   1 H                                       1.0918903
    59   6 C      104   1 H                                       1.0879730
    59   6 C      105   1 H                                       1.0872289
    59   6 C      106   1 H                                       1.0863820
    60   6 C      107   1 H                                       1.0837757
    60   6 C      108   1 H                                       1.0927861
    61   6 C      109   1 H                                       1.0874172
    61   6 C      110   1 H                                       1.0886878
    61   6 C      111   1 H                                       1.0864336
    62   6 C      112   1 H                                       1.0811997
    67   6 C      113   1 H                                       1.0788827
    72   6 C      114   1 H                                       1.0777042

 * 7 distinct bonds (by element types)

   Z      Z             #   av. dist./Å        max./Å        min./Å
   1 H    6 C          35     1.0856461     1.0930541     1.0736924
   6 C    6 C          51     1.4277247     1.5613049     1.3262920
   6 C    7 N          15     1.3235724     1.4516468     1.1480465
   6 C    8 O           2     1.2186964     1.2194470     1.2179458
   6 C   16 S           6     1.7310434     1.7559594     1.7157100
   7 N   16 S           2     1.6183486     1.6189385     1.6177588
   6 C   35 Br          2     1.8915610     1.8919718     1.8911503


optimized geometry written to: xtbopt.mol


           -------------------------------------------------
          | TOTAL ENERGY             -207.228983681890 Eh   |
          | GRADIENT NORM               0.000511285613 Eh/α |
          | HOMO-LUMO GAP               0.871228096429 eV   |
           -------------------------------------------------

------------------------------------------------------------------------
 * finished run on 2022/02/03 at 00:10:11.650     
------------------------------------------------------------------------
 total:
 * wall-time:     0 d,  0 h,  0 min, 38.502 sec
 *  cpu-time:     0 d,  0 h,  5 min,  7.385 sec
 * ratio c/w:     7.984 speedup
 SCF:
 * wall-time:     0 d,  0 h,  0 min,  0.408 sec
 *  cpu-time:     0 d,  0 h,  0 min,  3.264 sec
 * ratio c/w:     7.995 speedup
 ANC optimizer:
 * wall-time:     0 d,  0 h,  0 min, 37.938 sec
 *  cpu-time:     0 d,  0 h,  5 min,  3.330 sec
 * ratio c/w:     7.996 speedup

