      -----------------------------------------------------------      
     |                   =====================                   |     
     |                           x T B                           |     
     |                   =====================                   |     
     |                         S. Grimme                         |     
     |          Mulliken Center for Theoretical Chemistry        |     
     |                    University of Bonn                     |     
      -----------------------------------------------------------      

   * xtb version 6.4.1 (unknown) compiled by 'oda6@login1.crc.pitt.edu' on 2021-06-25

   xtb is free software: you can redistribute it and/or modify it under
   the terms of the GNU Lesser General Public License as published by
   the Free Software Foundation, either version 3 of the License, or
   (at your option) any later version.
   
   xtb is distributed in the hope that it will be useful,
   but WITHOUT ANY WARRANTY; without even the implied warranty of
   MERCHANTABILITY or FITNESS FOR A PARTICULAR PURPOSE.  See the
   GNU Lesser General Public License for more details.
   
   Cite this work as:
   * C. Bannwarth, E. Caldeweyher, S. Ehlert, A. Hansen, P. Pracht,
     J. Seibert, S. Spicher, S. Grimme, WIREs Comput. Mol. Sci., 2020, 11,
     e01493. DOI: 10.1002/wcms.1493
   
   for GFN2-xTB:
   * C. Bannwarth, S. Ehlert and S. Grimme., J. Chem. Theory Comput., 2019,
     15, 1652-1671. DOI: 10.1021/acs.jctc.8b01176
   for GFN1-xTB:
   * S. Grimme, C. Bannwarth, P. Shushkov, J. Chem. Theory Comput., 2017,
     13, 1989-2009. DOI: 10.1021/acs.jctc.7b00118
   for GFN0-xTB:
   * P. Pracht, E. Caldeweyher, S. Ehlert, S. Grimme, ChemRxiv, 2019, preprint.
     DOI: 10.26434/chemrxiv.8326202.v1
   for GFN-FF:
   * S. Spicher and S. Grimme, Angew. Chem. Int. Ed., 2020, 59, 15665-15673.
     DOI: 10.1002/anie.202004239
   
   for DFT-D4:
   * E. Caldeweyher, C. Bannwarth and S. Grimme, J. Chem. Phys., 2017,
     147, 034112. DOI: 10.1063/1.4993215
   * E. Caldeweyher, S. Ehlert, A. Hansen, H. Neugebauer, S. Spicher,
     C. Bannwarth and S. Grimme, J. Chem. Phys., 2019, 150, 154122.
     DOI: 10.1063/1.5090222
   * E. Caldeweyher, J.-M. Mewes, S. Ehlert and S. Grimme, Phys. Chem. Chem. Phys.
     2020, 22, 8499-8512. DOI: 10.1039/D0CP00502A
   
   for sTDA-xTB:
   * S. Grimme and C. Bannwarth, J. Chem. Phys., 2016, 145, 054103.
     DOI: 10.1063/1.4959605
   
   in the mass-spec context:
   * V. Asgeirsson, C. Bauer and S. Grimme, Chem. Sci., 2017, 8, 4879.
     DOI: 10.1039/c7sc00601b
   * J. Koopman and S. Grimme, ACS Omega 2019, 4, 12, 15120-15133.
     DOI: 10.1021/acsomega.9b02011
   
   for metadynamics refer to:
   * S. Grimme, J. Chem. Theory Comput., 2019, 155, 2847-2862
     DOI: 10.1021/acs.jctc.9b00143
   
   for SPH calculations refer to:
   * S. Spicher and S. Grimme, J. Chem. Theory Comput., 2021, 17, 1701-1714
     DOI: 10.1021/acs.jctc.0c01306
   
   with help from (in alphabetical order)
   P. Atkinson, C. Bannwarth, F. Bohle, G. Brandenburg, E. Caldeweyher
   M. Checinski, S. Dohm, S. Ehlert, S. Ehrlich, I. Gerasimov, J. Koopman
   C. Lavigne, S. Lehtola, F. März, M. Müller, F. Musil, H. Neugebauer
   J. Pisarek, C. Plett, P. Pracht, J. Seibert, P. Shushkov, S. Spicher
   M. Stahn, M. Steiner, T. Strunk, J. Stückrath, T. Rose, and J. Unsleber
   
 * started run on 2022/02/11 at 08:14:29.188     

           -------------------------------------------------
          |                Calculation Setup                |
           -------------------------------------------------

          program call               : /ihome/ghutchison/oda6/xtb/xtb-641/bin/xtb ../../FF_optimized/39_34_18.mol -opt
          hostname                   : smp-n28
          coordinate file            : ../../FF_optimized/39_34_18.mol
          omp threads                :                     8
          number of atoms            :                    99
          number of electrons        :                   328
          charge                     :                     0
          spin                       :                   0.0
          first test random number   :      0.12480920534990

   ID    Z sym.   atoms
    1    6 C      1-3, 5-13, 15, 17-25, 27-29, 31-34, 38, 39, 41, 42, 44-46,
                  48, 49, 51, 52, 54, 55, 57-63, 65, 67
    2    8 O      4, 26, 43
    3    7 N      14, 16, 35, 37, 50, 53, 64, 66, 68
    4   16 S      30, 36, 40, 47, 56
    5    1 H      69-99
########################################################################
[WARNING] Please study the warnings concerning your input carefully
-1- prog_main_parseArguments: the use of '-opt' is discouraged, please use '--opt' next time
########################################################################

           -------------------------------------------------
          |                 G F N 2 - x T B                 |
           -------------------------------------------------

        Reference                      10.1021/acs.jctc.8b01176
      * Hamiltonian:
        H0-scaling (s, p, d)           1.850000    2.230000    2.230000
        zeta-weighting                 0.500000
      * Dispersion:
        s8                             2.700000
        a1                             0.520000
        a2                             5.000000
        s9                             5.000000
      * Repulsion:
        kExp                           1.500000    1.000000
        rExp                           1.000000
      * Coulomb:
        alpha                          2.000000
        third order                    shell-resolved
        anisotropic                    true
        a3                             3.000000
        a5                             4.000000
        cn-shift                       1.200000
        cn-exp                         4.000000
        max-rad                        5.000000


          ...................................................
          :                      SETUP                      :
          :.................................................:
          :  # basis functions                 333          :
          :  # atomic orbitals                 328          :
          :  # shells                          172          :
          :  # electrons                       328          :
          :  max. iterations                   250          :
          :  Hamiltonian                  GFN2-xTB          :
          :  restarted?                      false          :
          :  GBSA solvation                  false          :
          :  PC potential                    false          :
          :  electronic temp.          300.0000000     K    :
          :  accuracy                    1.0000000          :
          :  -> integral cutoff          0.2500000E+02      :
          :  -> integral neglect         0.1000000E-07      :
          :  -> SCF convergence          0.1000000E-05 Eh   :
          :  -> wf. convergence          0.1000000E-03 e    :
          :  Broyden damping             0.4000000          :
          ...................................................

 iter      E             dE          RMSdq      gap      omega  full diag
   1   -181.7765340 -0.181777E+03  0.499E+00    1.30       0.0  T
   2   -181.9130850 -0.136551E+00  0.322E+00    1.02       1.0  T
   3   -181.8405660  0.725190E-01  0.219E+00    0.59       1.0  T
   4   -182.0972910 -0.256725E+00  0.843E-01    0.97       1.0  T
   5   -182.1548126 -0.575216E-01  0.275E-01    0.57       1.0  T
   6   -182.1597247 -0.491209E-02  0.141E-01    0.77       1.0  T
   7   -182.1607904 -0.106574E-02  0.646E-02    0.72       1.0  T
   8   -182.1610667 -0.276260E-03  0.276E-02    0.72       1.0  T
   9   -182.1611018 -0.351580E-04  0.135E-02    0.72       1.0  T
  10   -182.1611090 -0.716136E-05  0.643E-03    0.72       1.6  T
  11   -182.1611098 -0.841150E-06  0.323E-03    0.72       3.1  T
  12   -182.1611103 -0.441758E-06  0.157E-03    0.72       6.4  T
  13   -182.1611103 -0.494697E-07  0.878E-04    0.72      11.4  T
  14   -182.1611104 -0.253589E-07  0.421E-04    0.72      23.9  T

   *** convergence criteria satisfied after 14 iterations ***

         #    Occupation            Energy/Eh            Energy/eV
      -------------------------------------------------------------
         1        2.0000           -0.7700688             -20.9546
       ...           ...                  ...                  ...
       158        2.0000           -0.4118759             -11.2077
       159        2.0000           -0.4062194             -11.0538
       160        2.0000           -0.4037682             -10.9871
       161        2.0000           -0.3924865             -10.6801
       162        2.0000           -0.3886483             -10.5757
       163        2.0000           -0.3783938             -10.2966
       164        2.0000           -0.3690016             -10.0410 (HOMO)
       165        0.0000           -0.3426008              -9.3226 (LUMO)
       166                         -0.3354809              -9.1289
       167                         -0.3238454              -8.8123
       168                         -0.3108723              -8.4593
       169                         -0.2846598              -7.7460
       ...                                ...                  ...
       328                          1.0701465              29.1202
      -------------------------------------------------------------
                  HL-Gap            0.0264008 Eh            0.7184 eV
             Fermi-level           -0.3558015 Eh           -9.6819 eV

 SCC (total)                   0 d,  0 h,  0 min,  0.228 sec
 SCC setup                      ...        0 min,  0.001 sec (  0.252%)
 Dispersion                     ...        0 min,  0.003 sec (  1.468%)
 classical contributions        ...        0 min,  0.000 sec (  0.051%)
 integral evaluation            ...        0 min,  0.011 sec (  4.988%)
 iterations                     ...        0 min,  0.181 sec ( 79.655%)
 molecular gradient             ...        0 min,  0.030 sec ( 13.183%)
 printout                       ...        0 min,  0.001 sec (  0.370%)

         :::::::::::::::::::::::::::::::::::::::::::::::::::::
         ::                     SUMMARY                     ::
         :::::::::::::::::::::::::::::::::::::::::::::::::::::
         :: total energy            -179.487970402837 Eh    ::
         :: gradient norm              0.272255528778 Eh/a0 ::
         :: HOMO-LUMO gap              0.718401864278 eV    ::
         ::.................................................::
         :: SCC energy              -182.161110355737 Eh    ::
         :: -> isotropic ES            0.121163090146 Eh    ::
         :: -> anisotropic ES          0.014989661381 Eh    ::
         :: -> anisotropic XC          0.138067146141 Eh    ::
         :: -> dispersion             -0.155846113170 Eh    ::
         :: repulsion energy           2.672781625209 Eh    ::
         :: add. restraining           0.000000000000 Eh    ::
         :: total charge              -0.000000000945 e     ::
         :::::::::::::::::::::::::::::::::::::::::::::::::::::

      ----------------------------------------------------------- 
     |                   =====================                   |
     |                        A N C O P T                        |
     |                   =====================                   |
     |               Approximate Normal Coordinate               |
     |                Rational Function Optimizer                |
      ----------------------------------------------------------- 

          ...................................................
          :                      SETUP                      :
          :.................................................:
          :   optimization level            normal          :
          :   max. optcycles                   297          :
          :   ANC micro-cycles                  20          :
          :   degrees of freedom               291          :
          :.................................................:
          :   RF solver                   davidson          :
          :   write xtbopt.log                true          :
          :   linear?                        false          :
          :   energy convergence         0.5000000E-05 Eh   :
          :   grad. convergence          0.1000000E-02 Eh/α :
          :   maximium RF displ.         1.0000000          :
          :   Hlow (freq-cutoff)         0.1000000E-01      :
          :   Hmax (freq-cutoff)         5.0000000          :
          :   S6 in model hess.         20.0000000          :
          ...................................................

generating ANC from model Hessian ...
Using Lindh-Hessian (1995)
 Shifting diagonal of input Hessian by   1.007123209456501E-002
 Lowest  eigenvalues of input Hessian
    0.010000    0.000000    0.000000    0.000000    0.000000    0.000000
    0.000000    0.010089    0.010102    0.010153    0.010219    0.010298
    0.010323    0.010409    0.010496    0.010633    0.010712    0.010784
 Highest eigenvalues
    2.324743    2.467427    2.502790    2.510763    2.550688    2.551563
 

........................................................................
.............................. CYCLE    1 ..............................
........................................................................
   1   -182.1611104 -0.182161E+03  0.178E-04    0.72       0.0  T
   2   -182.1611104  0.308461E-09  0.156E-04    0.72      64.6  T
   3   -182.1611104 -0.202883E-08  0.761E-05    0.72     132.1  T
     SCC iter.                  ...        0 min,  0.039 sec
     gradient                   ...        0 min,  0.029 sec
 * total energy  :  -179.4879704 Eh     change       -0.8762214E-08 Eh
   gradient norm :     0.2722576 Eh/α   predicted     0.0000000E+00 (-100.00%)
   displ. norm   :     0.4726871 α      lambda       -0.9213797E-01
   maximum displ.:     0.1165652 α      in ANC's #150, #178, #137, ...

........................................................................
.............................. CYCLE    2 ..............................
........................................................................
   1   -182.2934870 -0.182293E+03  0.376E-01    0.69       0.0  T
   2   -182.2945185 -0.103149E-02  0.216E-01    0.73       1.0  T
   3   -182.2939727  0.545839E-03  0.124E-01    0.75       1.0  T
   4   -182.2948009 -0.828173E-03  0.525E-02    0.73       1.0  T
   5   -182.2949421 -0.141196E-03  0.256E-02    0.75       1.0  T
   6   -182.2949831 -0.410589E-04  0.111E-02    0.74       1.0  T
   7   -182.2949886 -0.552264E-05  0.537E-03    0.74       1.9  T
   8   -182.2949905 -0.188043E-05  0.243E-03    0.74       4.1  T
   9   -182.2949907 -0.128745E-06  0.147E-03    0.74       6.8  T
  10   -182.2949908 -0.113852E-06  0.495E-04    0.74      20.3  T
  11   -182.2949908 -0.135126E-07  0.215E-04    0.74      46.7  T
     SCC iter.                  ...        0 min,  0.131 sec
     gradient                   ...        0 min,  0.029 sec
 * total energy  :  -179.5540794 Eh     change       -0.6610898E-01 Eh
   gradient norm :     0.1241220 Eh/α   predicted    -0.5640369E-01 ( -14.68%)
   displ. norm   :     0.4637425 α      lambda       -0.3579784E-01
   maximum displ.:     0.0880818 α      in ANC's #83, #85, #50, ...

........................................................................
.............................. CYCLE    3 ..............................
........................................................................
   1   -182.3386467 -0.182339E+03  0.289E-01    0.68       0.0  T
   2   -182.3393446 -0.697884E-03  0.168E-01    0.74       1.0  T
   3   -182.3390701  0.274463E-03  0.104E-01    0.73       1.0  T
   4   -182.3396608 -0.590631E-03  0.360E-02    0.73       1.0  T
   5   -182.3397300 -0.692083E-04  0.168E-02    0.74       1.0  T
   6   -182.3397445 -0.145284E-04  0.788E-03    0.74       1.3  T
   7   -182.3397473 -0.276084E-05  0.375E-03    0.74       2.7  T
   8   -182.3397479 -0.606554E-06  0.169E-03    0.74       5.9  T
   9   -182.3397479 -0.325136E-07  0.107E-03    0.74       9.4  T
  10   -182.3397480 -0.716479E-07  0.400E-04    0.74      25.1  T
  11   -182.3397480 -0.914284E-08  0.177E-04    0.74      56.9  T
     SCC iter.                  ...        0 min,  0.132 sec
     gradient                   ...        0 min,  0.029 sec
 * total energy  :  -179.5762428 Eh     change       -0.2216339E-01 Eh
   gradient norm :     0.0356404 Eh/α   predicted    -0.2174822E-01 (  -1.87%)
   displ. norm   :     0.4394110 α      lambda       -0.8190932E-02
   maximum displ.:     0.1146229 α      in ANC's #44, #50, #33, ...

........................................................................
.............................. CYCLE    4 ..............................
........................................................................
   1   -182.3492020 -0.182349E+03  0.184E-01    0.74       0.0  T
   2   -182.3492982 -0.961211E-04  0.107E-01    0.76       1.0  T
   3   -182.3490490  0.249137E-03  0.617E-02    0.75       1.0  T
   4   -182.3493668 -0.317795E-03  0.124E-02    0.75       1.0  T
   5   -182.3493773 -0.104421E-04  0.563E-03    0.75       1.8  T
   6   -182.3493786 -0.135614E-05  0.287E-03    0.75       3.5  T
   7   -182.3493790 -0.435386E-06  0.137E-03    0.75       7.3  T
   8   -182.3493791 -0.515874E-07  0.685E-04    0.75      14.7  T
   9   -182.3493791 -0.209714E-07  0.421E-04    0.75      23.9  T
     SCC iter.                  ...        0 min,  0.109 sec
     gradient                   ...        0 min,  0.029 sec
 * total energy  :  -179.5812998 Eh     change       -0.5057049E-02 Eh
   gradient norm :     0.0239029 Eh/α   predicted    -0.4886296E-02 (  -3.38%)
   displ. norm   :     0.6134065 α      lambda       -0.7526684E-02
   maximum displ.:     0.2377674 α      in ANC's #18, #44, #50, ...

........................................................................
.............................. CYCLE    5 ..............................
........................................................................
   1   -182.3398895 -0.182340E+03  0.399E-01    0.77       0.0  T
   2   -182.3401396 -0.250126E-03  0.222E-01    0.80       1.0  T
   3   -182.3395397  0.599880E-03  0.806E-02    0.77       1.0  T
   4   -182.3402628 -0.723053E-03  0.174E-02    0.78       1.0  T
   5   -182.3402816 -0.188137E-04  0.909E-03    0.79       1.1  T
   6   -182.3402847 -0.309974E-05  0.441E-03    0.79       2.3  T
   7   -182.3402862 -0.149682E-05  0.167E-03    0.78       6.0  T
   8   -182.3402863 -0.106422E-06  0.894E-04    0.79      11.2  T
   9   -182.3402864 -0.536010E-07  0.441E-04    0.79      22.8  T
     SCC iter.                  ...        0 min,  0.116 sec
     gradient                   ...        0 min,  0.029 sec
 * total energy  :  -179.5814915 Eh     change       -0.1916620E-03 Eh
   gradient norm :     0.0471692 Eh/α   predicted    -0.5179384E-02 (2602.35%)
   displ. norm   :     0.3207912 α      lambda       -0.7257106E-02
   maximum displ.:     0.1426017 α      in ANC's #1, #34, #25, ...

........................................................................
.............................. CYCLE    6 ..............................
........................................................................
   1   -182.3517517 -0.182352E+03  0.303E-01    0.79       0.0  T
   2   -182.3518628 -0.111135E-03  0.168E-01    0.80       1.0  T
   3   -182.3516796  0.183211E-03  0.426E-02    0.78       1.0  T
   4   -182.3519157 -0.236125E-03  0.888E-03    0.80       1.1  T
   5   -182.3519194 -0.364627E-05  0.478E-03    0.79       2.1  T
   6   -182.3519202 -0.844161E-06  0.249E-03    0.79       4.0  T
   7   -182.3519208 -0.544091E-06  0.746E-04    0.79      13.5  T
   8   -182.3519208 -0.291277E-07  0.380E-04    0.79      26.5  T
     SCC iter.                  ...        0 min,  0.099 sec
     gradient                   ...        0 min,  0.029 sec
 * total energy  :  -179.5850764 Eh     change       -0.3584868E-02 Eh
   gradient norm :     0.0265855 Eh/α   predicted    -0.4001971E-02 (  11.64%)
   displ. norm   :     0.4079099 α      lambda       -0.4287652E-02
   maximum displ.:     0.1577595 α      in ANC's #34, #27, #35, ...

........................................................................
.............................. CYCLE    7 ..............................
........................................................................
   1   -182.3461615 -0.182346E+03  0.337E-01    0.80       0.0  T
   2   -182.3462945 -0.133065E-03  0.187E-01    0.81       1.0  T
   3   -182.3460097  0.284861E-03  0.525E-02    0.78       1.0  T
   4   -182.3463546 -0.344922E-03  0.113E-02    0.80       1.0  T
   5   -182.3463605 -0.585692E-05  0.620E-03    0.80       1.6  T
   6   -182.3463626 -0.215577E-05  0.260E-03    0.80       3.9  T
   7   -182.3463630 -0.395874E-06  0.122E-03    0.80       8.2  T
   8   -182.3463631 -0.986177E-07  0.498E-04    0.80      20.2  T
   9   -182.3463631 -0.130877E-07  0.255E-04    0.80      39.4  T
     SCC iter.                  ...        0 min,  0.112 sec
     gradient                   ...        0 min,  0.029 sec
 * total energy  :  -179.5849902 Eh     change        0.8621250E-04 Eh
   gradient norm :     0.0284876 Eh/α   predicted    -0.2500550E-02 (*******%)
   displ. norm   :     0.3073681 α      lambda       -0.3993244E-02
   maximum displ.:     0.1052987 α      in ANC's #34, #18, #10, ...

........................................................................
.............................. CYCLE    8 ..............................
........................................................................
   1   -182.3507716 -0.182351E+03  0.234E-01    0.81       0.0  T
   2   -182.3508451 -0.734446E-04  0.130E-01    0.83       1.0  T
   3   -182.3506149  0.230153E-03  0.472E-02    0.80       1.0  T
   4   -182.3508877 -0.272832E-03  0.908E-03    0.82       1.1  T
   5   -182.3508935 -0.576255E-05  0.450E-03    0.82       2.2  T
   6   -182.3508942 -0.697047E-06  0.219E-03    0.82       4.6  T
   7   -182.3508946 -0.395618E-06  0.743E-04    0.82      13.5  T
   8   -182.3508946 -0.206595E-07  0.410E-04    0.82      24.5  T
     SCC iter.                  ...        0 min,  0.100 sec
     gradient                   ...        0 min,  0.029 sec
 * total energy  :  -179.5876891 Eh     change       -0.2698952E-02 Eh
   gradient norm :     0.0223121 Eh/α   predicted    -0.2185249E-02 ( -19.03%)
   displ. norm   :     0.4859845 α      lambda       -0.2621209E-02
   maximum displ.:     0.1613518 α      in ANC's #18, #10, #12, ...

........................................................................
.............................. CYCLE    9 ..............................
........................................................................
   1   -182.3447298 -0.182345E+03  0.231E-01    0.83       0.0  T
   2   -182.3448498 -0.119975E-03  0.130E-01    0.86       1.0  T
   3   -182.3442224  0.627359E-03  0.798E-02    0.82       1.0  T
   4   -182.3449582 -0.735796E-03  0.151E-02    0.85       1.0  T
   5   -182.3449763 -0.180569E-04  0.688E-03    0.84       1.5  T
   6   -182.3449787 -0.244543E-05  0.316E-03    0.85       3.2  T
   7   -182.3449794 -0.682405E-06  0.123E-03    0.84       8.2  T
   8   -182.3449795 -0.626577E-07  0.637E-04    0.85      15.8  T
   9   -182.3449795 -0.303971E-07  0.243E-04    0.85      41.3  T
     SCC iter.                  ...        0 min,  0.111 sec
     gradient                   ...        0 min,  0.029 sec
 * total energy  :  -179.5892845 Eh     change       -0.1595415E-02 Eh
   gradient norm :     0.0336729 Eh/α   predicted    -0.1620156E-02 (   1.55%)
   displ. norm   :     0.5312938 α      lambda       -0.2233354E-02
   maximum displ.:     0.1808850 α      in ANC's #10, #16, #12, ...

........................................................................
.............................. CYCLE   10 ..............................
........................................................................
   1   -182.3458536 -0.182346E+03  0.149E-01    0.86       0.0  T
   2   -182.3459382 -0.846172E-04  0.883E-02    0.89       1.0  T
   3   -182.3456669  0.271331E-03  0.624E-02    0.85       1.0  T
   4   -182.3460445 -0.377626E-03  0.161E-02    0.87       1.0  T
   5   -182.3460675 -0.230354E-04  0.624E-03    0.87       1.6  T
   6   -182.3460699 -0.238157E-05  0.282E-03    0.87       3.6  T
   7   -182.3460705 -0.584835E-06  0.994E-04    0.87      10.1  T
   8   -182.3460705 -0.401689E-07  0.543E-04    0.87      18.5  T
     SCC iter.                  ...        0 min,  0.100 sec
     gradient                   ...        0 min,  0.029 sec
 * total energy  :  -179.5910571 Eh     change       -0.1772550E-02 Eh
   gradient norm :     0.0191652 Eh/α   predicted    -0.1431883E-02 ( -19.22%)
   displ. norm   :     0.6890705 α      lambda       -0.3015677E-02
   maximum displ.:     0.2399984 α      in ANC's #27, #12, #10, ...

........................................................................
.............................. CYCLE   11 ..............................
........................................................................
   1   -182.3469449 -0.182347E+03  0.235E-01    0.88       0.0  T
   2   -182.3470932 -0.148332E-03  0.136E-01    0.91       1.0  T
   3   -182.3463440  0.749159E-03  0.916E-02    0.87       1.0  T
   4   -182.3472844 -0.940399E-03  0.186E-02    0.89       1.0  T
   5   -182.3473141 -0.296304E-04  0.810E-03    0.89       1.2  T
   6   -182.3473178 -0.372326E-05  0.358E-03    0.89       2.8  T
   7   -182.3473185 -0.764761E-06  0.153E-03    0.89       6.6  T
   8   -182.3473187 -0.121715E-06  0.760E-04    0.89      13.2  T
   9   -182.3473187 -0.416164E-07  0.321E-04    0.89      31.3  T
     SCC iter.                  ...        0 min,  0.109 sec
     gradient                   ...        0 min,  0.029 sec
 * total energy  :  -179.5927638 Eh     change       -0.1706743E-02 Eh
   gradient norm :     0.0265465 Eh/α   predicted    -0.2223783E-02 (  30.29%)
   displ. norm   :     0.5553605 α      lambda       -0.2469250E-02
   maximum displ.:     0.2122350 α      in ANC's #10, #12, #20, ...

........................................................................
.............................. CYCLE   12 ..............................
........................................................................
   1   -182.3548952 -0.182355E+03  0.186E-01    0.90       0.0  T
   2   -182.3549663 -0.710276E-04  0.108E-01    0.92       1.0  T
   3   -182.3544853  0.480922E-03  0.718E-02    0.90       1.0  T
   4   -182.3550672 -0.581823E-03  0.140E-02    0.91       1.0  T
   5   -182.3550841 -0.169481E-04  0.587E-03    0.91       1.7  T
   6   -182.3550859 -0.183623E-05  0.269E-03    0.91       3.7  T
   7   -182.3550863 -0.375480E-06  0.120E-03    0.91       8.3  T
   8   -182.3550864 -0.800248E-07  0.581E-04    0.91      17.3  T
   9   -182.3550864 -0.238329E-07  0.253E-04    0.91      39.7  T
     SCC iter.                  ...        0 min,  0.109 sec
     gradient                   ...        0 min,  0.029 sec
 * total energy  :  -179.5943613 Eh     change       -0.1597485E-02 Eh
   gradient norm :     0.0256801 Eh/α   predicted    -0.1615413E-02 (   1.12%)
   displ. norm   :     0.5502420 α      lambda       -0.1888757E-02
   maximum displ.:     0.2234577 α      in ANC's #10, #12, #16, ...

........................................................................
.............................. CYCLE   13 ..............................
........................................................................
   1   -182.3513540 -0.182351E+03  0.181E-01    0.91       0.0  T
   2   -182.3514270 -0.730607E-04  0.103E-01    0.92       1.0  T
   3   -182.3510704  0.356619E-03  0.612E-02    0.91       1.0  T
   4   -182.3514920 -0.421538E-03  0.117E-02    0.91       1.0  T
   5   -182.3515025 -0.105269E-04  0.570E-03    0.92       1.8  T
   6   -182.3515044 -0.187710E-05  0.216E-03    0.92       4.7  T
   7   -182.3515045 -0.142295E-06  0.967E-04    0.92      10.4  T
   8   -182.3515046 -0.531712E-07  0.445E-04    0.92      22.6  T
     SCC iter.                  ...        0 min,  0.096 sec
     gradient                   ...        0 min,  0.029 sec
 * total energy  :  -179.5952514 Eh     change       -0.8901103E-03 Eh
   gradient norm :     0.0267024 Eh/α   predicted    -0.1230304E-02 (  38.22%)
   displ. norm   :     0.4486703 α      lambda       -0.2033423E-02
   maximum displ.:     0.1744654 α      in ANC's #12, #10, #27, ...

........................................................................
.............................. CYCLE   14 ..............................
........................................................................
   1   -182.3615373 -0.182362E+03  0.163E-01    0.91       0.0  T
   2   -182.3615845 -0.471999E-04  0.907E-02    0.92       1.0  T
   3   -182.3614753  0.109186E-03  0.343E-02    0.91       1.0  T
   4   -182.3616057 -0.130459E-03  0.706E-03    0.92       1.4  T
   5   -182.3616083 -0.259468E-05  0.440E-03    0.92       2.3  T
   6   -182.3616098 -0.141746E-05  0.186E-03    0.92       5.4  T
   7   -182.3616099 -0.195837E-06  0.714E-04    0.92      14.1  T
   8   -182.3616100 -0.302223E-07  0.319E-04    0.92      31.6  T
     SCC iter.                  ...        0 min,  0.096 sec
     gradient                   ...        0 min,  0.029 sec
 * total energy  :  -179.5965056 Eh     change       -0.1254236E-02 Eh
   gradient norm :     0.0191558 Eh/α   predicted    -0.1221385E-02 (  -2.62%)
   displ. norm   :     0.5535007 α      lambda       -0.1300001E-02
   maximum displ.:     0.2299232 α      in ANC's #10, #12, #27, ...

........................................................................
.............................. CYCLE   15 ..............................
........................................................................
   1   -182.3537290 -0.182354E+03  0.147E-01    0.92       0.0  T
   2   -182.3537592 -0.302061E-04  0.844E-02    0.93       1.0  T
   3   -182.3534845  0.274631E-03  0.491E-02    0.91       1.0  T
   4   -182.3537960 -0.311412E-03  0.854E-03    0.92       1.2  T
   5   -182.3538003 -0.433557E-05  0.473E-03    0.92       2.1  T
   6   -182.3538017 -0.138130E-05  0.174E-03    0.92       5.8  T
   7   -182.3538018 -0.131076E-06  0.851E-04    0.92      11.8  T
   8   -182.3538019 -0.543090E-07  0.370E-04    0.92      27.2  T
     SCC iter.                  ...        0 min,  0.096 sec
     gradient                   ...        0 min,  0.029 sec
 * total energy  :  -179.5973926 Eh     change       -0.8869594E-03 Eh
   gradient norm :     0.0175977 Eh/α   predicted    -0.8491367E-03 (  -4.26%)
   displ. norm   :     0.5819661 α      lambda       -0.1698936E-02
   maximum displ.:     0.2128607 α      in ANC's #10, #12, #27, ...

........................................................................
.............................. CYCLE   16 ..............................
........................................................................
   1   -182.3703895 -0.182370E+03  0.168E-01    0.93       0.0  T
   2   -182.3704236 -0.340768E-04  0.957E-02    0.92       1.0  T
   3   -182.3702308  0.192747E-03  0.422E-02    0.94       1.0  T
   4   -182.3704439 -0.213121E-03  0.872E-03    0.92       1.2  T
   5   -182.3704480 -0.406900E-05  0.519E-03    0.92       1.9  T
   6   -182.3704498 -0.181403E-05  0.192E-03    0.92       5.2  T
   7   -182.3704499 -0.122541E-06  0.802E-04    0.92      12.5  T
   8   -182.3704500 -0.309768E-07  0.349E-04    0.92      28.8  T
     SCC iter.                  ...        0 min,  0.099 sec
     gradient                   ...        0 min,  0.029 sec
 * total energy  :  -179.5974963 Eh     change       -0.1036512E-03 Eh
   gradient norm :     0.0390201 Eh/α   predicted    -0.1137166E-02 ( 997.11%)
   displ. norm   :     0.3135698 α      lambda       -0.2006202E-02
   maximum displ.:     0.1341859 α      in ANC's #10, #12, #4, ...

........................................................................
.............................. CYCLE   17 ..............................
........................................................................
   1   -182.3643142 -0.182364E+03  0.116E-01    0.91       0.0  T
   2   -182.3643375 -0.232582E-04  0.658E-02    0.92       1.0  T
   3   -182.3642181  0.119342E-03  0.337E-02    0.91       1.0  T
   4   -182.3643538 -0.135648E-03  0.677E-03    0.92       1.5  T
   5   -182.3643570 -0.318742E-05  0.364E-03    0.92       2.8  T
   6   -182.3643577 -0.776149E-06  0.151E-03    0.92       6.6  T
   7   -182.3643578 -0.898232E-07  0.648E-04    0.92      15.5  T
   8   -182.3643578 -0.277833E-07  0.292E-04    0.92      34.4  T
     SCC iter.                  ...        0 min,  0.097 sec
     gradient                   ...        0 min,  0.029 sec
 * total energy  :  -179.5985701 Eh     change       -0.1073868E-02 Eh
   gradient norm :     0.0143237 Eh/α   predicted    -0.1101732E-02 (   2.59%)
   displ. norm   :     0.4424740 α      lambda       -0.8200710E-03
   maximum displ.:     0.2014321 α      in ANC's #10, #12, #4, ...

........................................................................
.............................. CYCLE   18 ..............................
........................................................................
   1   -182.3468119 -0.182347E+03  0.126E-01    0.92       0.0  T
   2   -182.3468263 -0.143782E-04  0.733E-02    0.93       1.0  T
   3   -182.3464933  0.332946E-03  0.550E-02    0.91       1.0  T
   4   -182.3468763 -0.382971E-03  0.852E-03    0.93       1.2  T
   5   -182.3468818 -0.548410E-05  0.393E-03    0.93       2.6  T
   6   -182.3468826 -0.809510E-06  0.177E-03    0.93       5.7  T
   7   -182.3468827 -0.142896E-06  0.787E-04    0.93      12.8  T
   8   -182.3468828 -0.395149E-07  0.367E-04    0.93      27.4  T
     SCC iter.                  ...        0 min,  0.097 sec
     gradient                   ...        0 min,  0.029 sec
 * total energy  :  -179.5987299 Eh     change       -0.1597570E-03 Eh
   gradient norm :     0.0295068 Eh/α   predicted    -0.4903177E-03 ( 206.91%)
   displ. norm   :     0.2841694 α      lambda       -0.9050760E-03
   maximum displ.:     0.1221107 α      in ANC's #10, #12, #4, ...

........................................................................
.............................. CYCLE   19 ..............................
........................................................................
   1   -182.3494417 -0.182349E+03  0.114E-01    0.91       0.0  T
   2   -182.3494612 -0.195339E-04  0.633E-02    0.92       1.0  T
   3   -182.3494093  0.519255E-04  0.241E-02    0.92       1.0  T
   4   -182.3494711 -0.618229E-04  0.400E-03    0.92       2.5  T
   5   -182.3494716 -0.469483E-06  0.259E-03    0.92       3.9  T
   6   -182.3494720 -0.446756E-06  0.966E-04    0.92      10.4  T
   7   -182.3494721 -0.354974E-07  0.394E-04    0.92      25.5  T
     SCC iter.                  ...        0 min,  0.091 sec
     gradient                   ...        0 min,  0.029 sec
 * total energy  :  -179.5991175 Eh     change       -0.3876241E-03 Eh
   gradient norm :     0.0253692 Eh/α   predicted    -0.4890867E-03 (  26.18%)
   displ. norm   :     0.3318890 α      lambda       -0.1248814E-02
   maximum displ.:     0.1068599 α      in ANC's #18, #3, #4, ...

........................................................................
.............................. CYCLE   20 ..............................
........................................................................
   1   -182.3766696 -0.182377E+03  0.142E-01    0.93       0.0  T
   2   -182.3767003 -0.307123E-04  0.805E-02    0.93       1.0  T
   3   -182.3764582  0.242172E-03  0.511E-02    0.93       1.0  T
   4   -182.3767373 -0.279167E-03  0.861E-03    0.92       1.2  T
   5   -182.3767436 -0.629619E-05  0.407E-03    0.93       2.5  T
   6   -182.3767446 -0.923226E-06  0.196E-03    0.93       5.1  T
   7   -182.3767448 -0.186802E-06  0.777E-04    0.93      12.9  T
   8   -182.3767448 -0.272773E-07  0.400E-04    0.93      25.1  T
     SCC iter.                  ...        0 min,  0.100 sec
     gradient                   ...        0 min,  0.029 sec
 * total energy  :  -179.5988422 Eh     change        0.2752531E-03 Eh
   gradient norm :     0.0445395 Eh/α   predicted    -0.6931861E-03 (-351.84%)
   displ. norm   :     0.1747620 α      lambda       -0.1421449E-02
   maximum displ.:     0.0839434 α      in ANC's #10, #12, #4, ...
 * RMSD in coord.:     0.6350213 α      energy gain  -0.1108718E+00 Eh

generating ANC from model Hessian ...
Using Lindh-Hessian (1995)
 Shifting diagonal of input Hessian by   9.990530687440120E-003
 Lowest  eigenvalues of input Hessian
    0.000000    0.000000    0.000000    0.000000    0.000000    0.000000
    0.010000    0.010026    0.010067    0.010122    0.010195    0.010236
    0.010364    0.010433    0.010453    0.010564    0.010602    0.010640
 Highest eigenvalues
    2.286328    2.583413    2.605328    2.619389    2.648472    2.672824
 

........................................................................
.............................. CYCLE   21 ..............................
........................................................................
   1   -182.3628010 -0.182363E+03  0.113E-01    0.93       0.0  T
   2   -182.3628190 -0.180329E-04  0.634E-02    0.92       1.0  T
   3   -182.3627097  0.109287E-03  0.353E-02    0.92       1.0  T
   4   -182.3628366 -0.126877E-03  0.470E-03    0.93       2.1  T
   5   -182.3628377 -0.110332E-05  0.285E-03    0.92       3.5  T
   6   -182.3628382 -0.530590E-06  0.119E-03    0.92       8.5  T
   7   -182.3628383 -0.729599E-07  0.439E-04    0.92      22.9  T
   8   -182.3628383 -0.113774E-07  0.233E-04    0.92      43.1  T
     SCC iter.                  ...        0 min,  0.100 sec
     gradient                   ...        0 min,  0.029 sec
 * total energy  :  -179.5996473 Eh     change       -0.8051011E-03 Eh
   gradient norm :     0.0070760 Eh/α   predicted     0.0000000E+00 (-100.00%)
   displ. norm   :     0.1235231 α      lambda       -0.2723518E-03
   maximum displ.:     0.0516921 α      in ANC's #3, #8, #9, ...

........................................................................
.............................. CYCLE   22 ..............................
........................................................................
   1   -182.3609125 -0.182361E+03  0.872E-02    0.92       0.0  T
   2   -182.3609214 -0.890083E-05  0.482E-02    0.92       1.0  T
   3   -182.3609106  0.107575E-04  0.110E-02    0.92       1.0  T
   4   -182.3609251 -0.144992E-04  0.277E-03    0.93       3.6  T
   5   -182.3609256 -0.435215E-06  0.155E-03    0.92       6.5  T
   6   -182.3609257 -0.132180E-06  0.561E-04    0.93      17.9  T
   7   -182.3609257 -0.240323E-07  0.205E-04    0.92      49.1  T
     SCC iter.                  ...        0 min,  0.088 sec
     gradient                   ...        0 min,  0.029 sec
 * total energy  :  -179.5997461 Eh     change       -0.9874669E-04 Eh
   gradient norm :     0.0055215 Eh/α   predicted    -0.1382541E-03 (  40.01%)
   displ. norm   :     0.2358627 α      lambda       -0.4765714E-03
   maximum displ.:     0.1025632 α      in ANC's #3, #8, #10, ...

........................................................................
.............................. CYCLE   23 ..............................
........................................................................
   1   -182.3592696 -0.182359E+03  0.787E-02    0.92       0.0  T
   2   -182.3592777 -0.806557E-05  0.447E-02    0.93       1.0  T
   3   -182.3592365  0.412397E-04  0.193E-02    0.93       1.0  T
   4   -182.3592827 -0.462752E-04  0.406E-03    0.93       2.5  T
   5   -182.3592838 -0.104822E-05  0.216E-03    0.93       4.7  T
   6   -182.3592840 -0.222053E-06  0.986E-04    0.93      10.2  T
   7   -182.3592841 -0.646660E-07  0.393E-04    0.93      25.6  T
     SCC iter.                  ...        0 min,  0.088 sec
     gradient                   ...        0 min,  0.029 sec
 * total energy  :  -179.5999042 Eh     change       -0.1581516E-03 Eh
   gradient norm :     0.0113712 Eh/α   predicted    -0.2515419E-03 (  59.05%)
   displ. norm   :     0.1545707 α      lambda       -0.3306049E-03
   maximum displ.:     0.0728150 α      in ANC's #3, #8, #10, ...

........................................................................
.............................. CYCLE   24 ..............................
........................................................................
   1   -182.3605090 -0.182361E+03  0.568E-02    0.93       0.0  T
   2   -182.3605124 -0.341123E-05  0.318E-02    0.93       1.0  T
   3   -182.3604974  0.150939E-04  0.123E-02    0.93       1.0  T
   4   -182.3605146 -0.172486E-04  0.213E-03    0.93       4.7  T
   5   -182.3605148 -0.180633E-06  0.131E-03    0.93       7.6  T
   6   -182.3605149 -0.103509E-06  0.565E-04    0.93      17.8  T
   7   -182.3605149 -0.118389E-07  0.256E-04    0.93      39.3  T
     SCC iter.                  ...        0 min,  0.087 sec
     gradient                   ...        0 min,  0.029 sec
 * total energy  :  -179.6001237 Eh     change       -0.2194174E-03 Eh
   gradient norm :     0.0072834 Eh/α   predicted    -0.1692564E-03 ( -22.86%)
   displ. norm   :     0.2955435 α      lambda       -0.3784698E-03
   maximum displ.:     0.1439103 α      in ANC's #3, #8, #10, ...

........................................................................
.............................. CYCLE   25 ..............................
........................................................................
   1   -182.3611972 -0.182361E+03  0.636E-02    0.93       0.0  T
   2   -182.3612029 -0.569510E-05  0.361E-02    0.93       1.0  T
   3   -182.3611895  0.134619E-04  0.121E-02    0.93       1.0  T
   4   -182.3612053 -0.158033E-04  0.280E-03    0.93       3.6  T
   5   -182.3612056 -0.365474E-06  0.156E-03    0.93       6.4  T
   6   -182.3612058 -0.129943E-06  0.750E-04    0.93      13.4  T
   7   -182.3612058 -0.360187E-07  0.275E-04    0.93      36.5  T
     SCC iter.                  ...        0 min,  0.088 sec
     gradient                   ...        0 min,  0.029 sec
 * total energy  :  -179.6003930 Eh     change       -0.2693811E-03 Eh
   gradient norm :     0.0068391 Eh/α   predicted    -0.2057659E-03 ( -23.62%)
   displ. norm   :     0.4656305 α      lambda       -0.3745910E-03
   maximum displ.:     0.2265414 α      in ANC's #3, #8, #10, ...

........................................................................
.............................. CYCLE   26 ..............................
........................................................................
   1   -182.3608284 -0.182361E+03  0.839E-02    0.93       0.0  T
   2   -182.3608366 -0.816830E-05  0.475E-02    0.94       1.0  T
   3   -182.3608280  0.855368E-05  0.109E-02    0.94       1.0  T
   4   -182.3608396 -0.115313E-04  0.303E-03    0.94       3.3  T
   5   -182.3608399 -0.299509E-06  0.159E-03    0.94       6.3  T
   6   -182.3608400 -0.931724E-07  0.825E-04    0.94      12.2  T
   7   -182.3608400 -0.636174E-07  0.291E-04    0.94      34.5  T
     SCC iter.                  ...        0 min,  0.087 sec
     gradient                   ...        0 min,  0.029 sec
 * total energy  :  -179.6007091 Eh     change       -0.3160823E-03 Eh
   gradient norm :     0.0077384 Eh/α   predicted    -0.2279035E-03 ( -27.90%)
   displ. norm   :     0.6367322 α      lambda       -0.4972127E-03
   maximum displ.:     0.3137380 α      in ANC's #3, #8, #10, ...

........................................................................
.............................. CYCLE   27 ..............................
........................................................................
   1   -182.3597152 -0.182360E+03  0.110E-01    0.94       0.0  T
   2   -182.3597283 -0.130697E-04  0.628E-02    0.94       1.0  T
   3   -182.3597046  0.236273E-04  0.166E-02    0.94       1.0  T
   4   -182.3597335 -0.288768E-04  0.423E-03    0.94       2.4  T
   5   -182.3597342 -0.686914E-06  0.245E-03    0.94       4.1  T
   6   -182.3597345 -0.304069E-06  0.107E-03    0.94       9.4  T
   7   -182.3597346 -0.751585E-07  0.337E-04    0.94      29.8  T
   8   -182.3597346 -0.663755E-08  0.152E-04    0.94      66.3  T
     SCC iter.                  ...        0 min,  0.099 sec
     gradient                   ...        0 min,  0.029 sec
 * total energy  :  -179.6010890 Eh     change       -0.3798645E-03 Eh
   gradient norm :     0.0076401 Eh/α   predicted    -0.3494057E-03 (  -8.02%)
   displ. norm   :     0.6406654 α      lambda       -0.5323611E-03
   maximum displ.:     0.3248107 α      in ANC's #3, #10, #8, ...

........................................................................
.............................. CYCLE   28 ..............................
........................................................................
   1   -182.3569930 -0.182357E+03  0.137E-01    0.94       0.0  T
   2   -182.3570163 -0.232444E-04  0.771E-02    0.94       1.0  T
   3   -182.3570013  0.149596E-04  0.159E-02    0.94       1.0  T
   4   -182.3570250 -0.236930E-04  0.449E-03    0.95       2.2  T
   5   -182.3570255 -0.434027E-06  0.272E-03    0.95       3.7  T
   6   -182.3570258 -0.382117E-06  0.120E-03    0.95       8.4  T
   7   -182.3570260 -0.121440E-06  0.425E-04    0.95      23.6  T
   8   -182.3570260 -0.156138E-07  0.188E-04    0.95      53.3  T
     SCC iter.                  ...        0 min,  0.101 sec
     gradient                   ...        0 min,  0.029 sec
 * total energy  :  -179.6014333 Eh     change       -0.3443206E-03 Eh
   gradient norm :     0.0101711 Eh/α   predicted    -0.3754357E-03 (   9.04%)
   displ. norm   :     0.5472573 α      lambda       -0.5397995E-03
   maximum displ.:     0.2903410 α      in ANC's #3, #8, #10, ...

........................................................................
.............................. CYCLE   29 ..............................
........................................................................
   1   -182.3598989 -0.182360E+03  0.123E-01    0.95       0.0  T
   2   -182.3599179 -0.189914E-04  0.687E-02    0.95       1.0  T
   3   -182.3599043  0.135763E-04  0.150E-02    0.95       1.0  T
   4   -182.3599249 -0.205647E-04  0.404E-03    0.95       2.5  T
   5   -182.3599252 -0.297598E-06  0.255E-03    0.95       3.9  T
   6   -182.3599257 -0.520760E-06  0.114E-03    0.95       8.8  T
   7   -182.3599258 -0.104451E-06  0.388E-04    0.95      25.9  T
   8   -182.3599258 -0.827350E-08  0.158E-04    0.95      63.6  T
     SCC iter.                  ...        0 min,  0.099 sec
     gradient                   ...        0 min,  0.029 sec
 * total energy  :  -179.6016209 Eh     change       -0.1875957E-03 Eh
   gradient norm :     0.0155559 Eh/α   predicted    -0.3507335E-03 (  86.96%)
   displ. norm   :     0.3714562 α      lambda       -0.5720947E-03
   maximum displ.:     0.2004926 α      in ANC's #3, #10, #8, ...

........................................................................
.............................. CYCLE   30 ..............................
........................................................................
   1   -182.3651785 -0.182365E+03  0.787E-02    0.95       0.0  T
   2   -182.3651857 -0.725933E-05  0.442E-02    0.95       1.0  T
   3   -182.3651736  0.121498E-04  0.121E-02    0.95       1.0  T
   4   -182.3651885 -0.149238E-04  0.295E-03    0.95       3.4  T
   5   -182.3651888 -0.306997E-06  0.188E-03    0.95       5.3  T
   6   -182.3651891 -0.304733E-06  0.681E-04    0.95      14.8  T
   7   -182.3651891 -0.209245E-07  0.287E-04    0.95      35.0  T
     SCC iter.                  ...        0 min,  0.087 sec
     gradient                   ...        0 min,  0.029 sec
 * total energy  :  -179.6020073 Eh     change       -0.3863875E-03 Eh
   gradient norm :     0.0104875 Eh/α   predicted    -0.3255166E-03 ( -15.75%)
   displ. norm   :     0.5678116 α      lambda       -0.4592413E-03
   maximum displ.:     0.3045291 α      in ANC's #3, #10, #8, ...

........................................................................
.............................. CYCLE   31 ..............................
........................................................................
   1   -182.3588604 -0.182359E+03  0.128E-01    0.94       0.0  T
   2   -182.3588785 -0.181734E-04  0.719E-02    0.95       1.0  T
   3   -182.3588373  0.412977E-04  0.221E-02    0.95       1.0  T
   4   -182.3588878 -0.505738E-04  0.459E-03    0.95       2.2  T
   5   -182.3588880 -0.152481E-06  0.316E-03    0.95       3.2  T
   6   -182.3588887 -0.765466E-06  0.109E-03    0.95       9.2  T
   7   -182.3588888 -0.865777E-07  0.402E-04    0.95      25.0  T
   8   -182.3588888 -0.103772E-07  0.194E-04    0.95      51.7  T
     SCC iter.                  ...        0 min,  0.099 sec
     gradient                   ...        0 min,  0.029 sec
 * total energy  :  -179.6022741 Eh     change       -0.2667600E-03 Eh
   gradient norm :     0.0150316 Eh/α   predicted    -0.3036583E-03 (  13.83%)
   displ. norm   :     0.4811983 α      lambda       -0.4333055E-03
   maximum displ.:     0.2710520 α      in ANC's #3, #10, #8, ...

........................................................................
.............................. CYCLE   32 ..............................
........................................................................
   1   -182.3624101 -0.182362E+03  0.787E-02    0.95       0.0  T
   2   -182.3624180 -0.786555E-05  0.447E-02    0.95       1.0  T
   3   -182.3623876  0.303099E-04  0.191E-02    0.95       1.0  T
   4   -182.3624229 -0.352961E-04  0.343E-03    0.95       2.9  T
   5   -182.3624233 -0.391750E-06  0.226E-03    0.95       4.4  T
   6   -182.3624237 -0.344103E-06  0.869E-04    0.95      11.6  T
   7   -182.3624237 -0.276777E-07  0.396E-04    0.95      25.4  T
     SCC iter.                  ...        0 min,  0.087 sec
     gradient                   ...        0 min,  0.029 sec
 * total energy  :  -179.6025942 Eh     change       -0.3201458E-03 Eh
   gradient norm :     0.0090706 Eh/α   predicted    -0.2668244E-03 ( -16.66%)
   displ. norm   :     0.5858655 α      lambda       -0.4246296E-03
   maximum displ.:     0.3309912 α      in ANC's #3, #10, #8, ...

........................................................................
.............................. CYCLE   33 ..............................
........................................................................
   1   -182.3677825 -0.182368E+03  0.978E-02    0.95       0.0  T
   2   -182.3677935 -0.110834E-04  0.552E-02    0.95       1.0  T
   3   -182.3677708  0.227155E-04  0.172E-02    0.96       1.0  T
   4   -182.3677987 -0.279235E-04  0.388E-03    0.95       2.6  T
   5   -182.3677989 -0.144715E-06  0.279E-03    0.96       3.6  T
   6   -182.3677996 -0.672069E-06  0.953E-04    0.95      10.5  T
   7   -182.3677996 -0.502638E-07  0.389E-04    0.95      25.9  T
     SCC iter.                  ...        0 min,  0.089 sec
     gradient                   ...        0 min,  0.029 sec
 * total energy  :  -179.6029328 Eh     change       -0.3386097E-03 Eh
   gradient norm :     0.0063496 Eh/α   predicted    -0.2851939E-03 ( -15.78%)
   displ. norm   :     0.6865198 α      lambda       -0.3930835E-03
   maximum displ.:     0.3912880 α      in ANC's #3, #10, #8, ...

........................................................................
.............................. CYCLE   34 ..............................
........................................................................
   1   -182.3632391 -0.182363E+03  0.118E-01    0.95       0.0  T
   2   -182.3632543 -0.152684E-04  0.665E-02    0.96       1.0  T
   3   -182.3632199  0.344878E-04  0.204E-02    0.96       1.0  T
   4   -182.3632618 -0.419721E-04  0.459E-03    0.96       2.2  T
   5   -182.3632622 -0.361838E-06  0.307E-03    0.96       3.3  T
   6   -182.3632629 -0.704686E-06  0.943E-04    0.96      10.7  T
   7   -182.3632629 -0.383767E-07  0.391E-04    0.96      25.7  T
     SCC iter.                  ...        0 min,  0.087 sec
     gradient                   ...        0 min,  0.029 sec
 * total energy  :  -179.6032552 Eh     change       -0.3223828E-03 Eh
   gradient norm :     0.0065009 Eh/α   predicted    -0.2891757E-03 ( -10.30%)
   displ. norm   :     0.6172230 α      lambda       -0.3625194E-03
   maximum displ.:     0.3636488 α      in ANC's #3, #10, #5, ...

........................................................................
.............................. CYCLE   35 ..............................
........................................................................
   1   -182.3658573 -0.182366E+03  0.979E-02    0.96       0.0  T
   2   -182.3658678 -0.105499E-04  0.553E-02    0.96       1.0  T
   3   -182.3658359  0.319486E-04  0.193E-02    0.96       1.0  T
   4   -182.3658735 -0.375791E-04  0.416E-03    0.96       2.4  T
   5   -182.3658736 -0.130766E-06  0.306E-03    0.96       3.3  T
   6   -182.3658744 -0.825472E-06  0.919E-04    0.96      10.9  T
   7   -182.3658745 -0.375050E-07  0.456E-04    0.96      22.0  T
     SCC iter.                  ...        0 min,  0.086 sec
     gradient                   ...        0 min,  0.029 sec
 * total energy  :  -179.6035520 Eh     change       -0.2967608E-03 Eh
   gradient norm :     0.0074767 Eh/α   predicted    -0.2503143E-03 ( -15.65%)
   displ. norm   :     0.6684951 α      lambda       -0.3735321E-03
   maximum displ.:     0.3922169 α      in ANC's #3, #10, #5, ...

........................................................................
.............................. CYCLE   36 ..............................
........................................................................
   1   -182.3634586 -0.182363E+03  0.979E-02    0.96       0.0  T
   2   -182.3634683 -0.977381E-05  0.555E-02    0.96       1.0  T
   3   -182.3634512  0.171427E-04  0.152E-02    0.97       1.0  T
   4   -182.3634725 -0.213401E-04  0.394E-03    0.96       2.6  T
   5   -182.3634725  0.182078E-07  0.271E-03    0.96       3.7  T
   6   -182.3634732 -0.693032E-06  0.913E-04    0.96      11.0  T
   7   -182.3634733 -0.468553E-07  0.442E-04    0.96      22.7  T
     SCC iter.                  ...        0 min,  0.085 sec
     gradient                   ...        0 min,  0.029 sec
 * total energy  :  -179.6038604 Eh     change       -0.3084911E-03 Eh
   gradient norm :     0.0075598 Eh/α   predicted    -0.2702304E-03 ( -12.40%)
   displ. norm   :     0.6246554 α      lambda       -0.4172133E-03
   maximum displ.:     0.3762034 α      in ANC's #3, #10, #5, ...

........................................................................
.............................. CYCLE   37 ..............................
........................................................................
   1   -182.3690893 -0.182369E+03  0.858E-02    0.97       0.0  T
   2   -182.3690950 -0.569287E-05  0.485E-02    0.97       1.0  T
   3   -182.3690273  0.676952E-04  0.248E-02    0.98       1.0  T
   4   -182.3691018 -0.745112E-04  0.452E-03    0.97       2.2  T
   5   -182.3691025 -0.654714E-06  0.287E-03    0.97       3.5  T
   6   -182.3691031 -0.589443E-06  0.803E-04    0.97      12.5  T
   7   -182.3691031 -0.262773E-07  0.374E-04    0.97      26.9  T
     SCC iter.                  ...        0 min,  0.084 sec
     gradient                   ...        0 min,  0.029 sec
 * total energy  :  -179.6041630 Eh     change       -0.3025567E-03 Eh
   gradient norm :     0.0081322 Eh/α   predicted    -0.2900109E-03 (  -4.15%)
   displ. norm   :     0.6821703 α      lambda       -0.3529827E-03
   maximum displ.:     0.4062838 α      in ANC's #3, #10, #5, ...

........................................................................
.............................. CYCLE   38 ..............................
........................................................................
   1   -182.3627349 -0.182363E+03  0.108E-01    0.97       0.0  T
   2   -182.3627463 -0.113687E-04  0.608E-02    0.97       1.0  T
   3   -182.3627177  0.286202E-04  0.192E-02    0.97       1.0  T
   4   -182.3627525 -0.347976E-04  0.429E-03    0.97       2.3  T
   5   -182.3627524  0.311431E-07  0.297E-03    0.97       3.4  T
   6   -182.3627532 -0.721839E-06  0.935E-04    0.97      10.7  T
   7   -182.3627532 -0.595006E-07  0.430E-04    0.97      23.4  T
     SCC iter.                  ...        0 min,  0.084 sec
     gradient                   ...        0 min,  0.029 sec
 * total energy  :  -179.6044127 Eh     change       -0.2496641E-03 Eh
   gradient norm :     0.0092535 Eh/α   predicted    -0.2586245E-03 (   3.59%)
   displ. norm   :     0.5096968 α      lambda       -0.2991748E-03
   maximum displ.:     0.3136899 α      in ANC's #3, #10, #5, ...

........................................................................
.............................. CYCLE   39 ..............................
........................................................................
   1   -182.3632367 -0.182363E+03  0.754E-02    0.97       0.0  T
   2   -182.3632428 -0.608742E-05  0.426E-02    0.97       1.0  T
   3   -182.3632192  0.235933E-04  0.157E-02    0.98       1.0  T
   4   -182.3632462 -0.270018E-04  0.357E-03    0.97       2.8  T
   5   -182.3632466 -0.372580E-06  0.247E-03    0.98       4.1  T
   6   -182.3632471 -0.512922E-06  0.630E-04    0.98      16.0  T
   7   -182.3632471 -0.149139E-07  0.359E-04    0.98      28.0  T
     SCC iter.                  ...        0 min,  0.085 sec
     gradient                   ...        0 min,  0.029 sec
 * total energy  :  -179.6046323 Eh     change       -0.2196302E-03 Eh
   gradient norm :     0.0101906 Eh/α   predicted    -0.1884511E-03 ( -14.20%)
   displ. norm   :     0.5090264 α      lambda       -0.3215757E-03
   maximum displ.:     0.3159304 α      in ANC's #3, #10, #2, ...

........................................................................
.............................. CYCLE   40 ..............................
........................................................................
   1   -182.3654501 -0.182365E+03  0.673E-02    0.98       0.0  T
   2   -182.3654540 -0.388724E-05  0.385E-02    0.98       1.0  T
   3   -182.3654259  0.281032E-04  0.173E-02    0.99       1.0  T
   4   -182.3654572 -0.313801E-04  0.323E-03    0.98       3.1  T
   5   -182.3654576 -0.394034E-06  0.218E-03    0.98       4.6  T
   6   -182.3654580 -0.368661E-06  0.695E-04    0.98      14.5  T
   7   -182.3654580 -0.290833E-07  0.316E-04    0.98      31.8  T
     SCC iter.                  ...        0 min,  0.085 sec
     gradient                   ...        0 min,  0.029 sec
 * total energy  :  -179.6048583 Eh     change       -0.2260219E-03 Eh
   gradient norm :     0.0086370 Eh/α   predicted    -0.2024526E-03 ( -10.43%)
   displ. norm   :     0.5534891 α      lambda       -0.3046785E-03
   maximum displ.:     0.3373210 α      in ANC's #3, #10, #2, ...

........................................................................
.............................. CYCLE   41 ..............................
........................................................................
   1   -182.3663291 -0.182366E+03  0.825E-02    0.98       0.0  T
   2   -182.3663362 -0.712994E-05  0.465E-02    0.98       1.0  T
   3   -182.3663055  0.306939E-04  0.161E-02    0.99       1.0  T
   4   -182.3663397 -0.342333E-04  0.417E-03    0.98       2.4  T
   5   -182.3663407 -0.100380E-05  0.206E-03    0.98       4.9  T
   6   -182.3663409 -0.185373E-06  0.815E-04    0.98      12.3  T
   7   -182.3663410 -0.529097E-07  0.294E-04    0.98      34.2  T
     SCC iter.                  ...        0 min,  0.087 sec
     gradient                   ...        0 min,  0.029 sec
 * total energy  :  -179.6050718 Eh     change       -0.2135194E-03 Eh
   gradient norm :     0.0081302 Eh/α   predicted    -0.1990100E-03 (  -6.80%)
   displ. norm   :     0.5568359 α      lambda       -0.2711653E-03
   maximum displ.:     0.3456352 α      in ANC's #3, #10, #2, ...

........................................................................
.............................. CYCLE   42 ..............................
........................................................................
   1   -182.3658761 -0.182366E+03  0.822E-02    0.98       0.0  T
   2   -182.3658832 -0.713090E-05  0.465E-02    0.98       1.0  T
   3   -182.3658683  0.149764E-04  0.127E-02    0.99       1.0  T
   4   -182.3658863 -0.180634E-04  0.351E-03    0.99       2.9  T
   5   -182.3658868 -0.448418E-06  0.187E-03    0.98       5.4  T
   6   -182.3658869 -0.145397E-06  0.965E-04    0.99      10.4  T
   7   -182.3658870 -0.840686E-07  0.321E-04    0.98      31.4  T
     SCC iter.                  ...        0 min,  0.086 sec
     gradient                   ...        0 min,  0.029 sec
 * total energy  :  -179.6052878 Eh     change       -0.2159924E-03 Eh
   gradient norm :     0.0072475 Eh/α   predicted    -0.1776258E-03 ( -17.76%)
   displ. norm   :     0.6064770 α      lambda       -0.2809664E-03
   maximum displ.:     0.3689476 α      in ANC's #3, #10, #2, ...
 * RMSD in coord.:     1.0267554 α      energy gain  -0.6445583E-02 Eh

generating ANC from model Hessian ...
Using Lindh-Hessian (1995)
 Shifting diagonal of input Hessian by   9.997604386841748E-003
 Lowest  eigenvalues of input Hessian
    0.000000    0.000000    0.000000    0.000000    0.000000    0.000000
    0.010000    0.010029    0.010070    0.010087    0.010203    0.010217
    0.010311    0.010370    0.010454    0.010462    0.010616    0.010738
 Highest eigenvalues
    2.274525    2.588921    2.609588    2.615668    2.649946    2.674124
 

........................................................................
.............................. CYCLE   43 ..............................
........................................................................
   1   -182.3656052 -0.182366E+03  0.872E-02    0.99       0.0  T
   2   -182.3656127 -0.741041E-05  0.494E-02    0.99       1.0  T
   3   -182.3655630  0.496421E-04  0.213E-02    1.00       1.0  T
   4   -182.3656185 -0.554791E-04  0.418E-03    0.99       2.4  T
   5   -182.3656190 -0.508271E-06  0.278E-03    0.99       3.6  T
   6   -182.3656196 -0.592369E-06  0.979E-04    0.99      10.3  T
   7   -182.3656196 -0.593461E-07  0.370E-04    0.99      27.1  T
     SCC iter.                  ...        0 min,  0.087 sec
     gradient                   ...        0 min,  0.029 sec
 * total energy  :  -179.6055083 Eh     change       -0.2204896E-03 Eh
   gradient norm :     0.0060498 Eh/α   predicted     0.0000000E+00 (-100.00%)
   displ. norm   :     0.0770024 α      lambda       -0.1142510E-03
   maximum displ.:     0.0261293 α      in ANC's #9, #16, #3, ...

........................................................................
.............................. CYCLE   44 ..............................
........................................................................
   1   -182.3661753 -0.182366E+03  0.640E-02    0.99       0.0  T
   2   -182.3661800 -0.476509E-05  0.353E-02    0.99       1.0  T
   3   -182.3661758  0.426988E-05  0.804E-03    0.99       1.2  T
   4   -182.3661822 -0.645292E-05  0.166E-03    0.99       6.1  T
   5   -182.3661823 -0.315358E-07  0.108E-03    0.99       9.3  T
   6   -182.3661823 -0.850095E-07  0.411E-04    0.99      24.5  T
   7   -182.3661824 -0.117644E-07  0.165E-04    0.99      61.0  T
     SCC iter.                  ...        0 min,  0.088 sec
     gradient                   ...        0 min,  0.029 sec
 * total energy  :  -179.6055399 Eh     change       -0.3158197E-04 Eh
   gradient norm :     0.0047880 Eh/α   predicted    -0.6392705E-04 ( 102.42%)
   displ. norm   :     0.1053091 α      lambda       -0.1710249E-03
   maximum displ.:     0.0370756 α      in ANC's #9, #8, #22, ...

........................................................................
.............................. CYCLE   45 ..............................
........................................................................
   1   -182.3680333 -0.182368E+03  0.423E-02    0.99       0.0  T
   2   -182.3680357 -0.235122E-05  0.235E-02    0.99       1.0  T
   3   -182.3680301  0.559385E-05  0.741E-03    0.99       1.4  T
   4   -182.3680367 -0.658092E-05  0.189E-03    0.99       5.3  T
   5   -182.3680369 -0.245835E-06  0.995E-04    0.99      10.1  T
   6   -182.3680370 -0.499376E-07  0.456E-04    0.99      22.1  T
     SCC iter.                  ...        0 min,  0.075 sec
     gradient                   ...        0 min,  0.029 sec
 * total energy  :  -179.6056279 Eh     change       -0.8795348E-04 Eh
   gradient norm :     0.0035919 Eh/α   predicted    -0.8648296E-04 (  -1.67%)
   displ. norm   :     0.1755746 α      lambda       -0.1953156E-03
   maximum displ.:     0.0622742 α      in ANC's #3, #16, #9, ...

........................................................................
.............................. CYCLE   46 ..............................
........................................................................
   1   -182.3686376 -0.182369E+03  0.859E-02    0.99       0.0  T
   2   -182.3686462 -0.860462E-05  0.477E-02    0.99       1.0  T
   3   -182.3686255  0.206893E-04  0.143E-02    1.00       1.0  T
   4   -182.3686503 -0.248433E-04  0.308E-03    0.99       3.3  T
   5   -182.3686508 -0.489646E-06  0.181E-03    0.99       5.5  T
   6   -182.3686510 -0.186508E-06  0.760E-04    0.99      13.2  T
   7   -182.3686510 -0.265484E-07  0.374E-04    0.99      26.9  T
     SCC iter.                  ...        0 min,  0.087 sec
     gradient                   ...        0 min,  0.029 sec
 * total energy  :  -179.6055693 Eh     change        0.5852928E-04 Eh
   gradient norm :     0.0081118 Eh/α   predicted    -0.1006704E-03 (-272.00%)
   displ. norm   :     0.0613268 α      lambda       -0.2688547E-03
   maximum displ.:     0.0212232 α      in ANC's #19, #8, #4, ...

........................................................................
.............................. CYCLE   47 ..............................
........................................................................
   1   -182.3681320 -0.182368E+03  0.634E-02    0.99       0.0  T
   2   -182.3681366 -0.454537E-05  0.349E-02    0.99       1.0  T
   3   -182.3681343  0.230326E-05  0.600E-03    0.99       1.7  T
   4   -182.3681384 -0.415747E-05  0.161E-03    0.99       6.3  T
   5   -182.3681385 -0.546313E-07  0.949E-04    0.99      10.6  T
   6   -182.3681386 -0.614929E-07  0.340E-04    0.99      29.6  T
     SCC iter.                  ...        0 min,  0.074 sec
     gradient                   ...        0 min,  0.029 sec
 * total energy  :  -179.6057297 Eh     change       -0.1603713E-03 Eh
   gradient norm :     0.0034911 Eh/α   predicted    -0.1349382E-03 ( -15.86%)
   displ. norm   :     0.1213361 α      lambda       -0.7961931E-04
   maximum displ.:     0.0550350 α      in ANC's #9, #3, #10, ...

........................................................................
.............................. CYCLE   48 ..............................
........................................................................
   1   -182.3669275 -0.182367E+03  0.429E-02    0.99       0.0  T
   2   -182.3669297 -0.222083E-05  0.238E-02    0.99       1.0  T
   3   -182.3669281  0.164352E-05  0.504E-03    0.99       2.0  T
   4   -182.3669307 -0.260522E-05  0.118E-03    0.99       8.5  T
   5   -182.3669307 -0.658531E-10  0.851E-04    0.99      11.8  T
   6   -182.3669307 -0.615471E-07  0.238E-04    0.99      42.2  T
     SCC iter.                  ...        0 min,  0.076 sec
     gradient                   ...        0 min,  0.029 sec
 * total energy  :  -179.6057739 Eh     change       -0.4424144E-04 Eh
   gradient norm :     0.0030779 Eh/α   predicted    -0.4039590E-04 (  -8.69%)
   displ. norm   :     0.3236711 α      lambda       -0.1620773E-03
   maximum displ.:     0.1316392 α      in ANC's #9, #3, #2, ...

........................................................................
.............................. CYCLE   49 ..............................
........................................................................
   1   -182.3642513 -0.182364E+03  0.791E-02    0.99       0.0  T
   2   -182.3642590 -0.771021E-05  0.442E-02    0.99       1.0  T
   3   -182.3642515  0.751103E-05  0.102E-02    0.99       1.0  T
   4   -182.3642625 -0.109376E-04  0.242E-03    0.99       4.1  T
   5   -182.3642625 -0.244585E-07  0.169E-03    0.99       6.0  T
   6   -182.3642627 -0.224247E-06  0.544E-04    0.99      18.5  T
   7   -182.3642627 -0.179376E-07  0.208E-04    0.99      48.2  T
     SCC iter.                  ...        0 min,  0.087 sec
     gradient                   ...        0 min,  0.029 sec
 * total energy  :  -179.6058466 Eh     change       -0.7262820E-04 Eh
   gradient norm :     0.0062918 Eh/α   predicted    -0.8953005E-04 (  23.27%)
   displ. norm   :     0.2979461 α      lambda       -0.1699064E-03
   maximum displ.:     0.1284972 α      in ANC's #3, #9, #10, ...

........................................................................
.............................. CYCLE   50 ..............................
........................................................................
   1   -182.3650668 -0.182365E+03  0.588E-02    0.99       0.0  T
   2   -182.3650699 -0.311882E-05  0.334E-02    0.99       1.0  T
   3   -182.3650640  0.588199E-05  0.825E-03    0.99       1.2  T
   4   -182.3650714 -0.741547E-05  0.188E-03    0.99       5.3  T
   5   -182.3650715 -0.442840E-07  0.129E-03    0.99       7.8  T
   6   -182.3650716 -0.120541E-06  0.446E-04    0.99      22.5  T
   7   -182.3650716 -0.110975E-07  0.173E-04    0.99      58.3  T
     SCC iter.                  ...        0 min,  0.085 sec
     gradient                   ...        0 min,  0.029 sec
 * total energy  :  -179.6058962 Eh     change       -0.4958917E-04 Eh
   gradient norm :     0.0064712 Eh/α   predicted    -0.9249521E-04 (  86.52%)
   displ. norm   :     0.2090164 α      lambda       -0.2189983E-03
   maximum displ.:     0.0936428 α      in ANC's #3, #9, #10, ...

........................................................................
.............................. CYCLE   51 ..............................
........................................................................
   1   -182.3677561 -0.182368E+03  0.626E-02    0.99       0.0  T
   2   -182.3677612 -0.508883E-05  0.348E-02    0.99       1.0  T
   3   -182.3677429  0.183573E-04  0.131E-02    0.99       1.0  T
   4   -182.3677644 -0.214975E-04  0.207E-03    0.99       4.9  T
   5   -182.3677645 -0.106112E-06  0.130E-03    0.99       7.7  T
   6   -182.3677646 -0.110341E-06  0.381E-04    0.99      26.3  T
   7   -182.3677646 -0.552120E-08  0.153E-04    0.99      65.9  T
     SCC iter.                  ...        0 min,  0.085 sec
     gradient                   ...        0 min,  0.029 sec
 * total energy  :  -179.6060141 Eh     change       -0.1179231E-03 Eh
   gradient norm :     0.0060681 Eh/α   predicted    -0.1142841E-03 (  -3.09%)
   displ. norm   :     0.2592738 α      lambda       -0.1489948E-03
   maximum displ.:     0.1206617 α      in ANC's #3, #9, #10, ...

........................................................................
.............................. CYCLE   52 ..............................
........................................................................
   1   -182.3681816 -0.182368E+03  0.625E-02    0.99       0.0  T
   2   -182.3681853 -0.366921E-05  0.351E-02    0.99       1.0  T
   3   -182.3681810  0.426866E-05  0.712E-03    0.99       1.4  T
   4   -182.3681868 -0.576498E-05  0.201E-03    0.99       5.0  T
   5   -182.3681869 -0.116430E-06  0.131E-03    0.99       7.7  T
   6   -182.3681870 -0.116457E-06  0.464E-04    0.99      21.7  T
   7   -182.3681870 -0.114884E-07  0.225E-04    0.99      44.7  T
     SCC iter.                  ...        0 min,  0.087 sec
     gradient                   ...        0 min,  0.029 sec
 * total energy  :  -179.6060647 Eh     change       -0.5060071E-04 Eh
   gradient norm :     0.0053368 Eh/α   predicted    -0.7950625E-04 (  57.12%)
   displ. norm   :     0.2931978 α      lambda       -0.1422289E-03
   maximum displ.:     0.1384412 α      in ANC's #9, #3, #10, ...

........................................................................
.............................. CYCLE   53 ..............................
........................................................................
   1   -182.3661159 -0.182366E+03  0.632E-02    0.99       0.0  T
   2   -182.3661203 -0.438485E-05  0.354E-02    0.99       1.0  T
   3   -182.3661166  0.371155E-05  0.779E-03    0.99       1.3  T
   4   -182.3661221 -0.554140E-05  0.202E-03    0.99       5.0  T
   5   -182.3661221 -0.602174E-08  0.135E-03    0.99       7.4  T
   6   -182.3661222 -0.140595E-06  0.474E-04    0.99      21.2  T
   7   -182.3661223 -0.201831E-07  0.181E-04    0.99      55.7  T
     SCC iter.                  ...        0 min,  0.086 sec
     gradient                   ...        0 min,  0.029 sec
 * total energy  :  -179.6061597 Eh     change       -0.9500108E-04 Eh
   gradient norm :     0.0053340 Eh/α   predicted    -0.7722833E-04 ( -18.71%)
   displ. norm   :     0.3535989 α      lambda       -0.1150444E-03
   maximum displ.:     0.1806568 α      in ANC's #3, #9, #2, ...

........................................................................
.............................. CYCLE   54 ..............................
........................................................................
   1   -182.3666958 -0.182367E+03  0.521E-02    0.99       0.0  T
   2   -182.3666980 -0.222135E-05  0.297E-02    0.99       1.0  T
   3   -182.3666841  0.139065E-04  0.111E-02    0.99       1.0  T
   4   -182.3666994 -0.153326E-04  0.239E-03    0.99       4.2  T
   5   -182.3666998 -0.329643E-06  0.138E-03    0.99       7.3  T
   6   -182.3666999 -0.111094E-06  0.457E-04    0.99      22.0  T
   7   -182.3666999 -0.871927E-08  0.231E-04    0.99      43.6  T
     SCC iter.                  ...        0 min,  0.086 sec
     gradient                   ...        0 min,  0.029 sec
 * total energy  :  -179.6062477 Eh     change       -0.8798634E-04 Eh
   gradient norm :     0.0033218 Eh/α   predicted    -0.6471896E-04 ( -26.44%)
   displ. norm   :     0.4064430 α      lambda       -0.1146919E-03
   maximum displ.:     0.2175927 α      in ANC's #3, #9, #2, ...

........................................................................
.............................. CYCLE   55 ..............................
........................................................................
   1   -182.3676345 -0.182368E+03  0.540E-02    0.99       0.0  T
   2   -182.3676367 -0.222008E-05  0.310E-02    0.99       1.0  T
   3   -182.3676157  0.210416E-04  0.138E-02    0.99       1.0  T
   4   -182.3676386 -0.229503E-04  0.278E-03    0.99       3.6  T
   5   -182.3676391 -0.489360E-06  0.158E-03    0.99       6.3  T
   6   -182.3676393 -0.142865E-06  0.534E-04    0.99      18.8  T
   7   -182.3676393 -0.115043E-07  0.276E-04    0.99      36.4  T
     SCC iter.                  ...        0 min,  0.087 sec
     gradient                   ...        0 min,  0.029 sec
 * total energy  :  -179.6063431 Eh     change       -0.9539383E-04 Eh
   gradient norm :     0.0028934 Eh/α   predicted    -0.6682267E-04 ( -29.95%)
   displ. norm   :     0.4200319 α      lambda       -0.1239775E-03
   maximum displ.:     0.2295266 α      in ANC's #3, #9, #2, ...

........................................................................
.............................. CYCLE   56 ..............................
........................................................................
   1   -182.3677252 -0.182368E+03  0.545E-02    0.99       0.0  T
   2   -182.3677273 -0.206003E-05  0.312E-02    0.99       1.0  T
   3   -182.3677082  0.190512E-04  0.132E-02    1.00       1.0  T
   4   -182.3677290 -0.208116E-04  0.270E-03    0.99       3.7  T
   5   -182.3677294 -0.352117E-06  0.166E-03    0.99       6.1  T
   6   -182.3677295 -0.165744E-06  0.495E-04    0.99      20.3  T
   7   -182.3677296 -0.996906E-08  0.249E-04    0.99      40.4  T
     SCC iter.                  ...        0 min,  0.087 sec
     gradient                   ...        0 min,  0.029 sec
 * total energy  :  -179.6064474 Eh     change       -0.1043472E-03 Eh
   gradient norm :     0.0033468 Eh/α   predicted    -0.7293327E-04 ( -30.11%)
   displ. norm   :     0.4679469 α      lambda       -0.1288789E-03
   maximum displ.:     0.2585614 α      in ANC's #3, #9, #2, ...

........................................................................
.............................. CYCLE   57 ..............................
........................................................................
   1   -182.3666174 -0.182367E+03  0.615E-02    1.00       0.0  T
   2   -182.3666200 -0.259341E-05  0.350E-02    0.99       1.0  T
   3   -182.3666027  0.172392E-04  0.128E-02    1.00       1.0  T
   4   -182.3666219 -0.191998E-04  0.272E-03    0.99       3.7  T
   5   -182.3666220 -0.745784E-07  0.190E-03    1.00       5.3  T
   6   -182.3666223 -0.284244E-06  0.457E-04    1.00      22.0  T
   7   -182.3666223 -0.853262E-08  0.232E-04    1.00      43.2  T
     SCC iter.                  ...        0 min,  0.086 sec
     gradient                   ...        0 min,  0.029 sec
 * total energy  :  -179.6065529 Eh     change       -0.1054674E-03 Eh
   gradient norm :     0.0034081 Eh/α   predicted    -0.7855080E-04 ( -25.52%)
   displ. norm   :     0.4455906 α      lambda       -0.1091772E-03
   maximum displ.:     0.2526646 α      in ANC's #3, #9, #2, ...

........................................................................
.............................. CYCLE   58 ..............................
........................................................................
   1   -182.3660647 -0.182366E+03  0.572E-02    1.00       0.0  T
   2   -182.3660671 -0.240830E-05  0.325E-02    1.00       1.0  T
   3   -182.3660508  0.162445E-04  0.123E-02    1.00       1.0  T
   4   -182.3660690 -0.181561E-04  0.263E-03    1.00       3.8  T
   5   -182.3660689  0.483612E-07  0.189E-03    1.00       5.3  T
   6   -182.3660693 -0.341309E-06  0.437E-04    1.00      23.0  T
   7   -182.3660693 -0.768742E-08  0.237E-04    1.00      42.3  T
     SCC iter.                  ...        0 min,  0.086 sec
     gradient                   ...        0 min,  0.029 sec
 * total energy  :  -179.6066389 Eh     change       -0.8601385E-04 Eh
   gradient norm :     0.0033212 Eh/α   predicted    -0.6542817E-04 ( -23.93%)
   displ. norm   :     0.4210792 α      lambda       -0.8360483E-04
   maximum displ.:     0.2413444 α      in ANC's #3, #9, #2, ...

........................................................................
.............................. CYCLE   59 ..............................
........................................................................
   1   -182.3646854 -0.182365E+03  0.513E-02    1.00       0.0  T
   2   -182.3646876 -0.221104E-05  0.292E-02    1.00       1.0  T
   3   -182.3646736  0.139676E-04  0.118E-02    1.00       1.0  T
   4   -182.3646893 -0.157052E-04  0.247E-03    1.00       4.1  T
   5   -182.3646894 -0.357409E-07  0.181E-03    1.00       5.6  T
[...]
    55   6 C        3.121     0.008    27.668     8.615
    56  16 S        2.258    -0.035   142.511    20.092
    57   6 C        3.742    -0.002    20.696     6.490
    58   6 C        3.752    -0.115    22.762     6.804
    59   6 C        3.742    -0.001    20.679     6.488
    60   6 C        3.752    -0.113    22.724     6.798
    61   6 C        2.990     0.041    27.062     8.533
    62   6 C        2.971     0.013    27.713     8.635
    63   6 C        1.931     0.122    28.098     8.560
    64   7 N        0.911    -0.224    25.898     7.360
    65   6 C        1.928     0.119    28.172     8.572
    66   7 N        0.911    -0.213    25.636     7.323
    67   6 C        1.925     0.123    28.072     8.556
    68   7 N        0.911    -0.199    25.322     7.278
    69   1 H        0.925     0.066     2.133     2.284
    70   1 H        0.926     0.054     2.274     2.358
    71   1 H        0.926     0.055     2.261     2.352
    72   1 H        0.925     0.040     2.446     2.446
    73   1 H        0.925     0.037     2.487     2.466
    74   1 H        0.926     0.036     2.501     2.473
    75   1 H        0.926     0.035     2.516     2.480
    76   1 H        0.925     0.035     2.520     2.482
    77   1 H        0.925     0.038     2.471     2.458
    78   1 H        0.925     0.034     2.526     2.485
    79   1 H        0.925     0.039     2.468     2.457
    80   1 H        0.924     0.055     2.262     2.352
    81   1 H        0.923     0.043     2.404     2.425
    82   1 H        0.925     0.065     2.139     2.287
    83   1 H        0.925     0.056     2.252     2.347
    84   1 H        0.925     0.057     2.233     2.337
    85   1 H        0.924     0.073     2.058     2.243
    86   1 H        0.923     0.028     2.608     2.526
    87   1 H        0.925     0.063     2.169     2.303
    88   1 H        0.925     0.045     2.386     2.416
    89   1 H        0.925     0.054     2.272     2.357
    90   1 H        0.924     0.062     2.177     2.307
    91   1 H        0.925     0.062     2.172     2.305
    92   1 H        0.925     0.058     2.217     2.329
    93   1 H        0.925     0.048     2.344     2.394
    94   1 H        0.925     0.056     2.243     2.342
    95   1 H        0.924     0.061     2.183     2.311
    96   1 H        0.925     0.064     2.158     2.297
    97   1 H        0.925     0.059     2.208     2.324
    98   1 H        0.925     0.048     2.340     2.392
    99   1 H        0.925     0.053     2.287     2.365

 Mol. C6AA /au·bohr⁶  :     178543.647858
 Mol. C8AA /au·bohr⁸  :    4999257.714532
 Mol. α(0) /au        :        666.626276


Wiberg/Mayer (AO) data.
largest (>0.10) Wiberg bond orders for each atom

 ---------------------------------------------------------------------------
     #   Z sym  total        # sym  WBO       # sym  WBO       # sym  WBO
 ---------------------------------------------------------------------------
     1   6 C    3.955 --     2 C    1.518    24 C    1.278    69 H    0.944
     2   6 C    3.956 --     1 C    1.518    11 C    1.144     3 C    1.037
     3   6 C    3.928 --     4 O    1.752     2 C    1.037     5 C    1.021
     4   8 O    2.042 --     3 C    1.752
     5   6 C    3.974 --     6 C    1.381    10 C    1.314     3 C    1.021
     6   6 C    3.982 --     7 C    1.444     5 C    1.381    70 H    0.964
     7   6 C    3.957 --     6 C    1.444     8 C    1.325    23 C    0.992
     8   6 C    3.967 --     9 C    1.453     7 C    1.325    17 C    0.993
     9   6 C    3.978 --     8 C    1.453    10 C    1.363    71 H    0.958
    10   6 C    3.980 --     9 C    1.363     5 C    1.314    11 C    1.088
    11   6 C    3.976 --    12 C    1.478     2 C    1.144    10 C    1.088
    12   6 C    3.953 --    11 C    1.478    15 C    1.099    13 C    1.099
    13   6 C    3.945 --    14 N    2.756    12 C    1.099
    14   7 N    2.961 --    13 C    2.756
    15   6 C    3.945 --    16 N    2.760    12 C    1.099
    16   7 N    2.965 --    15 C    2.760
    17   6 C    3.985 --     8 C    0.993    23 C    0.975    72 H    0.962
                            18 C    0.951
    18   6 C    3.990 --    19 C    1.004    22 C    0.989    73 H    0.971
                            17 C    0.951
    19   6 C    3.982 --    20 C    1.923    18 C    1.004    74 H    0.971
    20   6 C    3.982 --    19 C    1.923    21 C    1.004    75 H    0.971
    21   6 C    3.989 --    20 C    1.004    22 C    0.989    76 H    0.971
                            23 C    0.951
    22   6 C    3.994 --    21 C    0.989    18 C    0.989    77 H    0.978
                            78 H    0.974
    23   6 C    3.984 --     7 C    0.992    17 C    0.975    79 H    0.962
                            21 C    0.951
    24   6 C    3.912 --    25 C    1.320     1 C    1.278    56 S    1.069
    25   6 C    3.918 --    24 C    1.320    29 C    1.257    26 O    1.138
    26   8 O    2.319 --    25 C    1.138    27 C    0.944
    27   6 C    3.929 --    28 C    1.016    80 H    0.965    81 H    0.964
                            26 O    0.944
    28   6 C    3.988 --    27 C    1.016    84 H    0.985    82 H    0.984
                            83 H    0.983
    29   6 C    3.924 --    55 C    1.337    25 C    1.257    30 S    1.086
    30  16 S    2.531 --    31 C    1.119    29 C    1.086
    31   6 C    3.922 --    54 C    1.311    32 C    1.262    30 S    1.119
    32   6 C    3.954 --    52 C    1.279    31 C    1.262    33 C    1.172
    33   6 C    3.973 --    37 N    1.429    32 C    1.172    34 C    1.163
                            36 S    0.101
    34   6 C    3.973 --    35 N    1.430    38 C    1.171    33 C    1.163
                            36 S    0.101
    35   7 N    3.075 --    34 C    1.430    36 S    1.393    37 N    0.147
    36  16 S    3.109 --    37 N    1.395    35 N    1.393    34 C    0.101
                            33 C    0.101
    37   7 N    3.076 --    33 C    1.429    36 S    1.395    35 N    0.147
    38   6 C    3.955 --    51 C    1.275    39 C    1.267    34 C    1.171
    39   6 C    3.920 --    49 C    1.299    38 C    1.267    40 S    1.124
    40  16 S    2.538 --    39 C    1.124    41 C    1.094
    41   6 C    3.932 --    48 C    1.309    42 C    1.300    40 S    1.094
    42   6 C    3.928 --    46 C    1.349    41 C    1.300    43 O    1.053
    43   8 O    2.154 --    42 C    1.053    44 C    0.923
    44   6 C    3.925 --    45 C    1.015    86 H    0.972    85 H    0.968
                            43 O    0.923
    45   6 C    3.992 --    44 C    1.015    88 H    0.985    87 H    0.983
                            89 H    0.981
    46   6 C    3.925 --    42 C    1.349    61 C    1.214    47 S    1.090
    47  16 S    2.574 --    48 C    1.126    46 C    1.090
    48   6 C    3.940 --    41 C    1.309    49 C    1.267    47 S    1.126
    49   6 C    3.937 --    39 C    1.299    48 C    1.267    50 N    1.144
    50   7 N    3.532 --    51 C    1.163    49 C    1.144    59 C    0.975
    51   6 C    3.931 --    38 C    1.275    52 C    1.230    50 N    1.163
    52   6 C    3.935 --    32 C    1.279    51 C    1.230    53 N    1.160
    53   7 N    3.534 --    52 C    1.160    54 C    1.150    57 C    0.975
    54   6 C    3.939 --    31 C    1.311    55 C    1.251    53 N    1.150
    55   6 C    3.937 --    29 C    1.337    54 C    1.251    56 S    1.127
    56  16 S    2.527 --    55 C    1.127    24 C    1.069
    57   6 C    3.963 --    58 C    1.005    53 N    0.975    90 H    0.968
                            91 H    0.966
    58   6 C    3.988 --    57 C    1.005    93 H    0.987    94 H    0.983
                            92 H    0.982
    59   6 C    3.963 --    60 C    1.006    50 N    0.975    95 H    0.968
                            96 H    0.966
    60   6 C    3.988 --    59 C    1.006    98 H    0.987    99 H    0.983
                            97 H    0.982
    61   6 C    3.973 --    62 C    1.426    46 C    1.214    67 C    1.079
    62   6 C    3.942 --    61 C    1.426    63 C    1.110    65 C    1.096
    63   6 C    3.948 --    64 N    2.752    62 C    1.110
    64   7 N    2.972 --    63 C    2.752
    65   6 C    3.949 --    66 N    2.780    62 C    1.096
    66   7 N    2.971 --    65 C    2.780
    67   6 C    3.948 --    68 N    2.807    61 C    1.079
    68   7 N    2.995 --    67 C    2.807
    69   1 H    0.992 --     1 C    0.944
    70   1 H    0.997 --     6 C    0.964
    71   1 H    0.997 --     9 C    0.958
    72   1 H    0.997 --    17 C    0.962
    73   1 H    0.999 --    18 C    0.971
    74   1 H    0.998 --    19 C    0.971
    75   1 H    0.999 --    20 C    0.971
    76   1 H    0.999 --    21 C    0.971
    77   1 H    0.998 --    22 C    0.978
    78   1 H    0.999 --    22 C    0.974
    79   1 H    0.997 --    23 C    0.962
    80   1 H    0.996 --    27 C    0.965
    81   1 H    0.997 --    27 C    0.964
    82   1 H    0.996 --    28 C    0.984
    83   1 H    0.996 --    28 C    0.983
    84   1 H    0.997 --    28 C    0.985
    85   1 H    0.994 --    44 C    0.968
    86   1 H    0.999 --    44 C    0.972
    87   1 H    0.996 --    45 C    0.983
    88   1 H    0.998 --    45 C    0.985
    89   1 H    0.996 --    45 C    0.981
    90   1 H    0.994 --    57 C    0.968
    91   1 H    0.995 --    57 C    0.966
    92   1 H    0.996 --    58 C    0.982
    93   1 H    0.998 --    58 C    0.987
    94   1 H    0.997 --    58 C    0.983
    95   1 H    0.994 --    59 C    0.968
    96   1 H    0.995 --    59 C    0.966
    97   1 H    0.996 --    60 C    0.982
    98   1 H    0.998 --    60 C    0.987
    99   1 H    0.997 --    60 C    0.983
 ---------------------------------------------------------------------------

Topologies differ in bond orders
Writing corrected topology to xtbtopo.mol

molecular dipole:
                 x           y           z       tot (Debye)
 q only:        0.976       1.582       3.028
   full:        0.874       1.866       3.486      10.291
molecular quadrupole (traceless):
                xx          xy          yy          xz          yz          zz
 q only:       69.793     -22.814      12.402      -3.496      56.392     -82.195
  q+dip:       72.643     -35.144      21.484      -2.995      63.500     -94.127
   full:       76.922     -39.927      21.871       4.258      63.682     -98.793

           -------------------------------------------------
          |                Geometry Summary                 |
           -------------------------------------------------

      molecular mass/u    :      978.1761749
   center of mass at/Å    :        0.4792667       0.6838289      -0.0080475
  moments of inertia/u·Å² :        0.7412222E+04   0.5758087E+05   0.6085548E+05
rotational constants/cm⁻¹ :        0.2274302E-02   0.2927644E-03   0.2770109E-03

 * 99 selected distances

     #   Z          #   Z                                           value/Å
     1   6 C        2   6 C                                       1.3687996
     3   6 C        4   8 O                                       1.2144321
     5   6 C        6   6 C                                       1.3930751
     6   6 C        7   6 C                                       1.3742743
     7   6 C        8   6 C                                       1.4010037
     8   6 C        9   6 C                                       1.3744754
     5   6 C       10   6 C                                       1.4087864
     9   6 C       10   6 C                                       1.3985187
    11   6 C       12   6 C                                       1.3720622
    13   6 C       14   7 N                                       1.1488963
    15   6 C       16   7 N                                       1.1485116
     8   6 C       17   6 C                                       1.5086441
    17   6 C       18   6 C                                       1.5431868
    19   6 C       20   6 C                                       1.3268866
    18   6 C       22   6 C                                       1.5341938
    21   6 C       22   6 C                                       1.5341336
     7   6 C       23   6 C                                       1.5087484
    17   6 C       23   6 C                                       1.5624532
    21   6 C       23   6 C                                       1.5435820
     1   6 C       24   6 C                                       1.4065517
    24   6 C       25   6 C                                       1.4032104
    25   6 C       26   8 O                                       1.3288727
    26   8 O       27   6 C                                       1.4197890
    27   6 C       28   6 C                                       1.5186861
    25   6 C       29   6 C                                       1.4095950
    29   6 C       30  16 S                                       1.7570414 (max)
    30  16 S       31   6 C                                       1.7260289
    31   6 C       32   6 C                                       1.4052963
    32   6 C       33   6 C                                       1.4141326
    33   6 C       34   6 C                                       1.4393822
    34   6 C       35   7 N                                       1.3232582
    35   7 N       36  16 S                                       1.6178129
    33   6 C       37   7 N                                       1.3234496
    36  16 S       37   7 N                                       1.6174525
    34   6 C       38   6 C                                       1.4142948
    38   6 C       39   6 C                                       1.4045267
    39   6 C       40  16 S                                       1.7276726
    40  16 S       41   6 C                                       1.7498132
    41   6 C       42   6 C                                       1.4018698
    42   6 C       43   8 O                                       1.3534995
    43   8 O       44   6 C                                       1.4292890
    44   6 C       45   6 C                                       1.5211087
    42   6 C       46   6 C                                       1.4017331
    46   6 C       47  16 S                                       1.7559600
    41   6 C       48   6 C                                       1.4034550
    47  16 S       48   6 C                                       1.7233770
    39   6 C       49   6 C                                       1.4032954
    48   6 C       49   6 C                                       1.3947699
    49   6 C       50   7 N                                       1.3734467
    38   6 C       51   6 C                                       1.4206434
    50   7 N       51   6 C                                       1.3813801
    32   6 C       52   6 C                                       1.4198451
    51   6 C       52   6 C                                       1.4112016
    52   6 C       53   7 N                                       1.3823396
    31   6 C       54   6 C                                       1.4005370
    53   7 N       54   6 C                                       1.3720364
    29   6 C       55   6 C                                       1.4002982
    54   6 C       55   6 C                                       1.3984293
    55   6 C       56  16 S                                       1.7215692
    53   7 N       57   6 C                                       1.4504358
    57   6 C       58   6 C                                       1.5281584
    50   7 N       59   6 C                                       1.4509081
    59   6 C       60   6 C                                       1.5280771
    46   6 C       61   6 C                                       1.4184880
    61   6 C       62   6 C                                       1.3809423
    63   6 C       64   7 N                                       1.1487569
    65   6 C       66   7 N                                       1.1465473
    67   6 C       68   7 N                                       1.1452429
     1   6 C       69   1 H                                       1.0837625
     6   6 C       70   1 H                                       1.0790440
     9   6 C       71   1 H                                       1.0771187
    17   6 C       72   1 H                                       1.0883197
    18   6 C       73   1 H                                       1.0865063
    19   6 C       74   1 H                                       1.0741852 (min)
    20   6 C       75   1 H                                       1.0742834
    21   6 C       76   1 H                                       1.0867623
    22   6 C       77   1 H                                       1.0887444
    22   6 C       78   1 H                                       1.0884273
    23   6 C       79   1 H                                       1.0885375
    27   6 C       80   1 H                                       1.0955724
    27   6 C       81   1 H                                       1.0980751
    28   6 C       82   1 H                                       1.0863867
    28   6 C       83   1 H                                       1.0857992
    28   6 C       84   1 H                                       1.0866884
    44   6 C       85   1 H                                       1.0911284
    44   6 C       86   1 H                                       1.0979477
    45   6 C       87   1 H                                       1.0870375
    45   6 C       88   1 H                                       1.0878348
    45   6 C       89   1 H                                       1.0863302
    57   6 C       90   1 H                                       1.0941434
    57   6 C       91   1 H                                       1.0881250
    58   6 C       92   1 H                                       1.0861055
    58   6 C       93   1 H                                       1.0880299
    58   6 C       94   1 H                                       1.0859629
    59   6 C       95   1 H                                       1.0944207
    59   6 C       96   1 H                                       1.0879774
    60   6 C       97   1 H                                       1.0861164
    60   6 C       98   1 H                                       1.0880235
    60   6 C       99   1 H                                       1.0861269

 * 6 distinct bonds (by element types)

   Z      Z             #   av. dist./Å        max./Å        min./Å
   1 H    6 C          31     1.0872104     1.0980751     1.0741852
   6 C    6 C          41     1.4341793     1.5624532     1.3268866
   6 C    7 N          13     1.2919392     1.4509081     1.1452429
   6 C    8 O           5     1.3491765     1.4292890     1.2144321
   6 C   16 S           7     1.7373518     1.7570414     1.7215692
   7 N   16 S           2     1.6176327     1.6178129     1.6174525


optimized geometry written to: xtbopt.mol


           -------------------------------------------------
          | TOTAL ENERGY             -179.607384688237 Eh   |
          | GRADIENT NORM               0.000192821887 Eh/α |
          | HOMO-LUMO GAP               1.000165194148 eV   |
           -------------------------------------------------

------------------------------------------------------------------------
 * finished run on 2022/02/11 at 08:14:43.552     
------------------------------------------------------------------------
 total:
 * wall-time:     0 d,  0 h,  0 min, 14.364 sec
 *  cpu-time:     0 d,  0 h,  1 min, 54.802 sec
 * ratio c/w:     7.992 speedup
 SCF:
 * wall-time:     0 d,  0 h,  0 min,  0.229 sec
 *  cpu-time:     0 d,  0 h,  0 min,  1.821 sec
 * ratio c/w:     7.950 speedup
 ANC optimizer:
 * wall-time:     0 d,  0 h,  0 min, 14.071 sec
 *  cpu-time:     0 d,  0 h,  1 min, 52.543 sec
 * ratio c/w:     7.998 speedup

