      -----------------------------------------------------------      
     |                   =====================                   |     
     |                           x T B                           |     
     |                   =====================                   |     
     |                         S. Grimme                         |     
     |          Mulliken Center for Theoretical Chemistry        |     
     |                    University of Bonn                     |     
      -----------------------------------------------------------      

   * xtb version 6.4.1 (unknown) compiled by 'oda6@login1.crc.pitt.edu' on 2021-06-25

   xtb is free software: you can redistribute it and/or modify it under
   the terms of the GNU Lesser General Public License as published by
   the Free Software Foundation, either version 3 of the License, or
   (at your option) any later version.
   
   xtb is distributed in the hope that it will be useful,
   but WITHOUT ANY WARRANTY; without even the implied warranty of
   MERCHANTABILITY or FITNESS FOR A PARTICULAR PURPOSE.  See the
   GNU Lesser General Public License for more details.
   
   Cite this work as:
   * C. Bannwarth, E. Caldeweyher, S. Ehlert, A. Hansen, P. Pracht,
     J. Seibert, S. Spicher, S. Grimme, WIREs Comput. Mol. Sci., 2020, 11,
     e01493. DOI: 10.1002/wcms.1493
   
   for GFN2-xTB:
   * C. Bannwarth, S. Ehlert and S. Grimme., J. Chem. Theory Comput., 2019,
     15, 1652-1671. DOI: 10.1021/acs.jctc.8b01176
   for GFN1-xTB:
   * S. Grimme, C. Bannwarth, P. Shushkov, J. Chem. Theory Comput., 2017,
     13, 1989-2009. DOI: 10.1021/acs.jctc.7b00118
   for GFN0-xTB:
   * P. Pracht, E. Caldeweyher, S. Ehlert, S. Grimme, ChemRxiv, 2019, preprint.
     DOI: 10.26434/chemrxiv.8326202.v1
   for GFN-FF:
   * S. Spicher and S. Grimme, Angew. Chem. Int. Ed., 2020, 59, 15665-15673.
     DOI: 10.1002/anie.202004239
   
   for DFT-D4:
   * E. Caldeweyher, C. Bannwarth and S. Grimme, J. Chem. Phys., 2017,
     147, 034112. DOI: 10.1063/1.4993215
   * E. Caldeweyher, S. Ehlert, A. Hansen, H. Neugebauer, S. Spicher,
     C. Bannwarth and S. Grimme, J. Chem. Phys., 2019, 150, 154122.
     DOI: 10.1063/1.5090222
   * E. Caldeweyher, J.-M. Mewes, S. Ehlert and S. Grimme, Phys. Chem. Chem. Phys.
     2020, 22, 8499-8512. DOI: 10.1039/D0CP00502A
   
   for sTDA-xTB:
   * S. Grimme and C. Bannwarth, J. Chem. Phys., 2016, 145, 054103.
     DOI: 10.1063/1.4959605
   
   in the mass-spec context:
   * V. Asgeirsson, C. Bauer and S. Grimme, Chem. Sci., 2017, 8, 4879.
     DOI: 10.1039/c7sc00601b
   * J. Koopman and S. Grimme, ACS Omega 2019, 4, 12, 15120-15133.
     DOI: 10.1021/acsomega.9b02011
   
   for metadynamics refer to:
   * S. Grimme, J. Chem. Theory Comput., 2019, 155, 2847-2862
     DOI: 10.1021/acs.jctc.9b00143
   
   for SPH calculations refer to:
   * S. Spicher and S. Grimme, J. Chem. Theory Comput., 2021, 17, 1701-1714
     DOI: 10.1021/acs.jctc.0c01306
   
   with help from (in alphabetical order)
   P. Atkinson, C. Bannwarth, F. Bohle, G. Brandenburg, E. Caldeweyher
   M. Checinski, S. Dohm, S. Ehlert, S. Ehrlich, I. Gerasimov, J. Koopman
   C. Lavigne, S. Lehtola, F. März, M. Müller, F. Musil, H. Neugebauer
   J. Pisarek, C. Plett, P. Pracht, J. Seibert, P. Shushkov, S. Spicher
   M. Stahn, M. Steiner, T. Strunk, J. Stückrath, T. Rose, and J. Unsleber
   
 * started run on 2022/02/11 at 05:18:46.625     

           -------------------------------------------------
          |                Calculation Setup                |
           -------------------------------------------------

          program call               : /ihome/ghutchison/oda6/xtb/xtb-641/bin/xtb ../../FF_optimized/39_34_56.mol -opt
          hostname                   : smp-n28
          coordinate file            : ../../FF_optimized/39_34_56.mol
          omp threads                :                     8
          number of atoms            :                   115
          number of electrons        :                   390
          charge                     :                     0
          spin                       :                   0.0
          first test random number   :      0.09242433628816

   ID    Z sym.   atoms
    1    6 C      1-3, 5-13, 15, 17-25, 27-29, 31-34, 38, 39, 41, 42, 44-46,
                  48, 49, 51, 52, 54, 55, 57-63, 65-68, 72-77, 79
    2    8 O      4, 26, 43, 64
    3    7 N      14, 16, 35, 37, 50, 53, 78, 80
    4   16 S      30, 36, 40, 47, 56
    5    9 F      69-71
    6    1 H      81-115
########################################################################
[WARNING] Please study the warnings concerning your input carefully
-1- prog_main_parseArguments: the use of '-opt' is discouraged, please use '--opt' next time
########################################################################

           -------------------------------------------------
          |                 G F N 2 - x T B                 |
           -------------------------------------------------

        Reference                      10.1021/acs.jctc.8b01176
      * Hamiltonian:
        H0-scaling (s, p, d)           1.850000    2.230000    2.230000
        zeta-weighting                 0.500000
      * Dispersion:
        s8                             2.700000
        a1                             0.520000
        a2                             5.000000
        s9                             5.000000
      * Repulsion:
        kExp                           1.500000    1.000000
        rExp                           1.000000
      * Coulomb:
        alpha                          2.000000
        third order                    shell-resolved
        anisotropic                    true
        a3                             3.000000
        a5                             4.000000
        cn-shift                       1.200000
        cn-exp                         4.000000
        max-rad                        5.000000


          ...................................................
          :                      SETUP                      :
          :.................................................:
          :  # basis functions                 385          :
          :  # atomic orbitals                 380          :
          :  # shells                          200          :
          :  # electrons                       390          :
          :  max. iterations                   250          :
          :  Hamiltonian                  GFN2-xTB          :
          :  restarted?                      false          :
          :  GBSA solvation                  false          :
          :  PC potential                    false          :
          :  electronic temp.          300.0000000     K    :
          :  accuracy                    1.0000000          :
          :  -> integral cutoff          0.2500000E+02      :
          :  -> integral neglect         0.1000000E-07      :
          :  -> SCF convergence          0.1000000E-05 Eh   :
          :  -> wf. convergence          0.1000000E-03 e    :
          :  Broyden damping             0.4000000          :
          ...................................................

 iter      E             dE          RMSdq      gap      omega  full diag
   1   -218.7319357 -0.218732E+03  0.504E+00    1.29       0.0  T
   2   -218.9696104 -0.237675E+00  0.310E+00    0.91       1.0  T
   3   -218.8658568  0.103754E+00  0.203E+00    0.69       1.0  T
   4   -219.1162791 -0.250422E+00  0.812E-01    0.90       1.0  T
   5   -219.1729742 -0.566951E-01  0.229E-01    0.60       1.0  T
   6   -219.1766356 -0.366142E-02  0.122E-01    0.75       1.0  T
   7   -219.1775982 -0.962538E-03  0.437E-02    0.71       1.0  T
   8   -219.1777184 -0.120215E-03  0.210E-02    0.71       1.0  T
   9   -219.1777383 -0.198729E-04  0.101E-02    0.71       1.0  T
  10   -219.1777425 -0.426796E-05  0.473E-03    0.71       2.0  T
  11   -219.1777435 -0.942058E-06  0.208E-03    0.71       4.5  T
  12   -219.1777436 -0.134669E-06  0.113E-03    0.71       8.2  T
  13   -219.1777437 -0.611259E-07  0.596E-04    0.71      15.7  T
  14   -219.1777437 -0.148667E-07  0.278E-04    0.71      33.6  T

   *** convergence criteria satisfied after 14 iterations ***

         #    Occupation            Energy/Eh            Energy/eV
      -------------------------------------------------------------
         1        2.0000           -0.8758589             -23.8333
       ...           ...                  ...                  ...
       189        2.0000           -0.4056680             -11.0388
       190        2.0000           -0.4036183             -10.9830
       191        2.0000           -0.4017562             -10.9323
       192        2.0000           -0.3870135             -10.5312
       193        2.0000           -0.3828280             -10.4173
       194        2.0000           -0.3730099             -10.1501
       195        2.0000           -0.3670046              -9.9867 (HOMO)
       196        0.0000           -0.3408567              -9.2752 (LUMO)
       197                         -0.3318622              -9.0304
       198                         -0.3309994              -9.0070
       199                         -0.3210823              -8.7371
       200                         -0.3067414              -8.3469
       ...                                ...                  ...
       380                          1.0960894              29.8261
      -------------------------------------------------------------
                  HL-Gap            0.0261479 Eh            0.7115 eV
             Fermi-level           -0.3539298 Eh           -9.6309 eV

 SCC (total)                   0 d,  0 h,  0 min,  0.288 sec
 SCC setup                      ...        0 min,  0.001 sec (  0.254%)
 Dispersion                     ...        0 min,  0.004 sec (  1.561%)
 classical contributions        ...        0 min,  0.000 sec (  0.052%)
 integral evaluation            ...        0 min,  0.015 sec (  5.080%)
 iterations                     ...        0 min,  0.227 sec ( 78.745%)
 molecular gradient             ...        0 min,  0.040 sec ( 13.892%)
 printout                       ...        0 min,  0.001 sec (  0.385%)

         :::::::::::::::::::::::::::::::::::::::::::::::::::::
         ::                     SUMMARY                     ::
         :::::::::::::::::::::::::::::::::::::::::::::::::::::
         :: total energy            -216.158653195970 Eh    ::
         :: gradient norm              0.299546780458 Eh/a0 ::
         :: HOMO-LUMO gap              0.711520662678 eV    ::
         ::.................................................::
         :: SCC energy              -219.177743680866 Eh    ::
         :: -> isotropic ES            0.187427102479 Eh    ::
         :: -> anisotropic ES          0.008999894145 Eh    ::
         :: -> anisotropic XC          0.115949928210 Eh    ::
         :: -> dispersion             -0.180333030733 Eh    ::
         :: repulsion energy           3.017496299201 Eh    ::
         :: add. restraining           0.000000000000 Eh    ::
         :: total charge              -0.000000000003 e     ::
         :::::::::::::::::::::::::::::::::::::::::::::::::::::

      ----------------------------------------------------------- 
     |                   =====================                   |
     |                        A N C O P T                        |
     |                   =====================                   |
     |               Approximate Normal Coordinate               |
     |                Rational Function Optimizer                |
      ----------------------------------------------------------- 

          ...................................................
          :                      SETUP                      :
          :.................................................:
          :   optimization level            normal          :
          :   max. optcycles                   345          :
          :   ANC micro-cycles                  20          :
          :   degrees of freedom               339          :
          :.................................................:
          :   RF solver                   davidson          :
          :   write xtbopt.log                true          :
          :   linear?                        false          :
          :   energy convergence         0.5000000E-05 Eh   :
          :   grad. convergence          0.1000000E-02 Eh/α :
          :   maximium RF displ.         1.0000000          :
          :   Hlow (freq-cutoff)         0.1000000E-01      :
          :   Hmax (freq-cutoff)         5.0000000          :
          :   S6 in model hess.         20.0000000          :
          ...................................................

generating ANC from model Hessian ...
Using Lindh-Hessian (1995)
 Shifting diagonal of input Hessian by   1.001056475786484E-002
 Lowest  eigenvalues of input Hessian
    0.010000    0.000000    0.000000    0.000000    0.000000    0.000000
    0.000000    0.010015    0.010039    0.010046    0.010074    0.010135
    0.010174    0.010246    0.010284    0.010418    0.010435    0.010485
 Highest eigenvalues
    2.274169    2.314758    2.495766    2.521476    2.565584    2.578650
 

........................................................................
.............................. CYCLE    1 ..............................
........................................................................
   1   -219.1777437 -0.219178E+03  0.135E-04    0.71       0.0  T
   2   -219.1777437  0.163766E-09  0.117E-04    0.71      79.4  T
   3   -219.1777437 -0.148233E-08  0.554E-05    0.71     168.2  T
     SCC iter.                  ...        0 min,  0.050 sec
     gradient                   ...        0 min,  0.039 sec
 * total energy  :  -216.1586532 Eh     change       -0.4553897E-08 Eh
   gradient norm :     0.2995442 Eh/α   predicted     0.0000000E+00 (-100.00%)
   displ. norm   :     0.4859305 α      lambda       -0.1042405E+00
   maximum displ.:     0.1106840 α      in ANC's #131, #191, #185, ...

........................................................................
.............................. CYCLE    2 ..............................
........................................................................
   1   -219.3053702 -0.219305E+03  0.350E-01    0.71       0.0  T
   2   -219.3069782 -0.160795E-02  0.204E-01    0.78       1.0  T
   3   -219.3068643  0.113841E-03  0.120E-01    0.73       1.0  T
   4   -219.3076248 -0.760462E-03  0.438E-02    0.77       1.0  T
   5   -219.3077316 -0.106859E-03  0.231E-02    0.75       1.0  T
   6   -219.3077650 -0.333722E-04  0.103E-02    0.76       1.0  T
   7   -219.3077711 -0.607254E-05  0.439E-03    0.75       2.1  T
   8   -219.3077722 -0.110177E-05  0.210E-03    0.76       4.4  T
   9   -219.3077722 -0.330273E-07  0.116E-03    0.76       8.1  T
  10   -219.3077723 -0.114097E-06  0.401E-04    0.76      23.2  T
  11   -219.3077723 -0.897924E-08  0.184E-04    0.76      50.6  T
     SCC iter.                  ...        0 min,  0.166 sec
     gradient                   ...        0 min,  0.039 sec
 * total energy  :  -216.2352719 Eh     change       -0.7661868E-01 Eh
   gradient norm :     0.1422896 Eh/α   predicted    -0.6447774E-01 ( -15.85%)
   displ. norm   :     0.4957273 α      lambda       -0.4523088E-01
   maximum displ.:     0.1619955 α      in ANC's #70, #131, #108, ...

........................................................................
.............................. CYCLE    3 ..............................
........................................................................
   1   -219.3709711 -0.219371E+03  0.299E-01    0.75       0.0  T
   2   -219.3723288 -0.135764E-02  0.176E-01    0.87       1.0  T
   3   -219.3726371 -0.308326E-03  0.114E-01    0.78       1.0  T
   4   -219.3732554 -0.618276E-03  0.410E-02    0.83       1.0  T
   5   -219.3734001 -0.144688E-03  0.220E-02    0.82       1.0  T
   6   -219.3734374 -0.373495E-04  0.823E-03    0.82       1.1  T
   7   -219.3734401 -0.269485E-05  0.387E-03    0.82       2.4  T
   8   -219.3734408 -0.668745E-06  0.175E-03    0.82       5.3  T
   9   -219.3734408 -0.491449E-07  0.104E-03    0.82       9.0  T
  10   -219.3734409 -0.826831E-07  0.368E-04    0.82      25.3  T
  11   -219.3734409 -0.488586E-08  0.166E-04    0.82      56.1  T
     SCC iter.                  ...        0 min,  0.168 sec
     gradient                   ...        0 min,  0.039 sec
 * total energy  :  -216.2634192 Eh     change       -0.2814735E-01 Eh
   gradient norm :     0.0418402 Eh/α   predicted    -0.2817309E-01 (   0.09%)
   displ. norm   :     0.4904450 α      lambda       -0.1181305E-01
   maximum displ.:     0.1597506 α      in ANC's #70, #78, #55, ...

........................................................................
.............................. CYCLE    4 ..............................
........................................................................
   1   -219.3806927 -0.219381E+03  0.233E-01    0.85       0.0  T
   2   -219.3809393 -0.246623E-03  0.133E-01    0.91       1.0  T
   3   -219.3804006  0.538743E-03  0.900E-02    0.86       1.0  T
   4   -219.3812076 -0.806992E-03  0.214E-02    0.90       1.0  T
   5   -219.3812593 -0.517636E-04  0.985E-03    0.89       1.0  T
   6   -219.3812662 -0.689031E-05  0.374E-03    0.89       2.5  T
   7   -219.3812669 -0.645076E-06  0.165E-03    0.89       5.6  T
   8   -219.3812670 -0.884589E-07  0.775E-04    0.89      12.0  T
   9   -219.3812670 -0.236872E-07  0.436E-04    0.89      21.4  T
     SCC iter.                  ...        0 min,  0.144 sec
     gradient                   ...        0 min,  0.039 sec
 * total energy  :  -216.2694553 Eh     change       -0.6036049E-02 Eh
   gradient norm :     0.0328355 Eh/α   predicted    -0.7327655E-02 (  21.40%)
   displ. norm   :     0.6167596 α      lambda       -0.1115699E-01
   maximum displ.:     0.2073495 α      in ANC's #70, #53, #15, ...

........................................................................
.............................. CYCLE    5 ..............................
........................................................................
   1   -219.3764254 -0.219376E+03  0.395E-01    0.90       0.0  T
   2   -219.3767922 -0.366729E-03  0.219E-01    0.96       1.0  T
   3   -219.3751488  0.164335E-02  0.118E-01    0.90       1.0  T
   4   -219.3771265 -0.197765E-02  0.210E-02    0.95       1.0  T
   5   -219.3771690 -0.424872E-04  0.118E-02    0.94       1.0  T
   6   -219.3771788 -0.979611E-05  0.430E-03    0.95       2.2  T
   7   -219.3771795 -0.789182E-06  0.181E-03    0.95       5.2  T
   8   -219.3771797 -0.160095E-06  0.896E-04    0.95      10.4  T
   9   -219.3771797 -0.343141E-07  0.477E-04    0.95      19.6  T
     SCC iter.                  ...        0 min,  0.139 sec
     gradient                   ...        0 min,  0.039 sec
 * total energy  :  -216.2719515 Eh     change       -0.2496225E-02 Eh
   gradient norm :     0.0435510 Eh/α   predicted    -0.7700513E-02 ( 208.49%)
   displ. norm   :     0.3089255 α      lambda       -0.5735529E-02
   maximum displ.:     0.1131794 α      in ANC's #40, #1, #21, ...

........................................................................
.............................. CYCLE    6 ..............................
........................................................................
   1   -219.3861359 -0.219386E+03  0.224E-01    0.96       0.0  T
   2   -219.3862315 -0.955937E-04  0.124E-01    0.96       1.0  T
   3   -219.3861072  0.124310E-03  0.374E-02    0.95       1.0  T
   4   -219.3862707 -0.163518E-03  0.813E-03    0.96       1.1  T
   5   -219.3862750 -0.435819E-05  0.404E-03    0.96       2.3  T
   6   -219.3862761 -0.104483E-05  0.160E-03    0.96       5.8  T
   7   -219.3862762 -0.154178E-06  0.712E-04    0.96      13.1  T
   8   -219.3862763 -0.405196E-07  0.303E-04    0.96      30.8  T
     SCC iter.                  ...        0 min,  0.123 sec
     gradient                   ...        0 min,  0.039 sec
 * total energy  :  -216.2748137 Eh     change       -0.2862223E-02 Eh
   gradient norm :     0.0351048 Eh/α   predicted    -0.3141453E-02 (   9.76%)
   displ. norm   :     0.4815255 α      lambda       -0.5645800E-02
   maximum displ.:     0.1675633 α      in ANC's #37, #18, #21, ...

........................................................................
.............................. CYCLE    7 ..............................
........................................................................
   1   -219.3839327 -0.219384E+03  0.367E-01    0.98       0.0  T
   2   -219.3841202 -0.187551E-03  0.204E-01    0.98       1.0  T
   3   -219.3836095  0.510785E-03  0.730E-02    0.97       1.0  T
   4   -219.3842201 -0.610607E-03  0.128E-02    0.99       1.0  T
   5   -219.3842289 -0.879769E-05  0.678E-03    0.98       1.4  T
   6   -219.3842320 -0.316743E-05  0.303E-03    0.98       3.1  T
   7   -219.3842327 -0.654636E-06  0.120E-03    0.98       7.7  T
   8   -219.3842328 -0.916276E-07  0.494E-04    0.98      18.9  T
   9   -219.3842328 -0.113467E-07  0.257E-04    0.98      36.3  T
     SCC iter.                  ...        0 min,  0.140 sec
     gradient                   ...        0 min,  0.039 sec
 * total energy  :  -216.2738919 Eh     change        0.9218608E-03 Eh
   gradient norm :     0.0382057 Eh/α   predicted    -0.3477446E-02 (-477.22%)
   displ. norm   :     0.2662904 α      lambda       -0.5457315E-02
   maximum displ.:     0.1039201 α      in ANC's #40, #15, #18, ...

........................................................................
.............................. CYCLE    8 ..............................
........................................................................
   1   -219.3917903 -0.219392E+03  0.228E-01    0.98       0.0  T
   2   -219.3918770 -0.866564E-04  0.126E-01    1.00       1.0  T
   3   -219.3915589  0.318009E-03  0.545E-02    0.97       1.0  T
   4   -219.3919448 -0.385901E-03  0.785E-03    0.99       1.2  T
   5   -219.3919495 -0.464661E-05  0.482E-03    0.99       1.9  T
   6   -219.3919511 -0.162664E-05  0.178E-03    0.99       5.2  T
   7   -219.3919513 -0.152905E-06  0.786E-04    0.99      11.9  T
   8   -219.3919513 -0.365232E-07  0.319E-04    0.99      29.2  T
     SCC iter.                  ...        0 min,  0.130 sec
     gradient                   ...        0 min,  0.039 sec
 * total energy  :  -216.2772620 Eh     change       -0.3370185E-02 Eh
   gradient norm :     0.0248817 Eh/α   predicted    -0.2922132E-02 ( -13.29%)
   displ. norm   :     0.3915272 α      lambda       -0.2102261E-02
   maximum displ.:     0.1481644 α      in ANC's #15, #18, #17, ...

........................................................................
.............................. CYCLE    9 ..............................
........................................................................
   1   -219.3825606 -0.219383E+03  0.203E-01    0.99       0.0  T
   2   -219.3826359 -0.752705E-04  0.113E-01    1.01       1.0  T
   3   -219.3820790  0.556929E-03  0.669E-02    0.98       1.0  T
   4   -219.3827276 -0.648662E-03  0.106E-02    1.01       1.0  T
   5   -219.3827384 -0.107247E-04  0.518E-03    1.00       1.8  T
   6   -219.3827401 -0.173741E-05  0.186E-03    1.00       5.0  T
   7   -219.3827402 -0.137394E-06  0.797E-04    1.00      11.7  T
   8   -219.3827403 -0.411752E-07  0.330E-04    1.00      28.3  T
     SCC iter.                  ...        0 min,  0.130 sec
     gradient                   ...        0 min,  0.039 sec
 * total energy  :  -216.2782812 Eh     change       -0.1019167E-02 Eh
   gradient norm :     0.0349231 Eh/α   predicted    -0.1212255E-02 (  18.95%)
   displ. norm   :     0.3937515 α      lambda       -0.1605438E-02
   maximum displ.:     0.1757205 α      in ANC's #18, #16, #17, ...

........................................................................
.............................. CYCLE   10 ..............................
........................................................................
   1   -219.3922819 -0.219392E+03  0.847E-02    1.01       0.0  T
   2   -219.3923037 -0.217735E-04  0.489E-02    1.03       1.0  T
   3   -219.3922228  0.808999E-04  0.348E-02    1.01       1.0  T
   4   -219.3923465 -0.123681E-03  0.627E-03    1.02       1.5  T
   5   -219.3923504 -0.389819E-05  0.308E-03    1.02       3.0  T
   6   -219.3923511 -0.732172E-06  0.111E-03    1.02       8.4  T
   7   -219.3923512 -0.537760E-07  0.544E-04    1.02      17.1  T
   8   -219.3923512 -0.202875E-07  0.207E-04    1.02      45.1  T
     SCC iter.                  ...        0 min,  0.128 sec
     gradient                   ...        0 min,  0.039 sec
 * total energy  :  -216.2795289 Eh     change       -0.1247679E-02 Eh
   gradient norm :     0.0151579 Eh/α   predicted    -0.9271710E-03 ( -25.69%)
   displ. norm   :     0.6417689 α      lambda       -0.1816756E-02
   maximum displ.:     0.2851910 α      in ANC's #18, #17, #16, ...

........................................................................
.............................. CYCLE   11 ..............................
........................................................................
   1   -219.3962959 -0.219396E+03  0.118E-01    1.04       0.0  T
   2   -219.3963278 -0.319397E-04  0.682E-02    1.05       1.0  T
   3   -219.3961195  0.208360E-03  0.512E-02    1.04       1.0  T
   4   -219.3964107 -0.291194E-03  0.956E-03    1.05       1.0  T
   5   -219.3964195 -0.880569E-05  0.430E-03    1.04       2.2  T
   6   -219.3964208 -0.131623E-05  0.165E-03    1.04       5.6  T
   7   -219.3964209 -0.134343E-06  0.735E-04    1.04      12.7  T
   8   -219.3964210 -0.331777E-07  0.308E-04    1.04      30.3  T
     SCC iter.                  ...        0 min,  0.125 sec
     gradient                   ...        0 min,  0.039 sec
 * total energy  :  -216.2808559 Eh     change       -0.1327040E-02 Eh
   gradient norm :     0.0157522 Eh/α   predicted    -0.1282504E-02 (  -3.36%)
   displ. norm   :     0.6875457 α      lambda       -0.1592570E-02
   maximum displ.:     0.2988492 α      in ANC's #18, #16, #4, ...

........................................................................
.............................. CYCLE   12 ..............................
........................................................................
   1   -219.3994488 -0.219399E+03  0.156E-01    1.05       0.0  T
   2   -219.3994982 -0.493981E-04  0.885E-02    1.06       1.0  T
   3   -219.3992018  0.296438E-03  0.538E-02    1.05       1.0  T
   4   -219.3995595 -0.357752E-03  0.963E-03    1.06       1.0  T
   5   -219.3995682 -0.868086E-05  0.489E-03    1.06       1.9  T
   6   -219.3995699 -0.166814E-05  0.184E-03    1.06       5.1  T
   7   -219.3995700 -0.154148E-06  0.834E-04    1.06      11.2  T
   8   -219.3995701 -0.488241E-07  0.298E-04    1.06      31.3  T
     SCC iter.                  ...        0 min,  0.126 sec
     gradient                   ...        0 min,  0.039 sec
 * total energy  :  -216.2818236 Eh     change       -0.9676390E-03 Eh
   gradient norm :     0.0211732 Eh/α   predicted    -0.1172701E-02 (  21.19%)
   displ. norm   :     0.5546911 α      lambda       -0.1202703E-02
   maximum displ.:     0.2354042 α      in ANC's #18, #4, #16, ...

........................................................................
.............................. CYCLE   13 ..............................
........................................................................
   1   -219.4014324 -0.219401E+03  0.966E-02    1.07       0.0  T
   2   -219.4014618 -0.294833E-04  0.553E-02    1.07       1.0  T
   3   -219.4013543  0.107501E-03  0.376E-02    1.07       1.0  T
   4   -219.4015045 -0.150207E-03  0.729E-03    1.07       1.3  T
   5   -219.4015096 -0.504642E-05  0.365E-03    1.07       2.6  T
   6   -219.4015106 -0.993316E-06  0.141E-03    1.07       6.6  T
   7   -219.4015107 -0.803650E-07  0.680E-04    1.07      13.7  T
   8   -219.4015107 -0.276621E-07  0.251E-04    1.07      37.2  T
     SCC iter.                  ...        0 min,  0.126 sec
     gradient                   ...        0 min,  0.039 sec
 * total energy  :  -216.2827760 Eh     change       -0.9523938E-03 Eh
   gradient norm :     0.0126608 Eh/α   predicted    -0.7863809E-03 ( -17.43%)
   displ. norm   :     0.6008770 α      lambda       -0.1168785E-02
   maximum displ.:     0.2608401 α      in ANC's #4, #16, #18, ...

........................................................................
.............................. CYCLE   14 ..............................
........................................................................
   1   -219.4015468 -0.219402E+03  0.936E-02    1.07       0.0  T
   2   -219.4015661 -0.193215E-04  0.533E-02    1.07       1.0  T
   3   -219.4014672  0.989219E-04  0.319E-02    1.08       1.0  T
   4   -219.4015865 -0.119254E-03  0.628E-03    1.07       1.5  T
   5   -219.4015895 -0.306589E-05  0.325E-03    1.07       2.9  T
   6   -219.4015903 -0.754503E-06  0.131E-03    1.07       7.1  T
   7   -219.4015904 -0.744712E-07  0.613E-04    1.07      15.2  T
   8   -219.4015904 -0.214474E-07  0.238E-04    1.07      39.1  T
     SCC iter.                  ...        0 min,  0.129 sec
     gradient                   ...        0 min,  0.039 sec
 * total energy  :  -216.2836787 Eh     change       -0.9027643E-03 Eh
   gradient norm :     0.0126869 Eh/α   predicted    -0.7953896E-03 ( -11.89%)
   displ. norm   :     0.6609829 α      lambda       -0.1065842E-02
   maximum displ.:     0.3036121 α      in ANC's #4, #16, #18, ...

........................................................................
.............................. CYCLE   15 ..............................
........................................................................
   1   -219.4010058 -0.219401E+03  0.107E-01    1.07       0.0  T
   2   -219.4010317 -0.258532E-04  0.606E-02    1.07       1.0  T
   3   -219.4009485  0.831951E-04  0.298E-02    1.08       1.0  T
   4   -219.4010510 -0.102478E-03  0.499E-03    1.07       1.9  T
   5   -219.4010518 -0.840759E-06  0.274E-03    1.07       3.4  T
   6   -219.4010523 -0.456329E-06  0.117E-03    1.07       8.0  T
   7   -219.4010523 -0.465232E-07  0.595E-04    1.07      15.7  T
   8   -219.4010523 -0.274207E-07  0.254E-04    1.07      36.8  T
     SCC iter.                  ...        0 min,  0.127 sec
     gradient                   ...        0 min,  0.039 sec
 * total energy  :  -216.2844557 Eh     change       -0.7769281E-03 Eh
   gradient norm :     0.0161604 Eh/α   predicted    -0.7657551E-03 (  -1.44%)
   displ. norm   :     0.6297927 α      lambda       -0.1008069E-02
   maximum displ.:     0.3104945 α      in ANC's #4, #16, #18, ...

........................................................................
.............................. CYCLE   16 ..............................
........................................................................
   1   -219.3988331 -0.219399E+03  0.993E-02    1.07       0.0  T
   2   -219.3988576 -0.244870E-04  0.566E-02    1.07       1.0  T
   3   -219.3987675  0.900538E-04  0.302E-02    1.08       1.0  T
   4   -219.3988760 -0.108439E-03  0.554E-03    1.07       1.7  T
   5   -219.3988777 -0.170571E-05  0.321E-03    1.07       2.9  T
   6   -219.3988785 -0.805883E-06  0.138E-03    1.07       6.7  T
   7   -219.3988786 -0.828264E-07  0.676E-04    1.07      13.8  T
   8   -219.3988786 -0.280210E-07  0.245E-04    1.07      38.1  T
     SCC iter.                  ...        0 min,  0.127 sec
     gradient                   ...        0 min,  0.039 sec
 * total energy  :  -216.2852016 Eh     change       -0.7459543E-03 Eh
   gradient norm :     0.0104416 Eh/α   predicted    -0.7039554E-03 (  -5.63%)
   displ. norm   :     0.5694526 α      lambda       -0.7595057E-03
   maximum displ.:     0.3097282 α      in ANC's #4, #16, #9, ...

........................................................................
.............................. CYCLE   17 ..............................
........................................................................
   1   -219.4000212 -0.219400E+03  0.694E-02    1.07       0.0  T
   2   -219.4000336 -0.124295E-04  0.402E-02    1.06       1.0  T
   3   -219.3999861  0.475487E-04  0.225E-02    1.07       1.0  T
   4   -219.4000445 -0.583957E-04  0.421E-03    1.06       2.2  T
   5   -219.4000457 -0.121071E-05  0.233E-03    1.07       4.0  T
   6   -219.4000461 -0.362569E-06  0.101E-03    1.06       9.3  T
   7   -219.4000461 -0.449976E-07  0.500E-04    1.07      18.6  T
   8   -219.4000461 -0.181347E-07  0.183E-04    1.07      51.1  T
     SCC iter.                  ...        0 min,  0.127 sec
     gradient                   ...        0 min,  0.039 sec
 * total energy  :  -216.2858270 Eh     change       -0.6254049E-03 Eh
   gradient norm :     0.0085144 Eh/α   predicted    -0.5028987E-03 ( -19.59%)
   displ. norm   :     0.6200470 α      lambda       -0.7707108E-03
   maximum displ.:     0.3465100 α      in ANC's #4, #16, #9, ...

........................................................................
.............................. CYCLE   18 ..............................
........................................................................
   1   -219.3972670 -0.219397E+03  0.658E-02    1.07       0.0  T
   2   -219.3972781 -0.111708E-04  0.383E-02    1.06       1.0  T
   3   -219.3972381  0.400383E-04  0.211E-02    1.07       1.0  T
   4   -219.3972877 -0.495447E-04  0.392E-03    1.06       2.4  T
   5   -219.3972887 -0.107159E-05  0.200E-03    1.06       4.7  T
   6   -219.3972889 -0.223235E-06  0.101E-03    1.06       9.2  T
   7   -219.3972890 -0.487860E-07  0.486E-04    1.06      19.2  T
   8   -219.3972890 -0.173378E-07  0.174E-04    1.06      53.5  T
     SCC iter.                  ...        0 min,  0.128 sec
     gradient                   ...        0 min,  0.039 sec
 * total energy  :  -216.2864708 Eh     change       -0.6437623E-03 Eh
   gradient norm :     0.0075796 Eh/α   predicted    -0.5335127E-03 ( -17.13%)
   displ. norm   :     0.6218491 α      lambda       -0.7855842E-03
   maximum displ.:     0.3722522 α      in ANC's #4, #14, #16, ...

........................................................................
.............................. CYCLE   19 ..............................
........................................................................
   1   -219.4043246 -0.219404E+03  0.595E-02    1.06       0.0  T
   2   -219.4043341 -0.942510E-05  0.348E-02    1.05       1.0  T
   3   -219.4042891  0.449583E-04  0.213E-02    1.06       1.0  T
   4   -219.4043430 -0.538866E-04  0.446E-03    1.05       2.1  T
   5   -219.4043447 -0.168386E-05  0.233E-03    1.06       4.0  T
   6   -219.4043451 -0.400411E-06  0.923E-04    1.05      10.1  T
   7   -219.4043451 -0.272245E-07  0.400E-04    1.05      23.3  T
     SCC iter.                  ...        0 min,  0.116 sec
     gradient                   ...        0 min,  0.039 sec
 * total energy  :  -216.2870732 Eh     change       -0.6024460E-03 Eh
   gradient norm :     0.0111470 Eh/α   predicted    -0.5446848E-03 (  -9.59%)
   displ. norm   :     0.6845525 α      lambda       -0.7678707E-03
   maximum displ.:     0.4002491 α      in ANC's #4, #14, #16, ...

........................................................................
.............................. CYCLE   20 ..............................
........................................................................
   1   -219.3986481 -0.219399E+03  0.712E-02    1.06       0.0  T
   2   -219.3986578 -0.975251E-05  0.411E-02    1.05       1.0  T
   3   -219.3986190  0.387954E-04  0.190E-02    1.05       1.0  T
   4   -219.3986644 -0.453015E-04  0.389E-03    1.05       2.4  T
   5   -219.3986653 -0.911961E-06  0.208E-03    1.05       4.5  T
   6   -219.3986655 -0.215337E-06  0.109E-03    1.05       8.5  T
   7   -219.3986656 -0.797027E-07  0.419E-04    1.05      22.2  T
   8   -219.3986656 -0.100190E-07  0.174E-04    1.05      53.5  T
     SCC iter.                  ...        0 min,  0.130 sec
     gradient                   ...        0 min,  0.039 sec
 * total energy  :  -216.2876755 Eh     change       -0.6022689E-03 Eh
   gradient norm :     0.0101573 Eh/α   predicted    -0.5638544E-03 (  -6.38%)
   displ. norm   :     0.5925311 α      lambda       -0.7015737E-03
   maximum displ.:     0.3744811 α      in ANC's #4, #14, #9, ...
 * RMSD in coord.:     0.7383334 α      energy gain  -0.1290223E+00 Eh

generating ANC from model Hessian ...
Using Lindh-Hessian (1995)
 Shifting diagonal of input Hessian by   1.000398688572405E-002
 Lowest  eigenvalues of input Hessian
    0.010000    0.000000    0.000000    0.000000    0.000000    0.000000
    0.000000    0.010012    0.010020    0.010040    0.010092    0.010134
    0.010209    0.010263    0.010327    0.010391    0.010454    0.010617
 Highest eigenvalues
    2.283826    2.289256    2.596862    2.599694    2.652547    2.658215
 

........................................................................
.............................. CYCLE   21 ..............................
........................................................................
   1   -219.3994580 -0.219399E+03  0.518E-02    1.05       0.0  T
   2   -219.3994640 -0.601432E-05  0.299E-02    1.05       1.0  T
   3   -219.3994458  0.181829E-04  0.130E-02    1.05       1.0  T
   4   -219.3994665 -0.207447E-04  0.331E-03    1.05       2.8  T
   5   -219.3994673 -0.785191E-06  0.170E-03    1.05       5.5  T
   6   -219.3994675 -0.174230E-06  0.797E-04    1.05      11.7  T
   7   -219.3994675 -0.412453E-07  0.301E-04    1.05      30.9  T
     SCC iter.                  ...        0 min,  0.114 sec
     gradient                   ...        0 min,  0.038 sec
 * total energy  :  -216.2882876 Eh     change       -0.6121408E-03 Eh
   gradient norm :     0.0101804 Eh/α   predicted     0.0000000E+00 (-100.00%)
   displ. norm   :     0.1317419 α      lambda       -0.3664432E-03
   maximum displ.:     0.0704488 α      in ANC's #4, #24, #15, ...

........................................................................
.............................. CYCLE   22 ..............................
........................................................................
   1   -219.4024331 -0.219402E+03  0.572E-02    1.05       0.0  T
   2   -219.4024386 -0.545451E-05  0.319E-02    1.06       1.0  T
   3   -219.4024224  0.161294E-04  0.120E-02    1.05       1.0  T
   4   -219.4024420 -0.195709E-04  0.182E-03    1.06       5.1  T
   5   -219.4024422 -0.150166E-06  0.109E-03    1.06       8.5  T
   6   -219.4024422 -0.736515E-07  0.474E-04    1.06      19.7  T
   7   -219.4024423 -0.124049E-07  0.201E-04    1.06      46.5  T
     SCC iter.                  ...        0 min,  0.115 sec
     gradient                   ...        0 min,  0.038 sec
 * total energy  :  -216.2885397 Eh     change       -0.2520344E-03 Eh
   gradient norm :     0.0054784 Eh/α   predicted    -0.1864038E-03 ( -26.04%)
   displ. norm   :     0.3583621 α      lambda       -0.7439446E-03
   maximum displ.:     0.1904130 α      in ANC's #4, #24, #26, ...

........................................................................
.............................. CYCLE   23 ..............................
........................................................................
   1   -219.4074640 -0.219407E+03  0.962E-02    1.06       0.0  T
   2   -219.4074802 -0.162037E-04  0.544E-02    1.07       1.0  T
   3   -219.4074176  0.625393E-04  0.239E-02    1.06       1.0  T
   4   -219.4074912 -0.735440E-04  0.432E-03    1.07       2.2  T
   5   -219.4074923 -0.114153E-05  0.231E-03    1.07       4.0  T
   6   -219.4074926 -0.291696E-06  0.105E-03    1.07       8.8  T
   7   -219.4074927 -0.570002E-07  0.458E-04    1.07      20.4  T
   8   -219.4074927 -0.147588E-07  0.215E-04    1.07      43.5  T
     SCC iter.                  ...        0 min,  0.124 sec
     gradient                   ...        0 min,  0.038 sec
 * total energy  :  -216.2886944 Eh     change       -0.1547241E-03 Eh
   gradient norm :     0.0156447 Eh/α   predicted    -0.4197497E-03 ( 171.29%)
   displ. norm   :     0.2449506 α      lambda       -0.7552549E-03
   maximum displ.:     0.1292401 α      in ANC's #4, #15, #24, ...

........................................................................
.............................. CYCLE   24 ..............................
........................................................................
   1   -219.4064992 -0.219406E+03  0.102E-01    1.07       0.0  T
   2   -219.4065141 -0.148815E-04  0.568E-02    1.07       1.0  T
   3   -219.4065017  0.123862E-04  0.121E-02    1.07       1.0  T
   4   -219.4065208 -0.190354E-04  0.270E-03    1.07       3.4  T
   5   -219.4065210 -0.218094E-06  0.175E-03    1.07       5.3  T
   6   -219.4065212 -0.234494E-06  0.497E-04    1.07      18.7  T
   7   -219.4065212 -0.125109E-07  0.209E-04    1.07      44.6  T
     SCC iter.                  ...        0 min,  0.109 sec
     gradient                   ...        0 min,  0.038 sec
 * total energy  :  -216.2890603 Eh     change       -0.3658898E-03 Eh
   gradient norm :     0.0126234 Eh/α   predicted    -0.4002862E-03 (   9.40%)
   displ. norm   :     0.2701496 α      lambda       -0.7391503E-03
   maximum displ.:     0.1370592 α      in ANC's #4, #15, #24, ...

........................................................................
.............................. CYCLE   25 ..............................
........................................................................
   1   -219.3983673 -0.219398E+03  0.113E-01    1.07       0.0  T
   2   -219.3983894 -0.221049E-04  0.626E-02    1.07       1.0  T
   3   -219.3983161  0.732442E-04  0.248E-02    1.06       1.0  T
   4   -219.3984027 -0.865725E-04  0.346E-03    1.07       2.7  T
   5   -219.3984031 -0.411810E-06  0.215E-03    1.07       4.3  T
   6   -219.3984034 -0.313589E-06  0.814E-04    1.07      11.5  T
   7   -219.3984035 -0.224782E-07  0.327E-04    1.07      28.5  T
     SCC iter.                  ...        0 min,  0.108 sec
     gradient                   ...        0 min,  0.039 sec
 * total energy  :  -216.2891565 Eh     change       -0.9621199E-04 Eh
   gradient norm :     0.0194699 Eh/α   predicted    -0.3965483E-03 ( 312.16%)
   displ. norm   :     0.2206917 α      lambda       -0.8374174E-03
   maximum displ.:     0.1112910 α      in ANC's #4, #15, #26, ...

........................................................................
.............................. CYCLE   26 ..............................
........................................................................
   1   -219.4002289 -0.219400E+03  0.906E-02    1.08       0.0  T
   2   -219.4002430 -0.141410E-04  0.501E-02    1.08       1.0  T
   3   -219.4002326  0.104153E-04  0.116E-02    1.08       1.0  T
   4   -219.4002490 -0.163858E-04  0.234E-03    1.08       4.0  T
   5   -219.4002492 -0.141882E-06  0.139E-03    1.08       6.7  T
   6   -219.4002493 -0.141762E-06  0.556E-04    1.08      16.8  T
   7   -219.4002493 -0.245956E-07  0.199E-04    1.08      47.0  T
     SCC iter.                  ...        0 min,  0.108 sec
     gradient                   ...        0 min,  0.039 sec
 * total energy  :  -216.2896579 Eh     change       -0.5014351E-03 Eh
   gradient norm :     0.0092223 Eh/α   predicted    -0.4391018E-03 ( -12.43%)
   displ. norm   :     0.3895368 α      lambda       -0.6573579E-03
   maximum displ.:     0.2164945 α      in ANC's #4, #15, #24, ...

........................................................................
.............................. CYCLE   27 ..............................
........................................................................
   1   -219.4036298 -0.219404E+03  0.758E-02    1.08       0.0  T
   2   -219.4036382 -0.840630E-05  0.425E-02    1.08       1.0  T
   3   -219.4036231  0.151397E-04  0.130E-02    1.08       1.0  T
   4   -219.4036423 -0.192510E-04  0.236E-03    1.08       4.0  T
   5   -219.4036424 -0.459350E-07  0.154E-03    1.08       6.1  T
   6   -219.4036426 -0.201027E-06  0.577E-04    1.08      16.2  T
   7   -219.4036426 -0.163736E-07  0.266E-04    1.08      35.1  T
     SCC iter.                  ...        0 min,  0.109 sec
     gradient                   ...        0 min,  0.038 sec
 * total energy  :  -216.2900491 Eh     change       -0.3912134E-03 Eh
   gradient norm :     0.0124917 Eh/α   predicted    -0.3785530E-03 (  -3.24%)
   displ. norm   :     0.5259398 α      lambda       -0.6360018E-03
   maximum displ.:     0.2968710 α      in ANC's #4, #15, #11, ...

........................................................................
.............................. CYCLE   28 ..............................
........................................................................
   1   -219.4034320 -0.219403E+03  0.588E-02    1.08       0.0  T
   2   -219.4034368 -0.472698E-05  0.335E-02    1.09       1.0  T
   3   -219.4034233  0.134804E-04  0.108E-02    1.08       1.0  T
   4   -219.4034389 -0.155987E-04  0.260E-03    1.09       3.6  T
   5   -219.4034392 -0.348710E-06  0.162E-03    1.09       5.7  T
   6   -219.4034394 -0.202752E-06  0.545E-04    1.09      17.1  T
   7   -219.4034395 -0.852270E-08  0.265E-04    1.09      35.2  T
     SCC iter.                  ...        0 min,  0.108 sec
     gradient                   ...        0 min,  0.039 sec
 * total energy  :  -216.2905978 Eh     change       -0.5486099E-03 Eh
   gradient norm :     0.0118963 Eh/α   predicted    -0.4059649E-03 ( -26.00%)
   displ. norm   :     0.6557812 α      lambda       -0.8667122E-03
   maximum displ.:     0.3803109 α      in ANC's #4, #15, #11, ...

........................................................................
.............................. CYCLE   29 ..............................
........................................................................
   1   -219.4029346 -0.219403E+03  0.635E-02    1.09       0.0  T
   2   -219.4029412 -0.665797E-05  0.364E-02    1.09       1.0  T
   3   -219.4029260  0.152567E-04  0.123E-02    1.09       1.0  T
   4   -219.4029434 -0.174055E-04  0.322E-03    1.09       2.9  T
   5   -219.4029440 -0.686348E-06  0.185E-03    1.09       5.1  T
   6   -219.4029443 -0.278637E-06  0.681E-04    1.09      13.7  T
   7   -219.4029443 -0.175754E-07  0.318E-04    1.09      29.3  T
     SCC iter.                  ...        0 min,  0.109 sec
     gradient                   ...        0 min,  0.038 sec
 * total energy  :  -216.2913473 Eh     change       -0.7495827E-03 Eh
   gradient norm :     0.0076610 Eh/α   predicted    -0.6197226E-03 ( -17.32%)
   displ. norm   :     0.7225749 α      lambda       -0.8695908E-03
   maximum displ.:     0.4339887 α      in ANC's #4, #15, #11, ...

........................................................................
.............................. CYCLE   30 ..............................
........................................................................
   1   -219.4045983 -0.219405E+03  0.636E-02    1.09       0.0  T
   2   -219.4046050 -0.663756E-05  0.366E-02    1.09       1.0  T
   3   -219.4045930  0.119679E-04  0.112E-02    1.09       1.0  T
   4   -219.4046070 -0.140306E-04  0.297E-03    1.10       3.1  T
   5   -219.4046076 -0.533650E-06  0.157E-03    1.09       5.9  T
   6   -219.4046077 -0.176506E-06  0.686E-04    1.09      13.6  T
   7   -219.4046078 -0.208989E-07  0.328E-04    1.09      28.4  T
     SCC iter.                  ...        0 min,  0.110 sec
     gradient                   ...        0 min,  0.038 sec
 * total energy  :  -216.2921250 Eh     change       -0.7776960E-03 Eh
   gradient norm :     0.0100243 Eh/α   predicted    -0.6618112E-03 ( -14.90%)
   displ. norm   :     0.7576301 α      lambda       -0.9061303E-03
   maximum displ.:     0.4695083 α      in ANC's #4, #15, #11, ...

........................................................................
.............................. CYCLE   31 ..............................
........................................................................
   1   -219.4069058 -0.219407E+03  0.583E-02    1.10       0.0  T
   2   -219.4069111 -0.530749E-05  0.341E-02    1.10       1.0  T
   3   -219.4068971  0.139804E-04  0.116E-02    1.10       1.0  T
   4   -219.4069130 -0.158835E-04  0.284E-03    1.10       3.3  T
   5   -219.4069136 -0.558694E-06  0.145E-03    1.10       6.4  T
   6   -219.4069137 -0.130748E-06  0.625E-04    1.10      14.9  T
   7   -219.4069137 -0.141716E-07  0.300E-04    1.10      31.1  T
     SCC iter.                  ...        0 min,  0.111 sec
     gradient                   ...        0 min,  0.038 sec
 * total energy  :  -216.2929597 Eh     change       -0.8346873E-03 Eh
   gradient norm :     0.0088719 Eh/α   predicted    -0.7131310E-03 ( -14.56%)
   displ. norm   :     0.8003861 α      lambda       -0.9705377E-03
   maximum displ.:     0.5102681 α      in ANC's #4, #15, #13, ...

........................................................................
.............................. CYCLE   32 ..............................
........................................................................
   1   -219.4094572 -0.219409E+03  0.626E-02    1.10       0.0  T
   2   -219.4094628 -0.559598E-05  0.366E-02    1.10       1.0  T
   3   -219.4094445  0.182692E-04  0.126E-02    1.10       1.0  T
   4   -219.4094651 -0.206281E-04  0.301E-03    1.10       3.1  T
   5   -219.4094657 -0.607486E-06  0.165E-03    1.10       5.7  T
   6   -219.4094659 -0.167947E-06  0.731E-04    1.10      12.8  T
   7   -219.4094659 -0.239062E-07  0.325E-04    1.10      28.7  T
     SCC iter.                  ...        0 min,  0.111 sec
     gradient                   ...        0 min,  0.038 sec
 * total energy  :  -216.2938571 Eh     change       -0.8973923E-03 Eh
   gradient norm :     0.0053912 Eh/α   predicted    -0.7961470E-03 ( -11.28%)
   displ. norm   :     0.8371695 α      lambda       -0.9765985E-03
   maximum displ.:     0.5454259 α      in ANC's #4, #15, #13, ...

........................................................................
.............................. CYCLE   33 ..............................
........................................................................
   1   -219.4101320 -0.219410E+03  0.679E-02    1.10       0.0  T
   2   -219.4101376 -0.558245E-05  0.395E-02    1.10       1.0  T
   3   -219.4101194  0.182418E-04  0.126E-02    1.10       1.0  T
   4   -219.4101402 -0.208288E-04  0.305E-03    1.10       3.1  T
   5   -219.4101407 -0.485121E-06  0.181E-03    1.10       5.2  T
   6   -219.4101409 -0.204082E-06  0.765E-04    1.10      12.2  T
   7   -219.4101409 -0.300048E-07  0.318E-04    1.10      29.3  T
     SCC iter.                  ...        0 min,  0.112 sec
     gradient                   ...        0 min,  0.038 sec
 * total energy  :  -216.2947554 Eh     change       -0.8983182E-03 Eh
   gradient norm :     0.0048118 Eh/α   predicted    -0.8305262E-03 (  -7.55%)
   displ. norm   :     0.8159020 α      lambda       -0.9587542E-03
   maximum displ.:     0.5528208 α      in ANC's #4, #15, #17, ...

........................................................................
.............................. CYCLE   34 ..............................
........................................................................
   1   -219.4161117 -0.219416E+03  0.771E-02    1.10       0.0  T
   2   -219.4161201 -0.839385E-05  0.442E-02    1.10       1.0  T
   3   -219.4160997  0.204295E-04  0.137E-02    1.10       1.0  T
   4   -219.4161236 -0.239413E-04  0.355E-03    1.10       2.6  T
   5   -219.4161242 -0.568691E-06  0.219E-03    1.10       4.3  T
   6   -219.4161245 -0.317953E-06  0.896E-04    1.10      10.4  T
   7   -219.4161245 -0.380881E-07  0.373E-04    1.10      25.0  T
     SCC iter.                  ...        0 min,  0.112 sec
     gradient                   ...        0 min,  0.038 sec
 * total energy  :  -216.2954827 Eh     change       -0.7273169E-03 Eh
   gradient norm :     0.0096931 Eh/α   predicted    -0.7984995E-03 (   9.79%)
   displ. norm   :     0.8399229 α      lambda       -0.1107373E-02
   maximum displ.:     0.5401111 α      in ANC's #4, #15, #13, ...

........................................................................
.............................. CYCLE   35 ..............................
........................................................................
   1   -219.4045634 -0.219405E+03  0.784E-02    1.10       0.0  T
   2   -219.4045697 -0.622192E-05  0.455E-02    1.10       1.0  T
   3   -219.4045610  0.870976E-05  0.973E-03    1.10       1.0  T
   4   -219.4045716 -0.106766E-04  0.322E-03    1.10       2.9  T
   5   -219.4045721 -0.488987E-06  0.156E-03    1.10       6.0  T
   6   -219.4045722 -0.697216E-07  0.787E-04    1.10      11.9  T
   7   -219.4045722 -0.494674E-07  0.281E-04    1.10      33.2  T
     SCC iter.                  ...        0 min,  0.111 sec
     gradient                   ...        0 min,  0.038 sec
 * total energy  :  -216.2961587 Eh     change       -0.6759490E-03 Eh
   gradient norm :     0.0108420 Eh/α   predicted    -0.9443005E-03 (  39.70%)
   displ. norm   :     0.6232909 α      lambda       -0.6464088E-03
   maximum displ.:     0.4366396 α      in ANC's #4, #15, #17, ...

........................................................................
.............................. CYCLE   36 ..............................
........................................................................
   1   -219.4068713 -0.219407E+03  0.512E-02    1.10       0.0  T
   2   -219.4068749 -0.365377E-05  0.295E-02    1.10       1.0  T
   3   -219.4068687  0.619160E-05  0.820E-03    1.10       1.1  T
   4   -219.4068762 -0.751401E-05  0.219E-03    1.10       4.3  T
   5   -219.4068765 -0.213875E-06  0.114E-03    1.10       8.2  T
   6   -219.4068765 -0.536837E-07  0.577E-04    1.10      16.2  T
   7   -219.4068765 -0.203127E-07  0.247E-04    1.10      37.8  T
     SCC iter.                  ...        0 min,  0.111 sec
     gradient                   ...        0 min,  0.038 sec
 * total energy  :  -216.2967039 Eh     change       -0.5452474E-03 Eh
   gradient norm :     0.0085691 Eh/α   predicted    -0.4487668E-03 ( -17.69%)
   displ. norm   :     0.5317191 α      lambda       -0.7451009E-03
   maximum displ.:     0.3851771 α      in ANC's #4, #17, #6, ...

........................................................................
.............................. CYCLE   37 ..............................
........................................................................
   1   -219.4137217 -0.219414E+03  0.488E-02    1.10       0.0  T
   2   -219.4137269 -0.521921E-05  0.282E-02    1.10       1.0  T
   3   -219.4136993  0.275826E-04  0.152E-02    1.10       1.0  T
   4   -219.4137309 -0.316510E-04  0.343E-03    1.10       2.7  T
   5   -219.4137321 -0.111683E-05  0.174E-03    1.10       5.3  T
   6   -219.4137323 -0.205501E-06  0.686E-04    1.10      13.6  T
   7   -219.4137323 -0.171301E-07  0.292E-04    1.10      31.9  T
     SCC iter.                  ...        0 min,  0.111 sec
     gradient                   ...        0 min,  0.038 sec
 * total energy  :  -216.2972389 Eh     change       -0.5349148E-03 Eh
   gradient norm :     0.0066833 Eh/α   predicted    -0.4778840E-03 ( -10.66%)
   displ. norm   :     0.7314473 α      lambda       -0.6756731E-03
   maximum displ.:     0.5145674 α      in ANC's #4, #17, #6, ...

........................................................................
.............................. CYCLE   38 ..............................
........................................................................
   1   -219.4114222 -0.219411E+03  0.624E-02    1.10       0.0  T
   2   -219.4114275 -0.528091E-05  0.361E-02    1.11       1.0  T
   3   -219.4113911  0.363655E-04  0.166E-02    1.10       1.0  T
   4   -219.4114317 -0.405683E-04  0.350E-03    1.11       2.7  T
   5   -219.4114327 -0.102959E-05  0.192E-03    1.11       4.9  T
   6   -219.4114329 -0.256102E-06  0.717E-04    1.11      13.0  T
   7   -219.4114330 -0.197328E-07  0.306E-04    1.11      30.4  T
     SCC iter.                  ...        0 min,  0.112 sec
     gradient                   ...        0 min,  0.038 sec
 * total energy  :  -216.2978198 Eh     change       -0.5809266E-03 Eh
   gradient norm :     0.0056441 Eh/α   predicted    -0.5185865E-03 ( -10.73%)
   displ. norm   :     0.6970069 α      lambda       -0.6116187E-03
   maximum displ.:     0.4949941 α      in ANC's #4, #17, #6, ...

........................................................................
.............................. CYCLE   39 ..............................
........................................................................
   1   -219.4097717 -0.219410E+03  0.627E-02    1.11       0.0  T
   2   -219.4097779 -0.613759E-05  0.363E-02    1.12       1.0  T
   3   -219.4097265  0.513880E-04  0.199E-02    1.11       1.0  T
   4   -219.4097845 -0.580500E-04  0.403E-03    1.12       2.3  T
   5   -219.4097859 -0.141664E-05  0.211E-03    1.12       4.4  T
   6   -219.4097862 -0.285931E-06  0.780E-04    1.12      12.0  T
   7   -219.4097862 -0.184914E-07  0.340E-04    1.12      27.4  T
     SCC iter.                  ...        0 min,  0.118 sec
     gradient                   ...        0 min,  0.038 sec
 * total energy  :  -216.2982605 Eh     change       -0.4407479E-03 Eh
   gradient norm :     0.0076579 Eh/α   predicted    -0.4543811E-03 (   3.09%)
   displ. norm   :     0.6381331 α      lambda       -0.6512526E-03
   maximum displ.:     0.4449350 α      in ANC's #4, #17, #6, ...

........................................................................
.............................. CYCLE   40 ..............................
........................................................................
   1   -219.4093725 -0.219409E+03  0.609E-02    1.12       0.0  T
   2   -219.4093802 -0.768235E-05  0.351E-02    1.13       1.0  T
   3   -219.4093363  0.439178E-04  0.189E-02    1.12       1.0  T
   4   -219.4093861 -0.498117E-04  0.410E-03    1.13       2.3  T
   5   -219.4093877 -0.160596E-05  0.212E-03    1.12       4.4  T
   6   -219.4093880 -0.312576E-06  0.797E-04    1.12      11.7  T
   7   -219.4093880 -0.137465E-07  0.362E-04    1.12      25.8  T
     SCC iter.                  ...        0 min,  0.110 sec
     gradient                   ...        0 min,  0.038 sec
 * total energy  :  -216.2986133 Eh     change       -0.3528139E-03 Eh
   gradient norm :     0.0107995 Eh/α   predicted    -0.4582266E-03 (  29.88%)
   displ. norm   :     0.4483852 α      lambda       -0.5110654E-03
   maximum displ.:     0.3251195 α      in ANC's #4, #6, #12, ...

........................................................................
.............................. CYCLE   41 ..............................
........................................................................
   1   -219.4134058 -0.219413E+03  0.456E-02    1.13       0.0  T
   2   -219.4134110 -0.522795E-05  0.260E-02    1.13       1.0  T
   3   -219.4133910  0.200103E-04  0.131E-02    1.13       1.0  T
   4   -219.4134140 -0.229434E-04  0.302E-03    1.13       3.1  T
   5   -219.4134147 -0.766269E-06  0.166E-03    1.13       5.6  T
   6   -219.4134149 -0.181788E-06  0.711E-04    1.13      13.1  T
   7   -219.4134149 -0.169593E-07  0.285E-04    1.13      32.7  T
     SCC iter.                  ...        0 min,  0.110 sec
     gradient                   ...        0 min,  0.038 sec
 * total energy  :  -216.2988831 Eh     change       -0.2697056E-03 Eh
   gradient norm :     0.0107115 Eh/α   predicted    -0.3069113E-03 (  13.79%)
   displ. norm   :     0.3816246 α      lambda       -0.4877636E-03
   maximum displ.:     0.2903551 α      in ANC's #4, #6, #2, ...

........................................................................
.............................. CYCLE   42 ..............................
........................................................................
   1   -219.4142258 -0.219414E+03  0.361E-02    1.13       0.0  T
   2   -219.4142281 -0.231270E-05  0.209E-02    1.13       1.0  T
   3   -219.4142193  0.887131E-05  0.861E-03    1.13       1.1  T
   4   -219.4142292 -0.999301E-05  0.212E-03    1.13       4.4  T
   5   -219.4142295 -0.283389E-06  0.118E-03    1.13       7.9  T
   6   -219.4142296 -0.845862E-07  0.484E-04    1.13      19.3  T
   7   -219.4142296 -0.101595E-07  0.184E-04    1.13      50.6  T
     SCC iter.                  ...        0 min,  0.110 sec
     gradient                   ...        0 min,  0.038 sec
 * total energy  :  -216.2992097 Eh     change       -0.3266270E-03 Eh
   gradient norm :     0.0054036 Eh/α   predicted    -0.2794023E-03 ( -14.46%)
   displ. norm   :     0.4389882 α      lambda       -0.3305401E-03
   maximum displ.:     0.3317207 α      in ANC's #4, #6, #2, ...
 * RMSD in coord.:     1.0351825 α      energy gain  -0.1153418E-01 Eh

generating ANC from model Hessian ...
Using Lindh-Hessian (1995)
 Shifting diagonal of input Hessian by   1.001205691106950E-002
 Lowest  eigenvalues of input Hessian
    0.010000    0.000000    0.000000    0.000000    0.000000    0.000000
    0.000000    0.010020    0.010049    0.010063    0.010120    0.010154
    0.010254    0.010285    0.010363    0.010449    0.010606    0.010640
 Highest eigenvalues
    2.277195    2.280770    2.598780    2.605882    2.656639    2.658384
 

........................................................................
.............................. CYCLE   43 ..............................
........................................................................
   1   -219.4149864 -0.219415E+03  0.401E-02    1.13       0.0  T
   2   -219.4149884 -0.203920E-05  0.230E-02    1.13       1.0  T
   3   -219.4149731  0.153223E-04  0.106E-02    1.13       1.0  T
   4   -219.4149905 -0.173360E-04  0.194E-03    1.13       4.8  T
   5   -219.4149906 -0.175327E-06  0.118E-03    1.13       7.9  T
   6   -219.4149907 -0.926645E-07  0.414E-04    1.13      22.5  T
   7   -219.4149907 -0.709829E-08  0.177E-04    1.13      52.8  T
     SCC iter.                  ...        0 min,  0.111 sec
     gradient                   ...        0 min,  0.038 sec
 * total energy  :  -216.2994931 Eh     change       -0.2834573E-03 Eh
   gradient norm :     0.0058650 Eh/α   predicted     0.0000000E+00 (-100.00%)
   displ. norm   :     0.0963542 α      lambda       -0.1563117E-03
   maximum displ.:     0.0573237 α      in ANC's #3, #15, #18, ...

........................................................................
.............................. CYCLE   44 ..............................
........................................................................
   1   -219.4150594 -0.219415E+03  0.190E-02    1.13       0.0  T
   2   -219.4150601 -0.682609E-06  0.107E-02    1.13       1.0  T
   3   -219.4150581  0.205727E-05  0.439E-03    1.13       2.1  T
   4   -219.4150605 -0.246243E-05  0.807E-04    1.13      11.6  T
   5   -219.4150606 -0.341904E-07  0.511E-04    1.13      18.2  T
   6   -219.4150606 -0.183718E-07  0.230E-04    1.13      40.6  T
     SCC iter.                  ...        0 min,  0.096 sec
     gradient                   ...        0 min,  0.038 sec
 * total energy  :  -216.2996244 Eh     change       -0.1312390E-03 Eh
   gradient norm :     0.0029302 Eh/α   predicted    -0.7939102E-04 ( -39.51%)
   displ. norm   :     0.3359530 α      lambda       -0.4078055E-03
   maximum displ.:     0.1860914 α      in ANC's #3, #15, #18, ...

........................................................................
.............................. CYCLE   45 ..............................
........................................................................
   1   -219.4142885 -0.219414E+03  0.562E-02    1.12       0.0  T
   2   -219.4142939 -0.538115E-05  0.320E-02    1.12       1.0  T
   3   -219.4142610  0.329458E-04  0.167E-02    1.12       1.0  T
   4   -219.4142992 -0.382380E-04  0.276E-03    1.12       3.4  T
   5   -219.4142997 -0.536512E-06  0.165E-03    1.12       5.6  T
   6   -219.4142999 -0.200827E-06  0.654E-04    1.12      14.3  T
   7   -219.4143000 -0.177852E-07  0.257E-04    1.12      36.3  T
     SCC iter.                  ...        0 min,  0.113 sec
     gradient                   ...        0 min,  0.038 sec
 * total energy  :  -216.2998544 Eh     change       -0.2300558E-03 Eh
   gradient norm :     0.0076624 Eh/α   predicted    -0.2269161E-03 (  -1.36%)
   displ. norm   :     0.3633652 α      lambda       -0.3967604E-03
   maximum displ.:     0.2042308 α      in ANC's #3, #15, #18, ...

........................................................................
.............................. CYCLE   46 ..............................
........................................................................
   1   -219.4128082 -0.219413E+03  0.743E-02    1.12       0.0  T
   2   -219.4128160 -0.787767E-05  0.416E-02    1.12       1.0  T
   3   -219.4127822  0.338383E-04  0.163E-02    1.12       1.0  T
   4   -219.4128220 -0.398241E-04  0.284E-03    1.12       3.3  T
   5   -219.4128225 -0.457531E-06  0.179E-03    1.12       5.2  T
   6   -219.4128227 -0.216859E-06  0.610E-04    1.12      15.3  T
   7   -219.4128227 -0.195619E-07  0.244E-04    1.12      38.3  T
     SCC iter.                  ...        0 min,  0.112 sec
     gradient                   ...        0 min,  0.038 sec
 * total energy  :  -216.3000227 Eh     change       -0.1682624E-03 Eh
   gradient norm :     0.0102326 Eh/α   predicted    -0.2245770E-03 (  33.47%)
   displ. norm   :     0.2165043 α      lambda       -0.3103319E-03
   maximum displ.:     0.1322676 α      in ANC's #3, #15, #18, ...

........................................................................
.............................. CYCLE   47 ..............................
........................................................................
   1   -219.4133154 -0.219413E+03  0.614E-02    1.12       0.0  T
   2   -219.4133206 -0.521556E-05  0.341E-02    1.12       1.0  T
   3   -219.4133154  0.516866E-05  0.736E-03    1.12       1.3  T
   4   -219.4133230 -0.763681E-05  0.168E-03    1.11       5.6  T
   5   -219.4133231 -0.485912E-07  0.110E-03    1.12       8.5  T
   6   -219.4133232 -0.981466E-07  0.329E-04    1.12      28.4  T
   7   -219.4133232 -0.696110E-08  0.143E-04    1.12      65.0  T
     SCC iter.                  ...        0 min,  0.113 sec
     gradient                   ...        0 min,  0.038 sec
 * total energy  :  -216.3002039 Eh     change       -0.1812261E-03 Eh
   gradient norm :     0.0076331 Eh/α   predicted    -0.1624441E-03 ( -10.36%)
   displ. norm   :     0.2354616 α      lambda       -0.3409277E-03
   maximum displ.:     0.1562489 α      in ANC's #3, #15, #11, ...

........................................................................
.............................. CYCLE   48 ..............................
........................................................................
   1   -219.4155895 -0.219416E+03  0.554E-02    1.12       0.0  T
   2   -219.4155941 -0.460065E-05  0.309E-02    1.12       1.0  T
   3   -219.4155897  0.443723E-05  0.668E-03    1.12       1.4  T
   4   -219.4155961 -0.644408E-05  0.178E-03    1.12       5.2  T
   5   -219.4155962 -0.112729E-06  0.105E-03    1.12       8.8  T
   6   -219.4155963 -0.725391E-07  0.405E-04    1.12      23.0  T
   7   -219.4155963 -0.114318E-07  0.149E-04    1.12      62.7  T
     SCC iter.                  ...        0 min,  0.112 sec
     gradient                   ...        0 min,  0.038 sec
 * total energy  :  -216.3003870 Eh     change       -0.1831068E-03 Eh
   gradient norm :     0.0050076 Eh/α   predicted    -0.1799153E-03 (  -1.74%)
   displ. norm   :     0.2750402 α      lambda       -0.2708349E-03
   maximum displ.:     0.1800466 α      in ANC's #3, #15, #13, ...

........................................................................
.............................. CYCLE   49 ..............................
........................................................................
   1   -219.4155322 -0.219416E+03  0.724E-02    1.12       0.0  T
   2   -219.4155394 -0.721473E-05  0.402E-02    1.12       1.0  T
   3   -219.4155307  0.875312E-05  0.964E-03    1.12       1.0  T
   4   -219.4155429 -0.122360E-04  0.202E-03    1.12       4.6  T
   5   -219.4155430 -0.573219E-07  0.138E-03    1.12       6.8  T
   6   -219.4155431 -0.170232E-06  0.376E-04    1.12      24.8  T
   7   -219.4155431 -0.699782E-08  0.169E-04    1.12      55.1  T
     SCC iter.                  ...        0 min,  0.114 sec
     gradient                   ...        0 min,  0.038 sec
 * total energy  :  -216.3004710 Eh     change       -0.8401471E-04 Eh
   gradient norm :     0.0070676 Eh/α   predicted    -0.1456622E-03 (  73.38%)
   displ. norm   :     0.2374431 α      lambda       -0.3096649E-03
   maximum displ.:     0.1534656 α      in ANC's #3, #15, #11, ...

........................................................................
.............................. CYCLE   50 ..............................
........................................................................
   1   -219.4144588 -0.219414E+03  0.692E-02    1.12       0.0  T
   2   -219.4144654 -0.652215E-05  0.383E-02    1.12       1.0  T
   3   -219.4144607  0.462186E-05  0.785E-03    1.12       1.2  T
   4   -219.4144683 -0.756296E-05  0.168E-03    1.12       5.6  T
   5   -219.4144683 -0.209666E-07  0.106E-03    1.12       8.8  T
   6   -219.4144684 -0.971598E-07  0.368E-04    1.12      25.3  T
   7   -219.4144684 -0.105240E-07  0.138E-04    1.12      67.6  T
     SCC iter.                  ...        0 min,  0.112 sec
     gradient                   ...        0 min,  0.038 sec
 * total energy  :  -216.3006199 Eh     change       -0.1488352E-03 Eh
   gradient norm :     0.0064672 Eh/α   predicted    -0.1635621E-03 (   9.89%)
   displ. norm   :     0.1984928 α      lambda       -0.2367304E-03
   maximum displ.:     0.1344559 α      in ANC's #3, #15, #2, ...

........................................................................
.............................. CYCLE   51 ..............................
........................................................................
   1   -219.4151501 -0.219415E+03  0.454E-02    1.12       0.0  T
   2   -219.4151536 -0.345772E-05  0.253E-02    1.12       1.0  T
   3   -219.4151457  0.787456E-05  0.885E-03    1.12       1.1  T
   4   -219.4151555 -0.981333E-05  0.144E-03    1.12       6.5  T
   5   -219.4151556 -0.855792E-07  0.817E-04    1.12      11.4  T
   6   -219.4151556 -0.308140E-07  0.370E-04    1.12      25.2  T
     SCC iter.                  ...        0 min,  0.098 sec
     gradient                   ...        0 min,  0.038 sec
 * total energy  :  -216.3007635 Eh     change       -0.1436458E-03 Eh
   gradient norm :     0.0048532 Eh/α   predicted    -0.1230295E-03 ( -14.35%)
   displ. norm   :     0.2019529 α      lambda       -0.1478472E-03
   maximum displ.:     0.1493496 α      in ANC's #3, #2, #5, ...

........................................................................
.............................. CYCLE   52 ..............................
........................................................................
   1   -219.4160588 -0.219416E+03  0.223E-02    1.12       0.0  T
   2   -219.4160596 -0.803046E-06  0.125E-02    1.12       1.0  T
   3   -219.4160565  0.318896E-05  0.528E-03    1.12       1.8  T
   4   -219.4160601 -0.365236E-05  0.118E-03    1.12       7.9  T
   5   -219.4160602 -0.841833E-07  0.654E-04    1.12      14.3  T
   6   -219.4160602 -0.253518E-07  0.248E-04    1.12      37.6  T
     SCC iter.                  ...        0 min,  0.096 sec
     gradient                   ...        0 min,  0.038 sec
 * total energy  :  -216.3008888 Eh     change       -0.1252982E-03 Eh
   gradient norm :     0.0031066 Eh/α   predicted    -0.7694050E-04 ( -38.59%)
   displ. norm   :     0.2562054 α      lambda       -0.1593979E-03
   maximum displ.:     0.1870924 α      in ANC's #3, #2, #5, ...

........................................................................
.............................. CYCLE   53 ..............................
........................................................................
   1   -219.4161460 -0.219416E+03  0.287E-02    1.12       0.0  T
   2   -219.4161472 -0.120481E-05  0.161E-02    1.12       1.0  T
   3   -219.4161442  0.298723E-05  0.494E-03    1.12       1.9  T
   4   -219.4161477 -0.349902E-05  0.133E-03    1.12       7.0  T
   5   -219.4161478 -0.112285E-06  0.780E-04    1.12      12.0  T
   6   -219.4161478 -0.385962E-07  0.280E-04    1.12      33.3  T
     SCC iter.                  ...        0 min,  0.097 sec
     gradient                   ...        0 min,  0.038 sec
 * total energy  :  -216.3010281 Eh     change       -0.1392736E-03 Eh
   gradient norm :     0.0029393 Eh/α   predicted    -0.8493348E-04 ( -39.02%)
   displ. norm   :     0.2809977 α      lambda       -0.1523077E-03
   maximum displ.:     0.2045513 α      in ANC's #3, #2, #5, ...

........................................................................
.............................. CYCLE   54 ..............................
........................................................................
   1   -219.4163522 -0.219416E+03  0.273E-02    1.12       0.0  T
   2   -219.4163532 -0.103770E-05  0.155E-02    1.12       1.0  T
   3   -219.4163492  0.398960E-05  0.547E-03    1.12       1.7  T
   4   -219.4163538 -0.456815E-05  0.130E-03    1.12       7.2  T
   5   -219.4163539 -0.870141E-07  0.775E-04    1.12      12.0  T
   6   -219.4163539 -0.358716E-07  0.276E-04    1.12      33.8  T
     SCC iter.                  ...        0 min,  0.099 sec
     gradient                   ...        0 min,  0.038 sec
 * total energy  :  -216.3011678 Eh     change       -0.1397116E-03 Eh
   gradient norm :     0.0032691 Eh/α   predicted    -0.8217208E-04 ( -41.18%)
   displ. norm   :     0.2913619 α      lambda       -0.1540989E-03
   maximum displ.:     0.2103337 α      in ANC's #3, #2, #5, ...

........................................................................
.............................. CYCLE   55 ..............................
........................................................................
   1   -219.4162814 -0.219416E+03  0.268E-02    1.12       0.0  T
   2   -219.4162823 -0.897890E-06  0.152E-02    1.13       1.0  T
   3   -219.4162791  0.322035E-05  0.500E-03    1.12       1.9  T
   4   -219.4162828 -0.373530E-05  0.118E-03    1.13       7.9  T
   5   -219.4162828 -0.528626E-07  0.739E-04    1.12      12.6  T
   6   -219.4162829 -0.349621E-07  0.248E-04    1.12      37.6  T
     SCC iter.                  ...        0 min,  0.098 sec
     gradient                   ...        0 min,  0.038 sec
 * total energy  :  -216.3013127 Eh     change       -0.1449382E-03 Eh
   gradient norm :     0.0031050 Eh/α   predicted    -0.8359241E-04 ( -42.33%)
   displ. norm   :     0.3154005 α      lambda       -0.1686983E-03
   maximum displ.:     0.2258461 α      in ANC's #3, #2, #5, ...

........................................................................
.............................. CYCLE   56 ..............................
........................................................................
   1   -219.4166415 -0.219417E+03  0.270E-02    1.12       0.0  T
   2   -219.4166423 -0.844694E-06  0.154E-02    1.13       1.0  T
   3   -219.4166392  0.312591E-05  0.503E-03    1.12       1.9  T
   4   -219.4166428 -0.362835E-05  0.117E-03    1.13       8.0  T
   5   -219.4166429 -0.513460E-07  0.744E-04    1.13      12.5  T
   6   -219.4166429 -0.395552E-07  0.243E-04    1.13      38.5  T
     SCC iter.                  ...        0 min,  0.098 sec
     gradient                   ...        0 min,  0.038 sec
 * total energy  :  -216.3014727 Eh     change       -0.1599598E-03 Eh
   gradient norm :     0.0025955 Eh/α   predicted    -0.9274137E-04 ( -42.02%)
   displ. norm   :     0.3583710 α      lambda       -0.1916992E-03
   maximum displ.:     0.2537611 α      in ANC's #3, #2, #5, ...

........................................................................
.............................. CYCLE   57 ..............................
........................................................................
   1   -219.4166533 -0.219417E+03  0.303E-02    1.13       0.0  T
   2   -219.4166543 -0.105882E-05  0.173E-02    1.13       1.0  T
   3   -219.4166509  0.345774E-05  0.547E-03    1.13       1.7  T
   4   -219.4166550 -0.408655E-05  0.122E-03    1.13       7.6  T
   5   -219.4166550 -0.531205E-07  0.775E-04    1.13      12.0  T
   6   -219.4166551 -0.430975E-07  0.278E-04    1.13      33.6  T
     SCC iter.                  ...        0 min,  0.098 sec
     gradient                   ...        0 min,  0.038 sec
 * total energy  :  -216.3016554 Eh     change       -0.1826876E-03 Eh
   gradient norm :     0.0025355 Eh/α   predicted    -0.1081617E-03 ( -40.79%)
   displ. norm   :     0.4078993 α      lambda       -0.2172941E-03
   maximum displ.:     0.2863760 α      in ANC's #3, #2, #5, ...

........................................................................
.............................. CYCLE   58 ..............................
........................................................................
   1   -219.4171103 -0.219417E+03  0.322E-02    1.13       0.0  T
   2   -219.4171114 -0.115200E-05  0.184E-02    1.13       1.0  T
   3   -219.4171067  0.470419E-05  0.627E-03    1.13       1.5  T
   4   -219.4171122 -0.543390E-05  0.135E-03    1.13       6.9  T
   5   -219.4171123 -0.857741E-07  0.851E-04    1.13      11.0  T
   6   -219.4171123 -0.505747E-07  0.315E-04    1.13      29.6  T
     SCC iter.                  ...        0 min,  0.096 sec
     gradient                   ...        0 min,  0.038 sec
 * total energy  :  -216.3018626 Eh     change       -0.2071617E-03 Eh
   gradient norm :     0.0026695 Eh/α   predicted    -0.1267252E-03 ( -38.83%)
   displ. norm   :     0.4533547 α      lambda       -0.2376657E-03
   maximum displ.:     0.3170234 α      in ANC's #3, #2, #5, ...

........................................................................
.............................. CYCLE   59 ..............................
........................................................................
   1   -219.4168932 -0.219417E+03  0.370E-02    1.13       0.0  T
   2   -219.4168947 -0.155328E-05  0.211E-02    1.13       1.0  T
   3   -219.4168887  0.598907E-05  0.711E-03    1.13       1.3  T
   4   -219.4168958 -0.701245E-05  0.143E-03    1.13       6.5  T
   5   -219.4168958 -0.707055E-07  0.908E-04    1.13      10.3  T
   6   -219.4168959 -0.527921E-07  0.363E-04    1.13      25.7  T
     SCC iter.                  ...        0 min,  0.095 sec
     gradient                   ...        0 min,  0.038 sec
 * total energy  :  -216.3020887 Eh     change       -0.2261082E-03 Eh
   gradient norm :     0.0026644 Eh/α   predicted    -0.1432575E-03 ( -36.64%)
   displ. norm   :     0.4821987 α      lambda       -0.2468911E-03
   maximum displ.:     0.3377495 α      in ANC's #3, #2, #5, ...

........................................................................
.............................. CYCLE   60 ..............................
........................................................................
   1   -219.4174527 -0.219417E+03  0.362E-02    1.13       0.0  T
[...]
   109   1 H        0.925     0.052     2.299     2.371
   110   1 H        0.925     0.058     2.226     2.333
   111   1 H        0.925     0.052     2.295     2.369
   112   1 H        0.925     0.068     2.110     2.272
   113   1 H        0.926     0.076     2.018     2.221
   114   1 H        0.926     0.071     2.069     2.249
   115   1 H        0.926     0.070     2.082     2.256

 Mol. C6AA /au·bohr⁶  :     233978.522412
 Mol. C8AA /au·bohr⁸  :    6459683.960708
 Mol. α(0) /au        :        762.020949


Wiberg/Mayer (AO) data.
largest (>0.10) Wiberg bond orders for each atom

 ---------------------------------------------------------------------------
     #   Z sym  total        # sym  WBO       # sym  WBO       # sym  WBO
 ---------------------------------------------------------------------------
     1   6 C    3.956 --     2 C    1.509    24 C    1.275    81 H    0.949
     2   6 C    3.957 --     1 C    1.509    11 C    1.143     3 C    1.021
     3   6 C    3.931 --     4 O    1.750     2 C    1.021     5 C    1.021
     4   8 O    2.056 --     3 C    1.750
     5   6 C    3.974 --     6 C    1.383    10 C    1.309     3 C    1.021
     6   6 C    3.982 --     7 C    1.442     5 C    1.383    82 H    0.964
     7   6 C    3.957 --     6 C    1.442     8 C    1.328    23 C    0.996
     8   6 C    3.967 --     9 C    1.450     7 C    1.328    17 C    0.997
     9   6 C    3.979 --     8 C    1.450    10 C    1.366    83 H    0.960
    10   6 C    3.980 --     9 C    1.366     5 C    1.309    11 C    1.090
    11   6 C    3.977 --    12 C    1.475     2 C    1.143    10 C    1.090
    12   6 C    3.954 --    11 C    1.475    15 C    1.102    13 C    1.099
    13   6 C    3.946 --    14 N    2.761    12 C    1.099
    14   7 N    2.967 --    13 C    2.761
    15   6 C    3.945 --    16 N    2.763    12 C    1.102
    16   7 N    2.967 --    15 C    2.763
    17   6 C    3.985 --     8 C    0.997    23 C    0.978    84 H    0.960
                            18 C    0.947
    18   6 C    3.990 --    19 C    1.010    22 C    0.985    85 H    0.972
                            17 C    0.947
    19   6 C    3.987 --    20 C    1.924    18 C    1.010    86 H    0.971
    20   6 C    3.987 --    19 C    1.924    21 C    1.010    87 H    0.972
    21   6 C    3.989 --    20 C    1.010    22 C    0.985    88 H    0.972
                            23 C    0.947
    22   6 C    3.993 --    21 C    0.985    18 C    0.985    89 H    0.978
                            90 H    0.977
    23   6 C    3.984 --     7 C    0.996    17 C    0.978    91 H    0.960
                            21 C    0.947
    24   6 C    3.914 --    25 C    1.343     1 C    1.275    56 S    1.049
    25   6 C    3.918 --    24 C    1.343    29 C    1.236    26 O    1.128
    26   8 O    2.317 --    25 C    1.128    27 C    0.956
    27   6 C    3.931 --    28 C    1.010    92 H    0.968    26 O    0.956
                            93 H    0.947
    28   6 C    3.991 --    27 C    1.010    94 H    0.985    96 H    0.983
                            95 H    0.981
    29   6 C    3.928 --    55 C    1.350    25 C    1.236    30 S    1.102
    30  16 S    2.543 --    31 C    1.128    29 C    1.102
    31   6 C    3.924 --    54 C    1.310    32 C    1.259    30 S    1.128
    32   6 C    3.956 --    52 C    1.282    31 C    1.259    33 C    1.173
    33   6 C    3.974 --    37 N    1.428    32 C    1.173    34 C    1.164
                            36 S    0.101
    34   6 C    3.973 --    35 N    1.429    38 C    1.171    33 C    1.164
                            36 S    0.102
    35   7 N    3.074 --    34 C    1.429    36 S    1.392    37 N    0.148
    36  16 S    3.108 --    37 N    1.396    35 N    1.392    34 C    0.102
                            33 C    0.101
    37   7 N    3.078 --    33 C    1.428    36 S    1.396    35 N    0.148
    38   6 C    3.955 --    51 C    1.277    39 C    1.267    34 C    1.171
    39   6 C    3.922 --    49 C    1.303    38 C    1.267    40 S    1.117
    40  16 S    2.537 --    39 C    1.117    41 C    1.084
    41   6 C    3.924 --    48 C    1.324    42 C    1.268    40 S    1.084
    42   6 C    3.914 --    46 C    1.287    41 C    1.268    43 O    1.151
    43   8 O    2.339 --    42 C    1.151    44 C    0.944
    44   6 C    3.924 --    45 C    1.008    98 H    0.968    97 H    0.960
                            43 O    0.944
    45   6 C    3.988 --    44 C    1.008    99 H    0.985   100 H    0.983
                           101 H    0.982
    46   6 C    3.914 --    61 C    1.325    42 C    1.287    47 S    1.059
    47  16 S    2.523 --    48 C    1.127    46 C    1.059
    48   6 C    3.935 --    41 C    1.324    49 C    1.259    47 S    1.127
    49   6 C    3.939 --    39 C    1.303    48 C    1.259    50 N    1.151
    50   7 N    3.543 --    51 C    1.164    49 C    1.151    59 C    0.977
    51   6 C    3.931 --    38 C    1.277    52 C    1.226    50 N    1.164
    52   6 C    3.935 --    32 C    1.282    51 C    1.226    53 N    1.158
    53   7 N    3.536 --    52 C    1.158    54 C    1.149    57 C    0.977
    54   6 C    3.939 --    31 C    1.310    55 C    1.250    53 N    1.149
    55   6 C    3.938 --    29 C    1.350    54 C    1.250    56 S    1.114
    56  16 S    2.501 --    55 C    1.114    24 C    1.049
    57   6 C    3.964 --    58 C    1.006    53 N    0.977   102 H    0.968
                           103 H    0.961
    58   6 C    3.987 --    57 C    1.006   105 H    0.987   106 H    0.982
                           104 H    0.982
    59   6 C    3.962 --    60 C    1.009    50 N    0.977   107 H    0.962
                           108 H    0.955
    60   6 C    3.988 --    59 C    1.009   109 H    0.986   111 H    0.983
                           110 H    0.982
    61   6 C    3.953 --    62 C    1.465    46 C    1.325   112 H    0.945
    62   6 C    3.956 --    61 C    1.465    75 C    1.165    63 C    1.053
    63   6 C    3.930 --    64 O    1.757    62 C    1.053    65 C    1.002
    64   8 O    2.052 --    63 C    1.757
    65   6 C    3.977 --    66 C    1.433    74 C    1.303    63 C    1.002
    66   6 C    3.979 --    65 C    1.433    67 C    1.390   113 H    0.963
    67   6 C    3.961 --    72 C    1.420    66 C    1.390    68 C    0.950
    68   6 C    3.826 --    69 F    0.953    67 C    0.950    71 F    0.947
                            70 F    0.941
    69   9 F    1.076 --    68 C    0.953
    70   9 F    1.070 --    68 C    0.941
    71   9 F    1.072 --    68 C    0.947
    72   6 C    3.979 --    73 C    1.424    67 C    1.420   114 H    0.965
    73   6 C    3.975 --    72 C    1.424    74 C    1.410   115 H    0.959
    74   6 C    3.984 --    73 C    1.410    65 C    1.303    75 C    1.073
    75   6 C    3.976 --    76 C    1.474    62 C    1.165    74 C    1.073
    76   6 C    3.951 --    75 C    1.474    77 C    1.100    79 C    1.099
    77   6 C    3.945 --    78 N    2.762    76 C    1.100
    78   7 N    2.965 --    77 C    2.762
    79   6 C    3.946 --    80 N    2.759    76 C    1.099
    80   7 N    2.963 --    79 C    2.759
    81   1 H    0.994 --     1 C    0.949
    82   1 H    0.996 --     6 C    0.964
    83   1 H    0.996 --     9 C    0.960
    84   1 H    0.997 --    17 C    0.960
    85   1 H    0.998 --    18 C    0.972
    86   1 H    0.999 --    19 C    0.971
    87   1 H    0.999 --    20 C    0.972
    88   1 H    0.999 --    21 C    0.972
    89   1 H    0.998 --    22 C    0.978
    90   1 H    0.996 --    22 C    0.977
    91   1 H    0.996 --    23 C    0.960
    92   1 H    0.995 --    27 C    0.968
    93   1 H    0.998 --    27 C    0.947
    94   1 H    0.997 --    28 C    0.985
    95   1 H    0.997 --    28 C    0.981
    96   1 H    0.997 --    28 C    0.983
    97   1 H    0.996 --    44 C    0.960
    98   1 H    0.994 --    44 C    0.968
    99   1 H    0.997 --    45 C    0.985
   100   1 H    0.997 --    45 C    0.983
   101   1 H    0.996 --    45 C    0.982
   102   1 H    0.994 --    57 C    0.968
   103   1 H    0.995 --    57 C    0.961
   104   1 H    0.996 --    58 C    0.982
   105   1 H    0.998 --    58 C    0.987
   106   1 H    0.996 --    58 C    0.982
   107   1 H    0.994 --    59 C    0.962
   108   1 H    0.995 --    59 C    0.955
   109   1 H    0.997 --    60 C    0.986
   110   1 H    0.996 --    60 C    0.982
   111   1 H    0.997 --    60 C    0.983
   112   1 H    0.992 --    61 C    0.945
   113   1 H    0.994 --    66 C    0.963
   114   1 H    0.994 --    72 C    0.965
   115   1 H    0.994 --    73 C    0.959
 ---------------------------------------------------------------------------

Topologies differ in bond orders
Writing corrected topology to xtbtopo.mol

molecular dipole:
                 x           y           z       tot (Debye)
 q only:        1.721       2.450      -2.104
   full:        1.771       2.369      -2.085       9.198
molecular quadrupole (traceless):
                xx          xy          yy          xz          yz          zz
 q only:       52.382       1.466      32.050       9.408      55.229     -84.432
  q+dip:       64.703      10.940      18.051     -12.297      51.897     -82.755
   full:       65.186      12.178      21.932      -6.964      52.924     -87.118

           -------------------------------------------------
          |                Geometry Summary                 |
           -------------------------------------------------

      molecular mass/u    :     1149.2924721
   center of mass at/Å    :       -0.7352914      -0.1361405       0.6928483
  moments of inertia/u·Å² :        0.9553685E+04   0.9115207E+05   0.9356197E+05
rotational constants/cm⁻¹ :        0.1764516E-02   0.1849397E-03   0.1801761E-03

 * 112 selected distances

     #   Z          #   Z                                           value/Å
     1   6 C        2   6 C                                       1.3699281
     3   6 C        4   8 O                                       1.2136382
     5   6 C        6   6 C                                       1.3922708
     6   6 C        7   6 C                                       1.3745182
     7   6 C        8   6 C                                       1.4013770
     8   6 C        9   6 C                                       1.3747734
     5   6 C       10   6 C                                       1.4104174
     9   6 C       10   6 C                                       1.3971638
    11   6 C       12   6 C                                       1.3715560
    13   6 C       14   7 N                                       1.1485124
    15   6 C       16   7 N                                       1.1481524
     8   6 C       17   6 C                                       1.5080239
    17   6 C       18   6 C                                       1.5486861
    19   6 C       20   6 C                                       1.3263289
    18   6 C       22   6 C                                       1.5371010
    21   6 C       22   6 C                                       1.5370294
     7   6 C       23   6 C                                       1.5078428
    17   6 C       23   6 C                                       1.5613204
    21   6 C       23   6 C                                       1.5489630
     1   6 C       24   6 C                                       1.4086710
    24   6 C       25   6 C                                       1.3993161
    25   6 C       26   8 O                                       1.3338388
    26   8 O       27   6 C                                       1.4145218
    27   6 C       28   6 C                                       1.5238981
    25   6 C       29   6 C                                       1.4133494
    29   6 C       30  16 S                                       1.7440608
    30  16 S       31   6 C                                       1.7293248
    31   6 C       32   6 C                                       1.4066376
    32   6 C       33   6 C                                       1.4132310
    33   6 C       34   6 C                                       1.4377843
    34   6 C       35   7 N                                       1.3236079
    35   7 N       36  16 S                                       1.6186453
    33   6 C       37   7 N                                       1.3234489
    36  16 S       37   7 N                                       1.6169028
    34   6 C       38   6 C                                       1.4138869
    38   6 C       39   6 C                                       1.4030914
    39   6 C       40  16 S                                       1.7243799
    40  16 S       41   6 C                                       1.7596659 (max)
    41   6 C       42   6 C                                       1.4081649
    42   6 C       43   8 O                                       1.3259314
    43   8 O       44   6 C                                       1.4195809
    44   6 C       45   6 C                                       1.5237593
    42   6 C       46   6 C                                       1.4105605
    41   6 C       48   6 C                                       1.4029441
    47  16 S       48   6 C                                       1.7209607
    39   6 C       49   6 C                                       1.3998095
    48   6 C       49   6 C                                       1.3966679
    49   6 C       50   7 N                                       1.3711735
    38   6 C       51   6 C                                       1.4219193
    50   7 N       51   6 C                                       1.3844885
    32   6 C       52   6 C                                       1.4204973
    51   6 C       52   6 C                                       1.4148723
    52   6 C       53   7 N                                       1.3826031
    31   6 C       54   6 C                                       1.4015816
    53   7 N       54   6 C                                       1.3717968
    29   6 C       55   6 C                                       1.3947234
    54   6 C       55   6 C                                       1.3981520
    55   6 C       56  16 S                                       1.7243551
    53   7 N       57   6 C                                       1.4475822
    57   6 C       58   6 C                                       1.5279565
    50   7 N       59   6 C                                       1.4511859
    59   6 C       60   6 C                                       1.5247789
    46   6 C       61   6 C                                       1.3975422
    61   6 C       62   6 C                                       1.3762518
    63   6 C       64   8 O                                       1.2128153
    65   6 C       66   6 C                                       1.3779808
    66   6 C       67   6 C                                       1.3930732
    68   6 C       69   9 F                                       1.3395682
    68   6 C       70   9 F                                       1.3471397
    68   6 C       71   9 F                                       1.3435410
    67   6 C       72   6 C                                       1.3892305
    72   6 C       73   6 C                                       1.3884512
    65   6 C       74   6 C                                       1.4048382
    73   6 C       74   6 C                                       1.3854728
    75   6 C       76   6 C                                       1.3724450
    77   6 C       78   7 N                                       1.1481771
    79   6 C       80   7 N                                       1.1487362
     1   6 C       81   1 H                                       1.0843630
     6   6 C       82   1 H                                       1.0787799
     9   6 C       83   1 H                                       1.0776652
    17   6 C       84   1 H                                       1.0881369
    18   6 C       85   1 H                                       1.0865840
    19   6 C       86   1 H                                       1.0743224 (min)
    20   6 C       87   1 H                                       1.0743837
    21   6 C       88   1 H                                       1.0868554
    22   6 C       89   1 H                                       1.0891711
    22   6 C       90   1 H                                       1.0889047
    23   6 C       91   1 H                                       1.0883485
    27   6 C       92   1 H                                       1.0933685
    27   6 C       93   1 H                                       1.0975765
    28   6 C       94   1 H                                       1.0874627
    28   6 C       95   1 H                                       1.0876507
    28   6 C       96   1 H                                       1.0860785
    44   6 C       97   1 H                                       1.0938998
    44   6 C       98   1 H                                       1.0929840
    45   6 C       99   1 H                                       1.0873631
    45   6 C      100   1 H                                       1.0870854
    45   6 C      101   1 H                                       1.0856623
    57   6 C      102   1 H                                       1.0944248
    57   6 C      103   1 H                                       1.0869193
    58   6 C      104   1 H                                       1.0856209
    58   6 C      105   1 H                                       1.0879233
    58   6 C      106   1 H                                       1.0864382
    59   6 C      107   1 H                                       1.0925149
    59   6 C      108   1 H                                       1.0915937
    60   6 C      109   1 H                                       1.0875746
    60   6 C      110   1 H                                       1.0862105
    60   6 C      111   1 H                                       1.0864750
    61   6 C      112   1 H                                       1.0840895
    66   6 C      113   1 H                                       1.0791906
    72   6 C      114   1 H                                       1.0791348
    73   6 C      115   1 H                                       1.0774423

 * 7 distinct bonds (by element types)

   Z      Z             #   av. dist./Å        max./Å        min./Å
   1 H    6 C          35     1.0863485     1.0975765     1.0743224
   6 C    6 C          48     1.4274758     1.5613204     1.3263289
   6 C    7 N          12     1.3041221     1.4511859     1.1481524
   6 C    8 O           6     1.3200544     1.4195809     1.2128153
   6 C    9 F           3     1.3434163     1.3471397     1.3395682
   6 C   16 S           6     1.7337912     1.7596659     1.7209607
   7 N   16 S           2     1.6177740     1.6186453     1.6169028


optimized geometry written to: xtbopt.mol


           -------------------------------------------------
          | TOTAL ENERGY             -216.311029095591 Eh   |
          | GRADIENT NORM               0.000729622085 Eh/α |
          | HOMO-LUMO GAP               1.157016108417 eV   |
           -------------------------------------------------

------------------------------------------------------------------------
 * finished run on 2022/02/11 at 05:19:08.777     
------------------------------------------------------------------------
 total:
 * wall-time:     0 d,  0 h,  0 min, 22.152 sec
 *  cpu-time:     0 d,  0 h,  2 min, 57.115 sec
 * ratio c/w:     7.995 speedup
 SCF:
 * wall-time:     0 d,  0 h,  0 min,  0.290 sec
 *  cpu-time:     0 d,  0 h,  0 min,  2.306 sec
 * ratio c/w:     7.963 speedup
 ANC optimizer:
 * wall-time:     0 d,  0 h,  0 min, 21.799 sec
 *  cpu-time:     0 d,  0 h,  2 min, 54.375 sec
 * ratio c/w:     7.999 speedup

