      -----------------------------------------------------------      
     |                   =====================                   |     
     |                           x T B                           |     
     |                   =====================                   |     
     |                         S. Grimme                         |     
     |          Mulliken Center for Theoretical Chemistry        |     
     |                    University of Bonn                     |     
      -----------------------------------------------------------      

   * xtb version 6.4.1 (unknown) compiled by 'oda6@login1.crc.pitt.edu' on 2021-06-25

   xtb is free software: you can redistribute it and/or modify it under
   the terms of the GNU Lesser General Public License as published by
   the Free Software Foundation, either version 3 of the License, or
   (at your option) any later version.
   
   xtb is distributed in the hope that it will be useful,
   but WITHOUT ANY WARRANTY; without even the implied warranty of
   MERCHANTABILITY or FITNESS FOR A PARTICULAR PURPOSE.  See the
   GNU Lesser General Public License for more details.
   
   Cite this work as:
   * C. Bannwarth, E. Caldeweyher, S. Ehlert, A. Hansen, P. Pracht,
     J. Seibert, S. Spicher, S. Grimme, WIREs Comput. Mol. Sci., 2020, 11,
     e01493. DOI: 10.1002/wcms.1493
   
   for GFN2-xTB:
   * C. Bannwarth, S. Ehlert and S. Grimme., J. Chem. Theory Comput., 2019,
     15, 1652-1671. DOI: 10.1021/acs.jctc.8b01176
   for GFN1-xTB:
   * S. Grimme, C. Bannwarth, P. Shushkov, J. Chem. Theory Comput., 2017,
     13, 1989-2009. DOI: 10.1021/acs.jctc.7b00118
   for GFN0-xTB:
   * P. Pracht, E. Caldeweyher, S. Ehlert, S. Grimme, ChemRxiv, 2019, preprint.
     DOI: 10.26434/chemrxiv.8326202.v1
   for GFN-FF:
   * S. Spicher and S. Grimme, Angew. Chem. Int. Ed., 2020, 59, 15665-15673.
     DOI: 10.1002/anie.202004239
   
   for DFT-D4:
   * E. Caldeweyher, C. Bannwarth and S. Grimme, J. Chem. Phys., 2017,
     147, 034112. DOI: 10.1063/1.4993215
   * E. Caldeweyher, S. Ehlert, A. Hansen, H. Neugebauer, S. Spicher,
     C. Bannwarth and S. Grimme, J. Chem. Phys., 2019, 150, 154122.
     DOI: 10.1063/1.5090222
   * E. Caldeweyher, J.-M. Mewes, S. Ehlert and S. Grimme, Phys. Chem. Chem. Phys.
     2020, 22, 8499-8512. DOI: 10.1039/D0CP00502A
   
   for sTDA-xTB:
   * S. Grimme and C. Bannwarth, J. Chem. Phys., 2016, 145, 054103.
     DOI: 10.1063/1.4959605
   
   in the mass-spec context:
   * V. Asgeirsson, C. Bauer and S. Grimme, Chem. Sci., 2017, 8, 4879.
     DOI: 10.1039/c7sc00601b
   * J. Koopman and S. Grimme, ACS Omega 2019, 4, 12, 15120-15133.
     DOI: 10.1021/acsomega.9b02011
   
   for metadynamics refer to:
   * S. Grimme, J. Chem. Theory Comput., 2019, 155, 2847-2862
     DOI: 10.1021/acs.jctc.9b00143
   
   for SPH calculations refer to:
   * S. Spicher and S. Grimme, J. Chem. Theory Comput., 2021, 17, 1701-1714
     DOI: 10.1021/acs.jctc.0c01306
   
   with help from (in alphabetical order)
   P. Atkinson, C. Bannwarth, F. Bohle, G. Brandenburg, E. Caldeweyher
   M. Checinski, S. Dohm, S. Ehlert, S. Ehrlich, I. Gerasimov, J. Koopman
   C. Lavigne, S. Lehtola, F. März, M. Müller, F. Musil, H. Neugebauer
   J. Pisarek, C. Plett, P. Pracht, J. Seibert, P. Shushkov, S. Spicher
   M. Stahn, M. Steiner, T. Strunk, J. Stückrath, T. Rose, and J. Unsleber
   
 * started run on 2022/02/02 at 10:53:31.063     

           -------------------------------------------------
          |                Calculation Setup                |
           -------------------------------------------------

          program call               : /ihome/ghutchison/oda6/xtb/xtb-641/bin/xtb ../../FF_optimized/53_126_65.mol -opt
          hostname                   : smp-n98
          coordinate file            : ../../FF_optimized/53_126_65.mol
          omp threads                :                     8
          number of atoms            :                    91
          number of electrons        :                   338
          charge                     :                     0
          spin                       :                   0.0
          first test random number   :      0.33882418824362

   ID    Z sym.   atoms
    1    6 C      1, 2, 4-6, 8, 11-18, 20-22, 24-27, 31-33, 35-38, 40, 41,
                  43-46, 48, 49, 51-53, 55, 56, 58, 60, 62, 64-67, 69
    2   16 S      3, 23, 29, 47
    3    7 N      7, 9, 10, 28, 30, 34, 39, 68, 70
    4    8 O      19, 54
    5   34 Se     42, 50
    6   17 Cl     57, 59, 61, 63
    7    1 H      71-91

molecular fragmentation (1/2 indicates fragments):
111111111111111111111111111111111111111111111111111111111111111111111111
1111112111111111111
# atoms in fragment 1/2:    90     1
 fragment masses (1/2) :     1194.73        1.01
CMA distance (Bohr)    :  14.283
constraining FC (au)   :  0.0500
########################################################################
[WARNING] Please study the warnings concerning your input carefully
-1- prog_main_parseArguments: the use of '-opt' is discouraged, please use '--opt' next time
########################################################################

           -------------------------------------------------
          |                 G F N 2 - x T B                 |
           -------------------------------------------------

        Reference                      10.1021/acs.jctc.8b01176
      * Hamiltonian:
        H0-scaling (s, p, d)           1.850000    2.230000    2.230000
        zeta-weighting                 0.500000
      * Dispersion:
        s8                             2.700000
        a1                             0.520000
        a2                             5.000000
        s9                             5.000000
      * Repulsion:
        kExp                           1.500000    1.000000
        rExp                           1.000000
      * Coulomb:
        alpha                          2.000000
        third order                    shell-resolved
        anisotropic                    true
        a3                             3.000000
        a5                             4.000000
        cn-shift                       1.200000
        cn-exp                         4.000000
        max-rad                        5.000000


          ...................................................
          :                      SETUP                      :
          :.................................................:
          :  # basis functions                 361          :
          :  # atomic orbitals                 351          :
          :  # shells                          171          :
          :  # electrons                       338          :
          :  max. iterations                   250          :
          :  Hamiltonian                  GFN2-xTB          :
          :  restarted?                      false          :
          :  GBSA solvation                  false          :
          :  PC potential                    false          :
          :  electronic temp.          300.0000000     K    :
          :  accuracy                    1.0000000          :
          :  -> integral cutoff          0.2500000E+02      :
          :  -> integral neglect         0.1000000E-07      :
          :  -> SCF convergence          0.1000000E-05 Eh   :
          :  -> wf. convergence          0.1000000E-03 e    :
          :  Broyden damping             0.4000000          :
          ...................................................

 iter      E             dE          RMSdq      gap      omega  full diag
   1   -189.2442856 -0.189244E+03  0.583E+00    1.08       0.0  T
   2   -189.2704622 -0.261767E-01  0.381E+00    0.38       1.0  T
   3   -188.7710405  0.499422E+00  0.356E+00    0.48       1.0  T
   4   -189.3511167 -0.580076E+00  0.198E+00    0.67       1.0  T
   5   -189.7259031 -0.374786E+00  0.597E-01    0.26       1.0  T
   6   -189.7409142 -0.150111E-01  0.343E-01    0.48       1.0  T
   7   -189.7451384 -0.422422E-02  0.229E-01    0.39       1.0  T
   8   -189.7469608 -0.182233E-02  0.135E-01    0.39       1.0  T
   9   -189.7479289 -0.968180E-03  0.706E-02    0.41       1.0  T
  10   -189.7482032 -0.274293E-03  0.402E-02    0.41       1.0  T
  11   -189.7482458 -0.426249E-04  0.254E-02    0.41       1.0  T
  12   -189.7482566 -0.107611E-04  0.163E-02    0.41       1.0  T
  13   -189.7482671 -0.105272E-04  0.105E-02    0.41       1.0  T
  14   -189.7482707 -0.352338E-05  0.644E-03    0.41       1.6  T
  15   -189.7482720 -0.132345E-05  0.340E-03    0.41       3.1  T
  16   -189.7482723 -0.308184E-06  0.206E-03    0.41       5.1  T
  17   -189.7482724 -0.110925E-06  0.132E-03    0.41       7.9  T
  18   -189.7482724 -0.270522E-07  0.962E-04    0.41      10.9  T
  19   -189.7482725 -0.361404E-07  0.597E-04    0.41      17.6  T

   *** convergence criteria satisfied after 19 iterations ***

         #    Occupation            Energy/Eh            Energy/eV
      -------------------------------------------------------------
         1        2.0000           -1.0942316             -29.7756
       ...           ...                  ...                  ...
       163        2.0000           -0.4152305             -11.2990
       164        2.0000           -0.4143293             -11.2745
       165        2.0000           -0.4102810             -11.1643
       166        2.0000           -0.3990141             -10.8577
       167        2.0000           -0.3874322             -10.5426
       168        2.0000           -0.3847855             -10.4705
       169        1.9993           -0.3773021             -10.2669 (HOMO)
       170        0.0007           -0.3621226              -9.8539 (LUMO)
       171        0.0000           -0.3555447              -9.6749
       172                         -0.3533116              -9.6141
       173                         -0.3136385              -8.5345
       174                         -0.3082214              -8.3871
       ...                                ...                  ...
       351                          1.1520014              31.3476
      -------------------------------------------------------------
                  HL-Gap            0.0151796 Eh            0.4131 eV
             Fermi-level           -0.3697127 Eh          -10.0604 eV

 SCC (total)                   0 d,  0 h,  0 min,  0.324 sec
 SCC setup                      ...        0 min,  0.001 sec (  0.176%)
 Dispersion                     ...        0 min,  0.003 sec (  0.939%)
 classical contributions        ...        0 min,  0.000 sec (  0.030%)
 integral evaluation            ...        0 min,  0.021 sec (  6.386%)
 iterations                     ...        0 min,  0.268 sec ( 82.765%)
 molecular gradient             ...        0 min,  0.030 sec (  9.364%)
 printout                       ...        0 min,  0.001 sec (  0.313%)

         :::::::::::::::::::::::::::::::::::::::::::::::::::::
         ::                     SUMMARY                     ::
         :::::::::::::::::::::::::::::::::::::::::::::::::::::
         :: total energy            -187.004277929942 Eh    ::
         :: gradient norm              0.792952365705 Eh/a0 ::
         :: HOMO-LUMO gap              0.413056778539 eV    ::
         ::.................................................::
         :: SCC energy              -189.748272466129 Eh    ::
         :: -> isotropic ES            0.136663439530 Eh    ::
         :: -> anisotropic ES          0.011343846557 Eh    ::
         :: -> anisotropic XC          0.116173216222 Eh    ::
         :: -> dispersion             -0.165994941583 Eh    ::
         :: repulsion energy           2.743387355188 Eh    ::
         :: add. restraining           0.000000000000 Eh    ::
         :: total charge              -0.000000000000 e     ::
         :::::::::::::::::::::::::::::::::::::::::::::::::::::

      ----------------------------------------------------------- 
     |                   =====================                   |
     |                        A N C O P T                        |
     |                   =====================                   |
     |               Approximate Normal Coordinate               |
     |                Rational Function Optimizer                |
      ----------------------------------------------------------- 

          ...................................................
          :                      SETUP                      :
          :.................................................:
          :   optimization level            normal          :
          :   max. optcycles                   273          :
          :   ANC micro-cycles                  20          :
          :   degrees of freedom               267          :
          :.................................................:
          :   RF solver                   davidson          :
          :   write xtbopt.log                true          :
          :   linear?                        false          :
          :   energy convergence         0.5000000E-05 Eh   :
          :   grad. convergence          0.1000000E-02 Eh/α :
          :   maximium RF displ.         1.0000000          :
          :   Hlow (freq-cutoff)         0.1000000E-01      :
          :   Hmax (freq-cutoff)         5.0000000          :
          :   S6 in model hess.         20.0000000          :
          ...................................................

generating ANC from model Hessian ...
Using Lindh-Hessian (1995)
 Shifting diagonal of input Hessian by   1.007376932054822E-002
 Lowest  eigenvalues of input Hessian
    0.010000    0.000000    0.000000    0.000000    0.000000    0.000000
    0.000000    0.010090    0.010117    0.010139    0.010174    0.010219
    0.010261    0.010514    0.010557    0.010747    0.011007    0.011059
 Highest eigenvalues
    2.422623    2.437629    2.448834    2.528478    2.565894    2.693803
 

........................................................................
.............................. CYCLE    1 ..............................
........................................................................
   1   -189.7482725 -0.189748E+03  0.438E-04    0.41       0.0  T
   2   -189.7482725  0.681504E-08  0.461E-04    0.41      22.8  T
   3   -189.7482725 -0.123909E-07  0.355E-04    0.41      29.6  T
     SCC iter.                  ...        0 min,  0.046 sec
     gradient                   ...        0 min,  0.029 sec
 * total energy  :  -187.0042779 Eh     change       -0.1557862E-07 Eh
   gradient norm :     0.7929593 Eh/α   predicted     0.0000000E+00 (-100.00%)
   displ. norm   :     0.5483284 α      lambda       -0.3832158E+00
   maximum displ.:     0.1365448 α      in ANC's #158, #227, #198, ...

........................................................................
.............................. CYCLE    2 ..............................
........................................................................
   1   -189.9683786 -0.189968E+03  0.664E-01    0.52       0.0  T
   2   -189.9725603 -0.418170E-02  0.397E-01    0.57       1.0  T
   3   -189.9714731  0.108725E-02  0.206E-01    0.55       1.0  T
   4   -189.9730399 -0.156683E-02  0.102E-01    0.54       1.0  T
   5   -189.9737086 -0.668690E-03  0.473E-02    0.57       1.0  T
   6   -189.9737893 -0.806674E-04  0.265E-02    0.55       1.0  T
   7   -189.9738305 -0.412430E-04  0.111E-02    0.56       1.0  T
   8   -189.9738371 -0.656375E-05  0.559E-03    0.56       1.9  T
   9   -189.9738378 -0.727481E-06  0.395E-03    0.56       2.7  T
  10   -189.9738380 -0.167560E-06  0.285E-03    0.56       3.7  T
  11   -189.9738383 -0.345966E-06  0.150E-03    0.56       7.0  T
  12   -189.9738384 -0.101725E-06  0.900E-04    0.56      11.7  T
  13   -189.9738384 -0.176725E-07  0.577E-04    0.56      18.2  T
     SCC iter.                  ...        0 min,  0.175 sec
     gradient                   ...        0 min,  0.029 sec
 * total energy  :  -187.3049645 Eh     change       -0.3006866E+00 Eh
   gradient norm :     0.4038027 Eh/α   predicted    -0.2492390E+00 ( -17.11%)
   displ. norm   :     0.5642053 α      lambda       -0.1992487E+00
   maximum displ.:     0.1473200 α      in ANC's #158, #191, #164, ...

........................................................................
.............................. CYCLE    3 ..............................
........................................................................
   1   -190.1446990 -0.190145E+03  0.626E-01    0.60       0.0  T
   2   -190.1487181 -0.401911E-02  0.358E-01    0.59       1.0  T
   3   -190.1481361  0.581917E-03  0.176E-01    0.59       1.0  T
   4   -190.1489184 -0.782225E-03  0.881E-02    0.58       1.0  T
   5   -190.1493984 -0.479995E-03  0.481E-02    0.58       1.0  T
   6   -190.1495353 -0.136935E-03  0.242E-02    0.59       1.0  T
   7   -190.1495678 -0.324957E-04  0.962E-03    0.58       1.1  T
   8   -190.1495711 -0.328818E-05  0.608E-03    0.59       1.7  T
   9   -190.1495718 -0.721293E-06  0.454E-03    0.58       2.3  T
  10   -190.1495724 -0.550837E-06  0.268E-03    0.58       3.9  T
  11   -190.1495726 -0.231755E-06  0.159E-03    0.58       6.6  T
  12   -190.1495726 -0.603094E-07  0.114E-03    0.58       9.2  T
  13   -190.1495727 -0.455199E-07  0.743E-04    0.58      14.1  T
  14   -190.1495727 -0.231939E-07  0.484E-04    0.58      21.6  T
     SCC iter.                  ...        0 min,  0.189 sec
     gradient                   ...        0 min,  0.029 sec
 * total energy  :  -187.3985325 Eh     change       -0.9356792E-01 Eh
   gradient norm :     0.4266614 Eh/α   predicted    -0.1313375E+00 (  40.37%)
   displ. norm   :     0.4725660 α      lambda       -0.1064188E+00
   maximum displ.:     0.1120390 α      in ANC's #115, #227, #59, ...

........................................................................
.............................. CYCLE    4 ..............................
........................................................................
   1   -190.0290039 -0.190029E+03  0.436E-01    0.48       0.0  T
   2   -190.0304997 -0.149585E-02  0.249E-01    0.47       1.0  T
   3   -190.0295626  0.937184E-03  0.119E-01    0.56       1.0  T
   4   -190.0302304 -0.667805E-03  0.714E-02    0.45       1.0  T
   5   -190.0307411 -0.510778E-03  0.318E-02    0.50       1.0  T
   6   -190.0308195 -0.783417E-04  0.141E-02    0.49       1.0  T
   7   -190.0308259 -0.637810E-05  0.736E-03    0.49       1.4  T
   8   -190.0308275 -0.164001E-05  0.513E-03    0.49       2.0  T
   9   -190.0308281 -0.566400E-06  0.375E-03    0.49       2.8  T
  10   -190.0308286 -0.481936E-06  0.253E-03    0.49       4.1  T
  11   -190.0308287 -0.133612E-06  0.185E-03    0.49       5.7  T
  12   -190.0308289 -0.173936E-06  0.124E-03    0.49       8.5  T
  13   -190.0308289 -0.585363E-07  0.772E-04    0.49      13.6  T
  14   -190.0308289 -0.286032E-07  0.422E-04    0.49      24.8  T
     SCC iter.                  ...        0 min,  0.198 sec
     gradient                   ...        0 min,  0.030 sec
 * total energy  :  -187.4466946 Eh     change       -0.4816209E-01 Eh
   gradient norm :     0.1356576 Eh/α   predicted    -0.6509221E-01 (  35.15%)
   displ. norm   :     0.5303773 α      lambda       -0.2841293E-01
   maximum displ.:     0.2020240 α      in ANC's #30, #21, #58, ...

........................................................................
.............................. CYCLE    5 ..............................
........................................................................
   1   -190.0275370 -0.190028E+03  0.385E-01    0.45       0.0  T
   2   -190.0277808 -0.243771E-03  0.215E-01    0.49       1.0  T
   3   -190.0259093  0.187153E-02  0.121E-01    0.41       1.0  T
   4   -190.0277134 -0.180415E-02  0.457E-02    0.51       1.0  T
   5   -190.0279793 -0.265904E-03  0.206E-02    0.47       1.0  T
   6   -190.0280035 -0.242040E-04  0.107E-02    0.48       1.0  T
   7   -190.0280057 -0.220143E-05  0.817E-03    0.48       1.3  T
   8   -190.0280076 -0.189444E-05  0.598E-03    0.48       1.8  T
   9   -190.0280087 -0.110903E-05  0.421E-03    0.48       2.5  T
  10   -190.0280093 -0.600097E-06  0.272E-03    0.48       3.9  T
  11   -190.0280096 -0.258084E-06  0.176E-03    0.47       6.0  T
  12   -190.0280098 -0.203472E-06  0.104E-03    0.48      10.0  T
  13   -190.0280098 -0.426280E-07  0.669E-04    0.48      15.7  T
  14   -190.0280099 -0.143864E-07  0.407E-04    0.48      25.8  T
     SCC iter.                  ...        0 min,  0.193 sec
     gradient                   ...        0 min,  0.029 sec
 * total energy  :  -187.4628470 Eh     change       -0.1615246E-01 Eh
   gradient norm :     0.0852613 Eh/α   predicted    -0.1820279E-01 (  12.69%)
   displ. norm   :     0.6017187 α      lambda       -0.1967297E-01
   maximum displ.:     0.2116208 α      in ANC's #15, #47, #40, ...

........................................................................
.............................. CYCLE    6 ..............................
........................................................................
   1   -190.0717052 -0.190072E+03  0.371E-01    0.51       0.0  T
   2   -190.0719188 -0.213584E-03  0.212E-01    0.50       1.0  T
   3   -190.0698587  0.206011E-02  0.157E-01    0.55       1.0  T
   4   -190.0720294 -0.217065E-02  0.440E-02    0.50       1.0  T
   5   -190.0721801 -0.150743E-03  0.234E-02    0.52       1.0  T
   6   -190.0722192 -0.390733E-04  0.111E-02    0.51       1.0  T
   7   -190.0722234 -0.427257E-05  0.789E-03    0.51       1.3  T
   8   -190.0722258 -0.236431E-05  0.558E-03    0.51       1.9  T
   9   -190.0722263 -0.521505E-06  0.418E-03    0.51       2.5  T
  10   -190.0722272 -0.904751E-06  0.264E-03    0.51       4.0  T
  11   -190.0722276 -0.315533E-06  0.170E-03    0.51       6.2  T
  12   -190.0722277 -0.122787E-06  0.102E-03    0.51      10.3  T
  13   -190.0722277 -0.283340E-07  0.718E-04    0.51      14.6  T
  14   -190.0722277 -0.176647E-07  0.489E-04    0.51      21.4  T
     SCC iter.                  ...        0 min,  0.191 sec
     gradient                   ...        0 min,  0.029 sec
 * total energy  :  -187.4713801 Eh     change       -0.8533073E-02 Eh
   gradient norm :     0.0901526 Eh/α   predicted    -0.1339798E-01 (  57.01%)
   displ. norm   :     0.5194598 α      lambda       -0.1191282E-01
   maximum displ.:     0.2413564 α      in ANC's #30, #38, #21, ...

........................................................................
.............................. CYCLE    7 ..............................
........................................................................
   1   -190.0645304 -0.190065E+03  0.374E-01    0.59       0.0  T
   2   -190.0646407 -0.110285E-03  0.210E-01    0.57       1.0  T
   3   -190.0624235  0.221722E-02  0.190E-01    0.62       1.0  T
   4   -190.0650627 -0.263925E-02  0.247E-02    0.59       1.0  T
   5   -190.0651096 -0.468452E-04  0.136E-02    0.58       1.0  T
   6   -190.0651188 -0.920496E-05  0.676E-03    0.58       1.6  T
   7   -190.0651209 -0.207916E-05  0.338E-03    0.58       3.1  T
   8   -190.0651212 -0.373663E-06  0.229E-03    0.58       4.6  T
   9   -190.0651213 -0.939841E-07  0.179E-03    0.58       5.9  T
  10   -190.0651214 -0.926510E-07  0.126E-03    0.58       8.3  T
  11   -190.0651215 -0.886378E-07  0.745E-04    0.58      14.1  T
  12   -190.0651215 -0.165261E-07  0.483E-04    0.58      21.7  T
     SCC iter.                  ...        0 min,  0.164 sec
     gradient                   ...        0 min,  0.029 sec
 * total energy  :  -187.4725379 Eh     change       -0.1157845E-02 Eh
   gradient norm :     0.1309866 Eh/α   predicted    -0.7563682E-02 ( 553.26%)
   displ. norm   :     0.4581617 α      lambda       -0.1808767E-01
   maximum displ.:     0.1888307 α      in ANC's #18, #13, #12, ...

........................................................................
.............................. CYCLE    8 ..............................
........................................................................
   1   -190.1015762 -0.190102E+03  0.391E-01    0.57       0.0  T
   2   -190.1017193 -0.143125E-03  0.219E-01    0.63       1.0  T
   3   -190.0978441  0.387515E-02  0.185E-01    0.50       1.0  T
   4   -190.1020988 -0.425469E-02  0.284E-02    0.62       1.0  T
   5   -190.1021738 -0.749683E-04  0.153E-02    0.60       1.0  T
   6   -190.1021903 -0.165134E-04  0.752E-03    0.60       1.4  T
   7   -190.1021912 -0.872034E-06  0.478E-03    0.60       2.2  T
   8   -190.1021924 -0.116882E-05  0.306E-03    0.60       3.4  T
   9   -190.1021926 -0.201254E-06  0.217E-03    0.60       4.8  T
  10   -190.1021927 -0.133465E-06  0.128E-03    0.60       8.2  T
  11   -190.1021927 -0.599495E-07  0.839E-04    0.60      12.5  T
  12   -190.1021928 -0.224528E-07  0.543E-04    0.60      19.3  T
     SCC iter.                  ...        0 min,  0.166 sec
     gradient                   ...        0 min,  0.029 sec
 * total energy  :  -187.4807278 Eh     change       -0.8189868E-02 Eh
   gradient norm :     0.0470296 Eh/α   predicted    -0.1094225E-01 (  33.61%)
   displ. norm   :     0.4696276 α      lambda       -0.6001801E-02
   maximum displ.:     0.1724962 α      in ANC's #13, #30, #21, ...

........................................................................
.............................. CYCLE    9 ..............................
........................................................................
   1   -190.0950703 -0.190095E+03  0.226E-01    0.61       0.0  T
   2   -190.0950392  0.311900E-04  0.133E-01    0.66       1.0  T
   3   -190.0927837  0.225542E-02  0.120E-01    0.55       1.0  T
   4   -190.0952147 -0.243097E-02  0.128E-02    0.64       1.0  T
   5   -190.0952259 -0.111623E-04  0.782E-03    0.64       1.3  T
   6   -190.0952288 -0.291266E-05  0.282E-03    0.64       3.7  T
   7   -190.0952290 -0.177231E-06  0.166E-03    0.64       6.3  T
   8   -190.0952291 -0.111738E-06  0.997E-04    0.64      10.5  T
   9   -190.0952291 -0.254223E-07  0.690E-04    0.64      15.2  T
     SCC iter.                  ...        0 min,  0.125 sec
     gradient                   ...        0 min,  0.029 sec
 * total energy  :  -187.4847495 Eh     change       -0.4021665E-02 Eh
   gradient norm :     0.0340259 Eh/α   predicted    -0.3662755E-02 (  -8.92%)
   displ. norm   :     0.6770860 α      lambda       -0.5386526E-02
   maximum displ.:     0.2405248 α      in ANC's #30, #13, #21, ...

........................................................................
.............................. CYCLE   10 ..............................
........................................................................
   1   -190.0950399 -0.190095E+03  0.283E-01    0.64       0.0  T
   2   -190.0949420  0.979111E-04  0.167E-01    0.70       1.0  T
   3   -190.0909600  0.398199E-02  0.161E-01    0.57       1.0  T
   4   -190.0952745 -0.431450E-02  0.151E-02    0.69       1.0  T
   5   -190.0952854 -0.108556E-04  0.973E-03    0.67       1.1  T
   6   -190.0952903 -0.497182E-05  0.341E-03    0.67       3.1  T
   7   -190.0952908 -0.429514E-06  0.217E-03    0.67       4.8  T
   8   -190.0952910 -0.261939E-06  0.122E-03    0.68       8.6  T
   9   -190.0952911 -0.666536E-07  0.851E-04    0.67      12.3  T
  10   -190.0952911 -0.156751E-07  0.660E-04    0.67      15.9  T
     SCC iter.                  ...        0 min,  0.137 sec
     gradient                   ...        0 min,  0.029 sec
 * total energy  :  -187.4888558 Eh     change       -0.4106315E-02 Eh
   gradient norm :     0.0351217 Eh/α   predicted    -0.3928007E-02 (  -4.34%)
   displ. norm   :     0.6773399 α      lambda       -0.5363173E-02
   maximum displ.:     0.2668687 α      in ANC's #13, #21, #30, ...

........................................................................
.............................. CYCLE   11 ..............................
........................................................................
   1   -190.1085317 -0.190109E+03  0.285E-01    0.68       0.0  T
   2   -190.1085161  0.155631E-04  0.163E-01    0.74       1.0  T
   3   -190.1055183  0.299779E-02  0.145E-01    0.62       1.0  T
   4   -190.1087613 -0.324295E-02  0.177E-02    0.73       1.0  T
   5   -190.1087830 -0.216713E-04  0.895E-03    0.72       1.2  T
   6   -190.1087863 -0.336086E-05  0.409E-03    0.72       2.6  T
   7   -190.1087867 -0.383986E-06  0.258E-03    0.72       4.1  T
   8   -190.1087870 -0.259549E-06  0.182E-03    0.72       5.8  T
   9   -190.1087870 -0.811473E-07  0.144E-03    0.72       7.3  T
  10   -190.1087871 -0.799865E-07  0.983E-04    0.72      10.7  T
  11   -190.1087872 -0.410745E-07  0.634E-04    0.72      16.5  T
     SCC iter.                  ...        0 min,  0.148 sec
     gradient                   ...        0 min,  0.029 sec
 * total energy  :  -187.4922115 Eh     change       -0.3355742E-02 Eh
   gradient norm :     0.0437407 Eh/α   predicted    -0.3911885E-02 (  16.57%)
   displ. norm   :     0.5943461 α      lambda       -0.5352625E-02
   maximum displ.:     0.2060741 α      in ANC's #15, #21, #13, ...

........................................................................
.............................. CYCLE   12 ..............................
........................................................................
   1   -190.1324903 -0.190132E+03  0.219E-01    0.77       0.0  T
   2   -190.1325009 -0.105822E-04  0.127E-01    0.80       1.0  T
   3   -190.1313386  0.116233E-02  0.104E-01    0.74       1.0  T
   4   -190.1326385 -0.129991E-02  0.180E-02    0.79       1.0  T
   5   -190.1326648 -0.263194E-04  0.841E-03    0.78       1.2  T
   6   -190.1326682 -0.337389E-05  0.419E-03    0.79       2.5  T
   7   -190.1326689 -0.653951E-06  0.280E-03    0.79       3.7  T
   8   -190.1326693 -0.404307E-06  0.182E-03    0.79       5.8  T
   9   -190.1326693 -0.717887E-07  0.141E-03    0.79       7.4  T
  10   -190.1326694 -0.782132E-07  0.831E-04    0.79      12.6  T
  11   -190.1326694 -0.266123E-07  0.514E-04    0.79      20.4  T
     SCC iter.                  ...        0 min,  0.147 sec
     gradient                   ...        0 min,  0.029 sec
 * total energy  :  -187.4951759 Eh     change       -0.2964406E-02 Eh
   gradient norm :     0.0464892 Eh/α   predicted    -0.3621713E-02 (  22.17%)
   displ. norm   :     0.6365263 α      lambda       -0.4581149E-02
   maximum displ.:     0.2199982 α      in ANC's #21, #18, #13, ...

........................................................................
.............................. CYCLE   13 ..............................
........................................................................
   1   -190.1078163 -0.190108E+03  0.301E-01    0.78       0.0  T
   2   -190.1076536  0.162634E-03  0.180E-01    0.85       1.0  T
   3   -190.1036266  0.402706E-02  0.181E-01    0.73       1.0  T
   4   -190.1082167 -0.459012E-02  0.215E-02    0.83       1.0  T
   5   -190.1082573 -0.406298E-04  0.108E-02    0.82       1.0  T
   6   -190.1082623 -0.500384E-05  0.486E-03    0.82       2.2  T
   7   -190.1082636 -0.124066E-05  0.270E-03    0.82       3.9  T
   8   -190.1082639 -0.374337E-06  0.169E-03    0.82       6.2  T
   9   -190.1082641 -0.117479E-06  0.116E-03    0.82       9.0  T
  10   -190.1082641 -0.296857E-07  0.847E-04    0.82      12.4  T
  11   -190.1082641 -0.219967E-07  0.548E-04    0.82      19.1  T
     SCC iter.                  ...        0 min,  0.148 sec
     gradient                   ...        0 min,  0.030 sec
 * total energy  :  -187.4974699 Eh     change       -0.2293975E-02 Eh
   gradient norm :     0.0634234 Eh/α   predicted    -0.3218641E-02 (  40.31%)
   displ. norm   :     0.4158483 α      lambda       -0.3200955E-02
   maximum displ.:     0.1454933 α      in ANC's #13, #21, #1, ...

........................................................................
.............................. CYCLE   14 ..............................
........................................................................
   1   -190.1166929 -0.190117E+03  0.131E-01    0.84       0.0  T
   2   -190.1167194 -0.265535E-04  0.767E-02    0.85       1.0  T
   3   -190.1163146  0.404825E-03  0.604E-02    0.82       1.0  T
   4   -190.1167585 -0.443893E-03  0.100E-02    0.85       1.0  T
   5   -190.1167632 -0.465803E-05  0.706E-03    0.84       1.5  T
   6   -190.1167682 -0.501054E-05  0.279E-03    0.84       3.8  T
   7   -190.1167685 -0.309148E-06  0.172E-03    0.84       6.1  T
   8   -190.1167686 -0.114904E-06  0.118E-03    0.84       8.9  T
   9   -190.1167686 -0.362277E-07  0.911E-04    0.84      11.5  T
  10   -190.1167687 -0.246562E-07  0.635E-04    0.84      16.5  T
     SCC iter.                  ...        0 min,  0.135 sec
     gradient                   ...        0 min,  0.029 sec
 * total energy  :  -187.4996067 Eh     change       -0.2136828E-02 Eh
   gradient norm :     0.0344058 Eh/α   predicted    -0.1877250E-02 ( -12.15%)
   displ. norm   :     0.5644397 α      lambda       -0.3950329E-02
   maximum displ.:     0.2554063 α      in ANC's #15, #13, #1, ...

........................................................................
.............................. CYCLE   15 ..............................
........................................................................
   1   -190.1311216 -0.190131E+03  0.231E-01    0.85       0.0  T
   2   -190.1311838 -0.621979E-04  0.130E-01    0.86       1.0  T
   3   -190.1306861  0.497747E-03  0.709E-02    0.84       1.0  T
   4   -190.1312388 -0.552753E-03  0.132E-02    0.86       1.0  T
   5   -190.1312482 -0.933808E-05  0.862E-03    0.85       1.2  T
   6   -190.1312530 -0.482359E-05  0.358E-03    0.86       2.9  T
   7   -190.1312537 -0.691274E-06  0.218E-03    0.86       4.8  T
   8   -190.1312540 -0.299995E-06  0.131E-03    0.86       8.0  T
   9   -190.1312540 -0.390073E-07  0.102E-03    0.86      10.3  T
  10   -190.1312541 -0.370392E-07  0.690E-04    0.86      15.2  T
  11   -190.1312541 -0.187143E-07  0.453E-04    0.86      23.2  T
     SCC iter.                  ...        0 min,  0.148 sec
     gradient                   ...        0 min,  0.029 sec
 * total energy  :  -187.5014356 Eh     change       -0.1828833E-02 Eh
   gradient norm :     0.0467662 Eh/α   predicted    -0.2604442E-02 (  42.41%)
   displ. norm   :     0.4904434 α      lambda       -0.3238284E-02
   maximum displ.:     0.1458905 α      in ANC's #1, #21, #41, ...

........................................................................
.............................. CYCLE   16 ..............................
........................................................................
   1   -190.1333998 -0.190133E+03  0.197E-01    0.85       0.0  T
   2   -190.1333936  0.616945E-05  0.113E-01    0.89       1.0  T
   3   -190.1324395  0.954098E-03  0.988E-02    0.83       1.0  T
   4   -190.1335142 -0.107468E-02  0.210E-02    0.88       1.0  T
   5   -190.1335637 -0.494562E-04  0.656E-03    0.87       1.6  T
   6   -190.1335649 -0.122833E-05  0.259E-03    0.87       4.0  T
   7   -190.1335651 -0.150451E-06  0.148E-03    0.87       7.1  T
   8   -190.1335651 -0.624924E-07  0.105E-03    0.87      10.0  T
   9   -190.1335651 -0.238425E-07  0.760E-04    0.87      13.8  T
  10   -190.1335652 -0.175951E-07  0.500E-04    0.87      21.0  T
     SCC iter.                  ...        0 min,  0.136 sec
     gradient                   ...        0 min,  0.029 sec
 * total energy  :  -187.5035326 Eh     change       -0.2097040E-02 Eh
   gradient norm :     0.0354792 Eh/α   predicted    -0.2008611E-02 (  -4.22%)
   displ. norm   :     0.6679374 α      lambda       -0.3313896E-02
   maximum displ.:     0.1911981 α      in ANC's #13, #15, #18, ...

........................................................................
.............................. CYCLE   17 ..............................
........................................................................
   1   -190.1152676 -0.190115E+03  0.234E-01    0.91       0.0  T
   2   -190.1151834  0.841791E-04  0.141E-01    0.93       1.0  T
   3   -190.1131747  0.200869E-02  0.134E-01    0.87       1.0  T
   4   -190.1154651 -0.229041E-02  0.205E-02    0.93       1.0  T
   5   -190.1155066 -0.414495E-04  0.817E-03    0.91       1.3  T
   6   -190.1155082 -0.160233E-05  0.383E-03    0.92       2.7  T
   7   -190.1155088 -0.660377E-06  0.166E-03    0.92       6.3  T
   8   -190.1155090 -0.157815E-06  0.990E-04    0.92      10.6  T
   9   -190.1155090 -0.221555E-07  0.653E-04    0.92      16.1  T
     SCC iter.                  ...        0 min,  0.123 sec
     gradient                   ...        0 min,  0.029 sec
 * total energy  :  -187.5049878 Eh     change       -0.1455215E-02 Eh
   gradient norm :     0.0440818 Eh/α   predicted    -0.2396190E-02 (  64.66%)
   displ. norm   :     0.3642644 α      lambda       -0.2534831E-02
   maximum displ.:     0.1201495 α      in ANC's #1, #15, #10, ...

........................................................................
.............................. CYCLE   18 ..............................
........................................................................
   1   -190.1307172 -0.190131E+03  0.115E-01    0.92       0.0  T
   2   -190.1307239 -0.674159E-05  0.683E-02    0.91       1.0  T
   3   -190.1304227  0.301179E-03  0.520E-02    0.92       1.0  T
   4   -190.1307627 -0.339977E-03  0.924E-03    0.91       1.1  T
   5   -190.1307677 -0.504189E-05  0.527E-03    0.92       2.0  T
   6   -190.1307692 -0.144214E-05  0.269E-03    0.91       3.9  T
   7   -190.1307696 -0.450941E-06  0.128E-03    0.91       8.2  T
   8   -190.1307697 -0.977312E-07  0.717E-04    0.91      14.6  T
   9   -190.1307697 -0.886692E-08  0.497E-04    0.91      21.1  T
     SCC iter.                  ...        0 min,  0.122 sec
     gradient                   ...        0 min,  0.029 sec
 * total energy  :  -187.5066607 Eh     change       -0.1672904E-02 Eh
   gradient norm :     0.0258339 Eh/α   predicted    -0.1435593E-02 ( -14.19%)
   displ. norm   :     0.6232876 α      lambda       -0.2769515E-02
   maximum displ.:     0.1811097 α      in ANC's #1, #15, #10, ...

........................................................................
.............................. CYCLE   19 ..............................
........................................................................
   1   -190.1247648 -0.190125E+03  0.222E-01    0.87       0.0  T
   2   -190.1248380 -0.732153E-04  0.125E-01    0.90       1.0  T
   3   -190.1244276  0.410420E-03  0.683E-02    0.87       1.0  T
   4   -190.1248857 -0.458108E-03  0.152E-02    0.90       1.0  T
   5   -190.1248956 -0.997580E-05  0.992E-03    0.89       1.1  T
   6   -190.1249032 -0.753234E-05  0.392E-03    0.89       2.7  T
   7   -190.1249043 -0.109062E-05  0.178E-03    0.89       5.9  T
   8   -190.1249044 -0.135334E-06  0.113E-03    0.89       9.2  T
   9   -190.1249044 -0.385062E-07  0.863E-04    0.89      12.1  T
  10   -190.1249045 -0.229334E-07  0.548E-04    0.89      19.1  T
     SCC iter.                  ...        0 min,  0.136 sec
     gradient                   ...        0 min,  0.029 sec
 * total energy  :  -187.5079045 Eh     change       -0.1243798E-02 Eh
   gradient norm :     0.0556248 Eh/α   predicted    -0.1922725E-02 (  54.58%)
   displ. norm   :     0.4016779 α      lambda       -0.2479536E-02
   maximum displ.:     0.1392508 α      in ANC's #10, #7, #9, ...

........................................................................
.............................. CYCLE   20 ..............................
........................................................................
   1   -190.1427385 -0.190143E+03  0.120E-01    0.91       0.0  T
   2   -190.1427560 -0.175337E-04  0.691E-02    0.90       1.0  T
   3   -190.1425122  0.243825E-03  0.490E-02    0.92       1.0  T
   4   -190.1427769 -0.264688E-03  0.955E-03    0.90       1.1  T
   5   -190.1427791 -0.229522E-05  0.706E-03    0.91       1.5  T
   6   -190.1427836 -0.443239E-05  0.207E-03    0.91       5.1  T
   7   -190.1427837 -0.135881E-06  0.109E-03    0.91       9.6  T
   8   -190.1427838 -0.544278E-07  0.729E-04    0.91      14.4  T
   9   -190.1427838 -0.187045E-07  0.493E-04    0.91      21.2  T
     SCC iter.                  ...        0 min,  0.122 sec
     gradient                   ...        0 min,  0.029 sec
 * total energy  :  -187.5094535 Eh     change       -0.1548998E-02 Eh
   gradient norm :     0.0230679 Eh/α   predicted    -0.1439800E-02 (  -7.05%)
   displ. norm   :     0.6235046 α      lambda       -0.2757003E-02
   maximum displ.:     0.2093735 α      in ANC's #10, #7, #1, ...
 * RMSD in coord.:     0.8246161 α      energy gain  -0.5051756E+00 Eh

generating ANC from model Hessian ...
Using Lindh-Hessian (1995)
 Shifting diagonal of input Hessian by   1.079898166797174E-002
 Lowest  eigenvalues of input Hessian
    0.010000    0.000000    0.000000    0.000000    0.000000    0.000000
    0.000000    0.010812    0.010840    0.010869    0.010911    0.010921
    0.011019    0.011209    0.011284    0.011460    0.011747    0.011811
 Highest eigenvalues
    2.268048    2.400529    2.568471    2.602448    2.604893    2.667900
 

........................................................................
.............................. CYCLE   21 ..............................
........................................................................
   1   -190.1328762 -0.190133E+03  0.200E-01    0.93       0.0  T
   2   -190.1329272 -0.509122E-04  0.115E-01    0.93       1.0  T
   3   -190.1325612  0.365986E-03  0.717E-02    0.91       1.0  T
   4   -190.1329754 -0.414215E-03  0.146E-02    0.93       1.0  T
   5   -190.1329862 -0.107753E-04  0.894E-03    0.92       1.2  T
   6   -190.1329932 -0.699439E-05  0.392E-03    0.92       2.7  T
   7   -190.1329942 -0.103546E-05  0.161E-03    0.92       6.5  T
   8   -190.1329942 -0.317498E-07  0.122E-03    0.92       8.6  T
   9   -190.1329943 -0.483500E-07  0.740E-04    0.92      14.2  T
  10   -190.1329943 -0.150691E-07  0.434E-04    0.92      24.1  T
     SCC iter.                  ...        0 min,  0.137 sec
     gradient                   ...        0 min,  0.030 sec
 * total energy  :  -187.5107008 Eh     change       -0.1247239E-02 Eh
   gradient norm :     0.0315971 Eh/α   predicted     0.0000000E+00 (-100.00%)
   displ. norm   :     0.2066585 α      lambda       -0.1750141E-02
   maximum displ.:     0.0878144 α      in ANC's #7, #9, #16, ...

........................................................................
.............................. CYCLE   22 ..............................
........................................................................
   1   -190.1423218 -0.190142E+03  0.930E-02    0.91       0.0  T
   2   -190.1423345 -0.126960E-04  0.542E-02    0.92       1.0  T
   3   -190.1422316  0.102904E-03  0.390E-02    0.92       1.0  T
   4   -190.1423502 -0.118569E-03  0.746E-03    0.91       1.4  T
   5   -190.1423559 -0.574143E-05  0.422E-03    0.92       2.5  T
   6   -190.1423574 -0.147410E-05  0.166E-03    0.92       6.3  T
   7   -190.1423575 -0.104435E-06  0.741E-04    0.92      14.1  T
   8   -190.1423575 -0.208638E-07  0.489E-04    0.92      21.4  T
     SCC iter.                  ...        0 min,  0.111 sec
     gradient                   ...        0 min,  0.029 sec
 * total energy  :  -187.5119615 Eh     change       -0.1260738E-02 Eh
   gradient norm :     0.0141968 Eh/α   predicted    -0.9126342E-03 ( -27.61%)
   displ. norm   :     0.3913195 α      lambda       -0.1630776E-02
   maximum displ.:     0.1858956 α      in ANC's #7, #9, #10, ...

........................................................................
.............................. CYCLE   23 ..............................
........................................................................
   1   -190.1456333 -0.190146E+03  0.165E-01    0.91       0.0  T
   2   -190.1456761 -0.428523E-04  0.923E-02    0.92       1.0  T
   3   -190.1454798  0.196282E-03  0.530E-02    0.91       1.0  T
   4   -190.1457147 -0.234838E-03  0.815E-03    0.91       1.3  T
   5   -190.1457169 -0.224360E-05  0.529E-03    0.92       2.0  T
   6   -190.1457184 -0.151642E-05  0.287E-03    0.91       3.6  T
   7   -190.1457189 -0.472356E-06  0.135E-03    0.92       7.8  T
   8   -190.1457190 -0.879496E-07  0.911E-04    0.92      11.5  T
   9   -190.1457190 -0.269224E-07  0.542E-04    0.92      19.4  T
     SCC iter.                  ...        0 min,  0.124 sec
     gradient                   ...        0 min,  0.029 sec
 * total energy  :  -187.5129872 Eh     change       -0.1025687E-02 Eh
   gradient norm :     0.0216810 Eh/α   predicted    -0.9402493E-03 (  -8.33%)
   displ. norm   :     0.4716471 α      lambda       -0.1387669E-02
   maximum displ.:     0.2252940 α      in ANC's #7, #9, #16, ...

........................................................................
.............................. CYCLE   24 ..............................
........................................................................
   1   -190.1423762 -0.190142E+03  0.191E-01    0.90       0.0  T
   2   -190.1424190 -0.427879E-04  0.107E-01    0.91       1.0  T
   3   -190.1422266  0.192367E-03  0.504E-02    0.91       1.0  T
   4   -190.1424543 -0.227743E-03  0.697E-03    0.91       1.5  T
   5   -190.1424540  0.291746E-06  0.521E-03    0.91       2.0  T
   6   -190.1424556 -0.159469E-05  0.203E-03    0.91       5.2  T
   7   -190.1424558 -0.191866E-06  0.112E-03    0.91       9.3  T
   8   -190.1424559 -0.367241E-07  0.770E-04    0.91      13.6  T
   9   -190.1424559 -0.179450E-07  0.514E-04    0.91      20.4  T
     SCC iter.                  ...        0 min,  0.124 sec
     gradient                   ...        0 min,  0.029 sec
 * total energy  :  -187.5137457 Eh     change       -0.7585594E-03 Eh
   gradient norm :     0.0341859 Eh/α   predicted    -0.8481799E-03 (  11.81%)
   displ. norm   :     0.4920168 α      lambda       -0.1692098E-02
   maximum displ.:     0.2630284 α      in ANC's #7, #10, #9, ...

........................................................................
.............................. CYCLE   25 ..............................
........................................................................
   1   -190.1405012 -0.190141E+03  0.207E-01    0.91       0.0  T
   2   -190.1405463 -0.450882E-04  0.116E-01    0.91       1.0  T
   3   -190.1404056  0.140658E-03  0.465E-02    0.91       1.0  T
   4   -190.1405767 -0.171103E-03  0.671E-03    0.91       1.6  T
   5   -190.1405759  0.778079E-06  0.517E-03    0.91       2.0  T
   6   -190.1405776 -0.164671E-05  0.179E-03    0.91       5.9  T
   7   -190.1405777 -0.134029E-06  0.115E-03    0.91       9.1  T
   8   -190.1405778 -0.806299E-07  0.669E-04    0.91      15.7  T
   9   -190.1405778 -0.127731E-07  0.451E-04    0.91      23.2  T
     SCC iter.                  ...        0 min,  0.126 sec
     gradient                   ...        0 min,  0.029 sec
 * total energy  :  -187.5146503 Eh     change       -0.9045978E-03 Eh
   gradient norm :     0.0294635 Eh/α   predicted    -0.1050864E-02 (  16.17%)
   displ. norm   :     0.4335264 α      lambda       -0.1863976E-02
   maximum displ.:     0.2268322 α      in ANC's #7, #9, #10, ...

........................................................................
.............................. CYCLE   26 ..............................
........................................................................
   1   -190.1468705 -0.190147E+03  0.121E-01    0.94       0.0  T
   2   -190.1468934 -0.229331E-04  0.685E-02    0.93       1.0  T
   3   -190.1468272  0.661989E-04  0.326E-02    0.93       1.0  T
   4   -190.1469049 -0.776342E-04  0.777E-03    0.93       1.3  T
   5   -190.1469053 -0.405547E-06  0.524E-03    0.93       2.0  T
   6   -190.1469064 -0.113570E-05  0.290E-03    0.93       3.6  T
   7   -190.1469068 -0.394466E-06  0.148E-03    0.93       7.1  T
   8   -190.1469069 -0.114960E-06  0.822E-04    0.93      12.8  T
   9   -190.1469069 -0.191739E-07  0.490E-04    0.93      21.4  T
     SCC iter.                  ...        0 min,  0.139 sec
     gradient                   ...        0 min,  0.029 sec
 * total energy  :  -187.5157217 Eh     change       -0.1071372E-02 Eh
   gradient norm :     0.0208073 Eh/α   predicted    -0.1107152E-02 (   3.34%)
   displ. norm   :     0.6055839 α      lambda       -0.1547566E-02
   maximum displ.:     0.3209648 α      in ANC's #7, #9, #10, ...

........................................................................
.............................. CYCLE   27 ..............................
........................................................................
   1   -190.1323286 -0.190132E+03  0.214E-01    0.94       0.0  T
   2   -190.1323831 -0.545182E-04  0.120E-01    0.93       1.0  T
   3   -190.1322077  0.175466E-03  0.526E-02    0.93       1.0  T
   4   -190.1324199 -0.212240E-03  0.851E-03    0.93       1.2  T
   5   -190.1324202 -0.261922E-06  0.574E-03    0.93       1.8  T
   6   -190.1324218 -0.161430E-05  0.267E-03    0.93       3.9  T
   7   -190.1324221 -0.353069E-06  0.152E-03    0.93       6.9  T
   8   -190.1324222 -0.375599E-07  0.114E-03    0.93       9.2  T
   9   -190.1324222 -0.208520E-07  0.829E-04    0.93      12.6  T
  10   -190.1324222 -0.327745E-07  0.473E-04    0.93      22.1  T
     SCC iter.                  ...        0 min,  0.139 sec
     gradient                   ...        0 min,  0.029 sec
 * total energy  :  -187.5165029 Eh     change       -0.7811794E-03 Eh
   gradient norm :     0.0310975 Eh/α   predicted    -0.1057557E-02 (  35.38%)
   displ. norm   :     0.3871410 α      lambda       -0.1320256E-02
   maximum displ.:     0.2210303 α      in ANC's #7, #9, #10, ...

........................................................................
.............................. CYCLE   28 ..............................
........................................................................
   1   -190.1382897 -0.190138E+03  0.119E-01    0.94       0.0  T
   2   -190.1383043 -0.145261E-04  0.675E-02    0.93       1.0  T
   3   -190.1381519  0.152326E-03  0.400E-02    0.94       1.0  T
   4   -190.1383211 -0.169215E-03  0.667E-03    0.93       1.6  T
   5   -190.1383220 -0.876829E-06  0.521E-03    0.93       2.0  T
   6   -190.1383241 -0.207621E-05  0.198E-03    0.93       5.3  T
   7   -190.1383243 -0.163270E-06  0.114E-03    0.93       9.2  T
   8   -190.1383243 -0.460122E-07  0.731E-04    0.93      14.3  T
   9   -190.1383243 -0.142001E-07  0.488E-04    0.93      21.5  T
     SCC iter.                  ...        0 min,  0.124 sec
     gradient                   ...        0 min,  0.029 sec
 * total energy  :  -187.5174170 Eh     change       -0.9141469E-03 Eh
   gradient norm :     0.0193284 Eh/α   predicted    -0.7590676E-03 ( -16.96%)
   displ. norm   :     0.5852167 α      lambda       -0.1769827E-02
   maximum displ.:     0.3395017 α      in ANC's #7, #10, #9, ...

........................................................................
.............................. CYCLE   29 ..............................
........................................................................
   1   -190.1530471 -0.190153E+03  0.164E-01    0.95       0.0  T
   2   -190.1530745 -0.274261E-04  0.932E-02    0.94       1.0  T
   3   -190.1527073  0.367226E-03  0.612E-02    0.95       1.0  T
   4   -190.1531160 -0.408771E-03  0.909E-03    0.94       1.2  T
   5   -190.1531174 -0.137139E-05  0.687E-03    0.94       1.5  T
   6   -190.1531210 -0.357297E-05  0.301E-03    0.94       3.5  T
   7   -190.1531213 -0.358051E-06  0.172E-03    0.94       6.1  T
   8   -190.1531214 -0.860111E-07  0.117E-03    0.94       9.0  T
   9   -190.1531215 -0.332670E-07  0.765E-04    0.94      13.7  T
  10   -190.1531215 -0.151236E-07  0.468E-04    0.94      22.4  T
     SCC iter.                  ...        0 min,  0.139 sec
     gradient                   ...        0 min,  0.029 sec
 * total energy  :  -187.5181149 Eh     change       -0.6978633E-03 Eh
   gradient norm :     0.0374962 Eh/α   predicted    -0.1187978E-02 (  70.23%)
   displ. norm   :     0.5877485 α      lambda       -0.1604560E-02
   maximum displ.:     0.3378998 α      in ANC's #7, #9, #10, ...

........................................................................
.............................. CYCLE   30 ..............................
........................................................................
   1   -190.1434534 -0.190143E+03  0.172E-01    0.94       0.0  T
   2   -190.1434850 -0.316182E-04  0.975E-02    0.95       1.0  T
   3   -190.1432780  0.207000E-03  0.535E-02    0.94       1.0  T
   4   -190.1435166 -0.238586E-03  0.756E-03    0.94       1.4  T
   5   -190.1435162  0.397828E-06  0.562E-03    0.94       1.9  T
   6   -190.1435176 -0.141125E-05  0.283E-03    0.94       3.7  T
   7   -190.1435181 -0.456793E-06  0.166E-03    0.94       6.3  T
   8   -190.1435182 -0.982657E-07  0.114E-03    0.94       9.2  T
   9   -190.1435182 -0.329100E-07  0.792E-04    0.94      13.2  T
  10   -190.1435183 -0.215196E-07  0.496E-04    0.94      21.2  T
     SCC iter.                  ...        0 min,  0.141 sec
     gradient                   ...        0 min,  0.029 sec
 * total energy  :  -187.5193828 Eh     change       -0.1267901E-02 Eh
   gradient norm :     0.0157266 Eh/α   predicted    -0.1079429E-02 ( -14.86%)
   displ. norm   :     0.6822250 α      lambda       -0.1414137E-02
   maximum displ.:     0.4026105 α      in ANC's #7, #9, #10, ...

........................................................................
.............................. CYCLE   31 ..............................
........................................................................
   1   -190.1361551 -0.190136E+03  0.199E-01    0.94       0.0  T
   2   -190.1361941 -0.390480E-04  0.112E-01    0.95       1.0  T
   3   -190.1359289  0.265251E-03  0.600E-02    0.93       1.0  T
   4   -190.1362293 -0.300456E-03  0.936E-03    0.95       1.1  T
   5   -190.1362285  0.777928E-06  0.781E-03    0.94       1.3  T
   6   -190.1362326 -0.406190E-05  0.364E-03    0.95       2.9  T
   7   -190.1362334 -0.753641E-06  0.182E-03    0.94       5.8  T
   8   -190.1362334 -0.788016E-07  0.130E-03    0.94       8.0  T
   9   -190.1362335 -0.405685E-07  0.858E-04    0.94      12.2  T
  10   -190.1362335 -0.210290E-07  0.530E-04    0.94      19.8  T
     SCC iter.                  ...        0 min,  0.146 sec
     gradient                   ...        0 min,  0.030 sec
 * total energy  :  -187.5203661 Eh     change       -0.9832972E-03 Eh
   gradient norm :     0.0275886 Eh/α   predicted    -0.1036164E-02 (   5.38%)
   displ. norm   :     0.6188020 α      lambda       -0.1269593E-02
   maximum displ.:     0.3852543 α      in ANC's #7, #10, #9, ...

........................................................................
.............................. CYCLE   32 ..............................
........................................................................
   1   -190.1432446 -0.190143E+03  0.113E-01    0.95       0.0  T
   2   -190.1432557 -0.110493E-04  0.663E-02    0.96       1.0  T
   3   -190.1431141  0.141614E-03  0.469E-02    0.95       1.0  T
   4   -190.1432781 -0.164034E-03  0.704E-03    0.96       1.5  T
   5   -190.1432779  0.208009E-06  0.559E-03    0.95       1.9  T
   6   -190.1432792 -0.129999E-05  0.249E-03    0.96       4.2  T
   7   -190.1432796 -0.452826E-06  0.121E-03    0.96       8.6  T
   8   -190.1432797 -0.547211E-07  0.865E-04    0.96      12.1  T
   9   -190.1432797 -0.238452E-07  0.602E-04    0.96      17.4  T
     SCC iter.                  ...        0 min,  0.127 sec
     gradient                   ...        0 min,  0.029 sec
 * total energy  :  -187.5214073 Eh     change       -0.1041166E-02 Eh
   gradient norm :     0.0242468 Eh/α   predicted    -0.8778735E-03 ( -15.68%)
   displ. norm   :     0.7376580 α      lambda       -0.1735013E-02
   maximum displ.:     0.4720850 α      in ANC's #7, #10, #9, ...

........................................................................
.............................. CYCLE   33 ..............................
........................................................................
   1   -190.1488744 -0.190149E+03  0.169E-01    0.96       0.0  T
   2   -190.1489060 -0.315925E-04  0.974E-02    0.97       1.0  T
   3   -190.1485968  0.309178E-03  0.619E-02    0.94       1.0  T
   4   -190.1489425 -0.345666E-03  0.893E-03    0.96       1.2  T
   5   -190.1489423  0.200688E-06  0.698E-03    0.96       1.5  T
   6   -190.1489458 -0.355374E-05  0.309E-03    0.96       3.4  T
   7   -190.1489464 -0.626682E-06  0.148E-03    0.96       7.1  T
   8   -190.1489465 -0.581210E-07  0.106E-03    0.96       9.9  T
   9   -190.1489465 -0.263887E-07  0.777E-04    0.96      13.5  T
  10   -190.1489465 -0.197596E-07  0.481E-04    0.96      21.8  T
     SCC iter.                  ...        0 min,  0.136 sec
     gradient                   ...        0 min,  0.029 sec
 * total energy  :  -187.5227220 Eh     change       -0.1314683E-02 Eh
   gradient norm :     0.0101529 Eh/α   predicted    -0.1339554E-02 (   1.89%)
   displ. norm   :     0.8364321 α      lambda       -0.1398208E-02
   maximum displ.:     0.5446479 α      in ANC's #7, #10, #9, ...

........................................................................
.............................. CYCLE   34 ..............................
........................................................................
   1   -190.1459002 -0.190146E+03  0.167E-01    0.97       0.0  T
   2   -190.1459206 -0.204704E-04  0.959E-02    0.97       1.0  T
   3   -190.1456693  0.251390E-03  0.602E-02    0.95       1.0  T
   4   -190.1459551 -0.285852E-03  0.867E-03    0.96       1.2  T
   5   -190.1459543  0.786773E-06  0.678E-03    0.96       1.5  T
   6   -190.1459570 -0.267061E-05  0.304E-03    0.96       3.5  T
   7   -190.1459577 -0.736280E-06  0.136E-03    0.96       7.7  T
   8   -190.1459578 -0.534514E-07  0.916E-04    0.96      11.4  T
   9   -190.1459578 -0.215645E-07  0.596E-04    0.96      17.6  T
     SCC iter.                  ...        0 min,  0.126 sec
     gradient                   ...        0 min,  0.029 sec
 * total energy  :  -187.5240138 Eh     change       -0.1291803E-02 Eh
   gradient norm :     0.0084125 Eh/α   predicted    -0.1188215E-02 (  -8.02%)
   displ. norm   :     0.7805856 α      lambda       -0.1546443E-02
   maximum displ.:     0.5465120 α      in ANC's #7, #2, #10, ...

........................................................................
.............................. CYCLE   35 ..............................
........................................................................
   1   -190.1606890 -0.190161E+03  0.155E-01    0.97       0.0  T
   2   -190.1607166 -0.275405E-04  0.875E-02    0.97       1.0  T
   3   -190.1605475  0.169045E-03  0.460E-02    0.96       1.0  T
   4   -190.1607392 -0.191689E-03  0.857E-03    0.96       1.2  T
   5   -190.1607413 -0.205948E-05  0.575E-03    0.97       1.8  T
   6   -190.1607434 -0.207757E-05  0.307E-03    0.96       3.4  T
   7   -190.1607440 -0.683159E-06  0.154E-03    0.97       6.8  T
   8   -190.1607441 -0.682316E-07  0.102E-03    0.97      10.2  T
   9   -190.1607441 -0.206977E-07  0.723E-04    0.97      14.5  T
  10   -190.1607441 -0.162474E-07  0.464E-04    0.97      22.6  T
     SCC iter.                  ...        0 min,  0.138 sec
     gradient                   ...        0 min,  0.029 sec
 * total energy  :  -187.5251635 Eh     change       -0.1149775E-02 Eh
   gradient norm :     0.0148603 Eh/α   predicted    -0.1244357E-02 (   8.23%)
   displ. norm   :     0.8691019 α      lambda       -0.1492461E-02
   maximum displ.:     0.5788509 α      in ANC's #7, #9, #10, ...

........................................................................
.............................. CYCLE   36 ..............................
........................................................................
   1   -190.1436934 -0.190144E+03  0.179E-01    0.97       0.0  T
   2   -190.1437212 -0.277796E-04  0.102E-01    0.97       1.0  T
   3   -190.1434291  0.292049E-03  0.629E-02    0.96       1.0  T
   4   -190.1437611 -0.332003E-03  0.107E-02    0.97       1.0  T
   5   -190.1437633 -0.218750E-05  0.715E-03    0.96       1.5  T
   6   -190.1437654 -0.209056E-05  0.415E-03    0.97       2.5  T
   7   -190.1437667 -0.129396E-05  0.224E-03    0.97       4.7  T
   8   -190.1437668 -0.121099E-06  0.156E-03    0.97       6.7  T
   9   -190.1437669 -0.589273E-07  0.101E-03    0.97      10.4  T
  10   -190.1437669 -0.290311E-07  0.615E-04    0.97      17.0  T
  11   -190.1437669 -0.138556E-07  0.376E-04    0.97      27.9  T
     SCC iter.                  ...        0 min,  0.152 sec
     gradient                   ...        0 min,  0.029 sec
 * total energy  :  -187.5263790 Eh     change       -0.1215502E-02 Eh
   gradient norm :     0.0200414 Eh/α   predicted    -0.1309891E-02 (   7.77%)
   displ. norm   :     0.7720439 α      lambda       -0.1358835E-02
   maximum displ.:     0.5492564 α      in ANC's #7, #2, #10, ...

........................................................................
.............................. CYCLE   37 ..............................
........................................................................
   1   -190.1417552 -0.190142E+03  0.133E-01    0.97       0.0  T
   2   -190.1417785 -0.233071E-04  0.751E-02    0.97       1.0  T
   3   -190.1416900  0.884596E-04  0.377E-02    0.97       1.0  T
   4   -190.1417926 -0.102549E-03  0.863E-03    0.97       1.2  T
   5   -190.1417951 -0.253827E-05  0.497E-03    0.97       2.1  T
   6   -190.1417959 -0.771695E-06  0.237E-03    0.97       4.4  T
   7   -190.1417961 -0.243360E-06  0.130E-03    0.97       8.0  T
   8   -190.1417962 -0.280810E-07  0.890E-04    0.97      11.8  T
   9   -190.1417962 -0.146704E-07  0.650E-04    0.97      16.1  T
     SCC iter.                  ...        0 min,  0.131 sec
     gradient                   ...        0 min,  0.029 sec
 * total energy  :  -187.5274320 Eh     change       -0.1052980E-02 Eh
   gradient norm :     0.0166357 Eh/α   predicted    -0.1084390E-02 (   2.98%)
   displ. norm   :     0.7316834 α      lambda       -0.1413284E-02
   maximum displ.:     0.5431100 α      in ANC's #7, #2, #10, ...

........................................................................
.............................. CYCLE   38 ..............................
........................................................................
   1   -190.1464813 -0.190146E+03  0.134E-01    0.98       0.0  T
   2   -190.1464983 -0.170584E-04  0.764E-02    0.97       1.0  T
   3   -190.1462966  0.201778E-03  0.448E-02    0.98       1.0  T
   4   -190.1465172 -0.220673E-03  0.105E-02    0.97       1.0  T
   5   -190.1465259 -0.864054E-05  0.494E-03    0.98       2.1  T
   6   -190.1465268 -0.936815E-06  0.296E-03    0.97       3.5  T
   7   -190.1465275 -0.703486E-06  0.114E-03    0.98       9.2  T
   8   -190.1465276 -0.349148E-07  0.760E-04    0.97      13.8  T
   9   -190.1465276 -0.125971E-07  0.506E-04    0.97      20.7  T
     SCC iter.                  ...        0 min,  0.125 sec
     gradient                   ...        0 min,  0.029 sec
 * total energy  :  -187.5286415 Eh     change       -0.1209467E-02 Eh
   gradient norm :     0.0144181 Eh/α   predicted    -0.1084953E-02 ( -10.29%)
   displ. norm   :     0.7441615 α      lambda       -0.1632825E-02
   maximum displ.:     0.5661871 α      in ANC's #7, #2, #5, ...

........................................................................
.............................. CYCLE   39 ..............................
........................................................................
   1   -190.1595210 -0.190160E+03  0.134E-01    0.98       0.0  T
   2   -190.1595421 -0.211052E-04  0.765E-02    0.97       1.0  T
   3   -190.1593498  0.192377E-03  0.465E-02    0.98       1.0  T
   4   -190.1595594 -0.209672E-03  0.119E-02    0.97       1.0  T
   5   -190.1595706 -0.112011E-04  0.599E-03    0.98       1.7  T
   6   -190.1595727 -0.207769E-05  0.328E-03    0.98       3.2  T
   7   -190.1595731 -0.404441E-06  0.177E-03    0.98       5.9  T
   8   -190.1595732 -0.626724E-07  0.128E-03    0.98       8.2  T
   9   -190.1595732 -0.438164E-07  0.732E-04    0.98      14.3  T
  10   -190.1595732 -0.162876E-07  0.462E-04    0.98      22.7  T
     SCC iter.                  ...        0 min,  0.138 sec
     gradient                   ...        0 min,  0.029 sec
 * total energy  :  -187.5299175 Eh     change       -0.1276003E-02 Eh
   gradient norm :     0.0135204 Eh/α   predicted    -0.1268526E-02 (  -0.59%)
   displ. norm   :     0.8909517 α      lambda       -0.1530989E-02
   maximum displ.:     0.6637852 α      in ANC's #7, #2, #10, ...

........................................................................
.............................. CYCLE   40 ..............................
........................................................................
   1   -190.1514698 -0.190151E+03  0.169E-01    0.98       0.0  T
   2   -190.1515033 -0.335120E-04  0.934E-02    0.97       1.0  T
   3   -190.1513620  0.141280E-03  0.397E-02    0.98       1.0  T
   4   -190.1515150 -0.153007E-03  0.131E-02    0.97       1.0  T
   5   -190.1515262 -0.111185E-04  0.689E-03    0.97       1.5  T
   6   -190.1515284 -0.227932E-05  0.373E-03    0.97       2.8  T
   7   -190.1515293 -0.816701E-06  0.202E-03    0.97       5.2  T
   8   -190.1515293 -0.787727E-07  0.147E-03    0.97       7.1  T
   9   -190.1515294 -0.604267E-07  0.947E-04    0.97      11.1  T
  10   -190.1515294 -0.285970E-07  0.580E-04    0.97      18.1  T
     SCC iter.                  ...        0 min,  0.140 sec
     gradient                   ...        0 min,  0.029 sec
 * total energy  :  -187.5312942 Eh     change       -0.1376763E-02 Eh
   gradient norm :     0.0183974 Eh/α   predicted    -0.1373141E-02 (  -0.26%)
   displ. norm   :     0.8211906 α      lambda       -0.1598291E-02
   maximum displ.:     0.6280763 α      in ANC's #7, #2, #5, ...

........................................................................
.............................. CYCLE   41 ..............................
........................................................................
   1   -190.1551203 -0.190155E+03  0.159E-01    0.98       0.0  T
   2   -190.1551622 -0.419168E-04  0.875E-02    0.97       1.0  T
   3   -190.1550621  0.100149E-03  0.371E-02    0.98       1.0  T
   4   -190.1551722 -0.110111E-03  0.123E-02    0.97       1.0  T
   5   -190.1551807 -0.849142E-05  0.771E-03    0.98       1.4  T
   6   -190.1551844 -0.371267E-05  0.366E-03    0.97       2.9  T
   7   -190.1551851 -0.672160E-06  0.171E-03    0.98       6.1  T
   8   -190.1551851 -0.680139E-07  0.127E-03    0.98       8.3  T
   9   -190.1551852 -0.368238E-07  0.847E-04    0.98      12.4  T
  10   -190.1551852 -0.233596E-07  0.548E-04    0.98      19.1  T
     SCC iter.                  ...        0 min,  0.138 sec
     gradient                   ...        0 min,  0.029 sec
 * total energy  :  -187.5326368 Eh     change       -0.1342536E-02 Eh
   gradient norm :     0.0137446 Eh/α   predicted    -0.1338057E-02 (  -0.33%)
   displ. norm   :     0.8433387 α      lambda       -0.1576606E-02
   maximum displ.:     0.6483211 α      in ANC's #7, #2, #5, ...

........................................................................
.............................. CYCLE   42 ..............................
........................................................................
   1   -190.1456055 -0.190146E+03  0.169E-01    0.98       0.0  T
   2   -190.1456337 -0.281240E-04  0.936E-02    0.98       1.0  T
   3   -190.1455125  0.121193E-03  0.418E-02    0.98       1.0  T
   4   -190.1456539 -0.141416E-03  0.107E-02    0.98       1.0  T
   5   -190.1456547 -0.849835E-06  0.681E-03    0.98       1.5  T
   6   -190.1456574 -0.270421E-05  0.321E-03    0.98       3.3  T
   7   -190.1456579 -0.456378E-06  0.180E-03    0.98       5.8  T
   8   -190.1456579 -0.212893E-07  0.124E-03    0.98       8.4  T
   9   -190.1456580 -0.611133E-07  0.743E-04    0.98      14.1  T
  10   -190.1456580 -0.259313E-07  0.445E-04    0.98      23.6  T
     SCC iter.                  ...        0 min,  0.138 sec
     gradient                   ...        0 min,  0.029 sec
 * total energy  :  -187.5339352 Eh     change       -0.1298437E-02 Eh
   gradient norm :     0.0203871 Eh/α   predicted    -0.1348961E-02 (   3.89%)
   displ. norm   :     0.7256171 α      lambda       -0.1599245E-02
   maximum displ.:     0.5405578 α      in ANC's #7, #2, #5, ...
 * RMSD in coord.:     1.3919713 α      energy gain  -0.2448170E-01 Eh

generating ANC from model Hessian ...
Using Lindh-Hessian (1995)
 Shifting diagonal of input Hessian by   1.035779481031688E-002
 Lowest  eigenvalues of input Hessian
    0.010000    0.000000    0.000000    0.000000    0.000000    0.000000
    0.000000    0.010387    0.010403    0.010439    0.010468    0.010505
    0.010564    0.010765    0.010955    0.011146    0.011321    0.011380
 Highest eigenvalues
    2.264070    2.366989    2.597699    2.601073    2.637504    2.661006
 

........................................................................
.............................. CYCLE   43 ..............................
........................................................................
   1   -190.1579023 -0.190158E+03  0.140E-01    0.99       0.0  T
   2   -190.1579187 -0.163693E-04  0.789E-02    0.98       1.0  T
   3   -190.1576380  0.280671E-03  0.542E-02    1.00       1.0  T
   4   -190.1579515 -0.313439E-03  0.111E-02    0.98       1.0  T
   5   -190.1579536 -0.206934E-05  0.767E-03    0.99       1.4  T
   6   -190.1579571 -0.358871E-05  0.396E-03    0.99       2.6  T
   7   -190.1579578 -0.641507E-06  0.167E-03    0.99       6.3  T
   8   -190.1579578 -0.542288E-07  0.112E-03    0.99       9.3  T
   9   -190.1579579 -0.232799E-07  0.616E-04    0.99      17.0  T
  10   -190.1579579 -0.137054E-07  0.357E-04    0.99      29.3  T
     SCC iter.                  ...        0 min,  0.140 sec
     gradient                   ...        0 min,  0.029 sec
 * total energy  :  -187.5351525 Eh     change       -0.1217301E-02 Eh
   gradient norm :     0.0131399 Eh/α   predicted     0.0000000E+00 (-100.00%)
   displ. norm   :     0.1574579 α      lambda       -0.5808129E-03
   maximum displ.:     0.0866532 α      in ANC's #7, #2, #6, ...

........................................................................
.............................. CYCLE   44 ..............................
........................................................................
   1   -190.1622423 -0.190162E+03  0.521E-02    0.99       0.0  T
   2   -190.1622458 -0.348853E-05  0.301E-02    0.99       1.0  T
   3   -190.1622198  0.259754E-04  0.170E-02    0.99       1.0  T
   4   -190.1622480 -0.281264E-04  0.404E-03    0.98       2.6  T
   5   -190.1622491 -0.107460E-05  0.227E-03    0.99       4.6  T
   6   -190.1622493 -0.281677E-06  0.127E-03    0.99       8.3  T
   7   -190.1622494 -0.779858E-07  0.678E-04    0.99      15.5  T
   8   -190.1622494 -0.101260E-07  0.512E-04    0.99      20.5  T
     SCC iter.                  ...        0 min,  0.115 sec
     gradient                   ...        0 min,  0.029 sec
 * total energy  :  -187.5354916 Eh     change       -0.3390854E-03 Eh
   gradient norm :     0.0060933 Eh/α   predicted    -0.2976327E-03 ( -12.22%)
   displ. norm   :     0.3577078 α      lambda       -0.8598893E-03
   maximum displ.:     0.1870758 α      in ANC's #7, #2, #6, ...

........................................................................
.............................. CYCLE   45 ..............................
........................................................................
   1   -190.1669430 -0.190167E+03  0.176E-01    0.99       0.0  T
   2   -190.1669771 -0.340844E-04  0.980E-02    0.98       1.0  T
   3   -190.1668485  0.128575E-03  0.366E-02    0.99       1.0  T
   4   -190.1669955 -0.147006E-03  0.815E-03    0.98       1.3  T
   5   -190.1669995 -0.402063E-05  0.470E-03    0.99       2.2  T
   6   -190.1670005 -0.952081E-06  0.271E-03    0.98       3.9  T
   7   -190.1670009 -0.401551E-06  0.146E-03    0.98       7.2  T
   8   -190.1670009 -0.427019E-07  0.115E-03    0.98       9.1  T
   9   -190.1670010 -0.386855E-07  0.704E-04    0.98      14.9  T
  10   -190.1670010 -0.194113E-07  0.440E-04    0.98      23.8  T
     SCC iter.                  ...        0 min,  0.141 sec
     gradient                   ...        0 min,  0.029 sec
 * total energy  :  -187.5358955 Eh     change       -0.4039360E-03 Eh
   gradient norm :     0.0142515 Eh/α   predicted    -0.4849582E-03 (  20.06%)
   displ. norm   :     0.2820117 α      lambda       -0.5503518E-03
   maximum displ.:     0.1636145 α      in ANC's #7, #2, #6, ...

........................................................................
.............................. CYCLE   46 ..............................
........................................................................
   1   -190.1661295 -0.190166E+03  0.657E-02    0.99       0.0  T
   2   -190.1661337 -0.427143E-05  0.365E-02    0.98       1.0  T
   3   -190.1661096  0.241228E-04  0.155E-02    0.99       1.0  T
   4   -190.1661366 -0.269706E-04  0.386E-03    0.98       2.7  T
   5   -190.1661371 -0.517051E-06  0.264E-03    0.98       4.0  T
   6   -190.1661374 -0.331913E-06  0.126E-03    0.98       8.3  T
   7   -190.1661375 -0.679705E-07  0.762E-04    0.98      13.8  T
   8   -190.1661375 -0.110298E-07  0.546E-04    0.98      19.2  T
     SCC iter.                  ...        0 min,  0.117 sec
     gradient                   ...        0 min,  0.029 sec
 * total energy  :  -187.5363700 Eh     change       -0.4744827E-03 Eh
   gradient norm :     0.0104825 Eh/α   predicted    -0.2970633E-03 ( -37.39%)
   displ. norm   :     0.5446471 α      lambda       -0.9858789E-03
   maximum displ.:     0.3052695 α      in ANC's #7, #6, #2, ...

........................................................................
.............................. CYCLE   47 ..............................
........................................................................
   1   -190.1623117 -0.190162E+03  0.124E-01    0.99       0.0  T
   2   -190.1623262 -0.144973E-04  0.691E-02    0.99       1.0  T
   3   -190.1622753  0.509024E-04  0.256E-02    0.99       1.0  T
   4   -190.1623354 -0.600379E-04  0.679E-03    0.99       1.5  T
   5   -190.1623352  0.152237E-06  0.470E-03    0.99       2.2  T
   6   -190.1623365 -0.130867E-05  0.215E-03    0.99       4.9  T
   7   -190.1623367 -0.161559E-06  0.141E-03    0.99       7.4  T
   8   -190.1623367 -0.321329E-07  0.973E-04    0.99      10.8  T
   9   -190.1623368 -0.369139E-07  0.583E-04    0.99      18.0  T
     SCC iter.                  ...        0 min,  0.129 sec
     gradient                   ...        0 min,  0.029 sec
 * total energy  :  -187.5371031 Eh     change       -0.7331141E-03 Eh
   gradient norm :     0.0121807 Eh/α   predicted    -0.6391673E-03 ( -12.81%)
   displ. norm   :     0.6524928 α      lambda       -0.1076216E-02
   maximum displ.:     0.3732408 α      in ANC's #7, #2, #6, ...

........................................................................
.............................. CYCLE   48 ..............................
........................................................................
   1   -190.1515486 -0.190152E+03  0.205E-01    0.99       0.0  T
   2   -190.1515956 -0.470300E-04  0.114E-01    0.99       1.0  T
   3   -190.1514958  0.998362E-04  0.370E-02    0.99       1.0  T
   4   -190.1516204 -0.124644E-03  0.797E-03    0.99       1.3  T
   5   -190.1516206 -0.148929E-06  0.522E-03    0.99       2.0  T
   6   -190.1516223 -0.171319E-05  0.216E-03    0.99       4.9  T
   7   -190.1516224 -0.116861E-06  0.137E-03    0.99       7.6  T
   8   -190.1516224 -0.497322E-07  0.937E-04    0.99      11.2  T
   9   -190.1516225 -0.219087E-07  0.642E-04    0.99      16.3  T
     SCC iter.                  ...        0 min,  0.125 sec
     gradient                   ...        0 min,  0.029 sec
 * total energy  :  -187.5375417 Eh     change       -0.4385765E-03 Eh
   gradient norm :     0.0263402 Eh/α   predicted    -0.7672088E-03 (  74.93%)
   displ. norm   :     0.4353606 α      lambda       -0.1215968E-02
   maximum displ.:     0.2448965 α      in ANC's #7, #6, #2, ...

........................................................................
.............................. CYCLE   49 ..............................
........................................................................
   1   -190.1568954 -0.190157E+03  0.993E-02    0.99       0.0  T
   2   -190.1569095 -0.140668E-04  0.552E-02    0.99       1.0  T
   3   -190.1568716  0.378551E-04  0.201E-02    0.99       1.0  T
   4   -190.1569143 -0.426758E-04  0.526E-03    0.99       2.0  T
   5   -190.1569152 -0.916892E-06  0.360E-03    0.99       2.9  T
   6   -190.1569163 -0.104716E-05  0.126E-03    0.99       8.3  T
   7   -190.1569163 -0.481971E-07  0.686E-04    0.99      15.3  T
   8   -190.1569163 -0.147413E-07  0.476E-04    0.99      22.0  T
     SCC iter.                  ...        0 min,  0.110 sec
     gradient                   ...        0 min,  0.029 sec
 * total energy  :  -187.5383607 Eh     change       -0.8190153E-03 Eh
   gradient norm :     0.0138060 Eh/α   predicted    -0.7232219E-03 ( -11.70%)
   displ. norm   :     0.5750405 α      lambda       -0.1003339E-02
   maximum displ.:     0.3426174 α      in ANC's #7, #2, #6, ...

........................................................................
.............................. CYCLE   50 ..............................
........................................................................
   1   -190.1627873 -0.190163E+03  0.117E-01    0.99       0.0  T
   2   -190.1627984 -0.111041E-04  0.654E-02    0.99       1.0  T
   3   -190.1626844  0.113953E-03  0.328E-02    1.00       1.0  T
   4   -190.1628102 -0.125775E-03  0.654E-03    0.99       1.6  T
   5   -190.1628123 -0.207101E-05  0.398E-03    0.99       2.6  T
   6   -190.1628133 -0.981050E-06  0.149E-03    0.99       7.0  T
   7   -190.1628134 -0.118930E-06  0.764E-04    0.99      13.7  T
   8   -190.1628134 -0.137619E-07  0.557E-04    0.99      18.8  T
     SCC iter.                  ...        0 min,  0.109 sec
     gradient                   ...        0 min,  0.029 sec
 * total energy  :  -187.5391424 Eh     change       -0.7817040E-03 Eh
   gradient norm :     0.0122747 Eh/α   predicted    -0.6675574E-03 ( -14.60%)
   displ. norm   :     0.7497748 α      lambda       -0.1009485E-02
   maximum displ.:     0.4555196 α      in ANC's #7, #2, #6, ...

........................................................................
.............................. CYCLE   51 ..............................
........................................................................
   1   -190.1644740 -0.190164E+03  0.129E-01    1.00       0.0  T
   2   -190.1644856 -0.116455E-04  0.722E-02    0.99       1.0  T
   3   -190.1643257  0.159955E-03  0.383E-02    1.00       1.0  T
   4   -190.1645011 -0.175400E-03  0.803E-03    0.99       1.3  T
   5   -190.1645044 -0.334798E-05  0.461E-03    0.99       2.3  T
   6   -190.1645057 -0.128437E-05  0.160E-03    0.99       6.6  T
   7   -190.1645058 -0.125414E-06  0.856E-04    0.99      12.2  T
   8   -190.1645059 -0.165233E-07  0.637E-04    0.99      16.5  T
[...]
    35   6 C        3.748    -0.007    20.774     6.501
    36   6 C        3.752    -0.111    22.689     6.793
    37   6 C        3.069     0.030    27.265     8.562
    38   6 C        3.069     0.027    27.341     8.574
    39   7 N        2.801    -0.033    21.870     6.946
    40   6 C        3.258     0.029    26.247     8.281
    41   6 C        3.089    -0.027    28.559     8.760
    42  34 Se       2.412     0.007   235.493    26.740
    43   6 C        3.743     0.001    20.627     6.479
    44   6 C        3.751    -0.118    22.829     6.814
    45   6 C        3.087    -0.025    28.532     8.756
    46   6 C        3.158     0.023    27.174     8.523
    47  16 S        2.167    -0.022   141.962    20.053
    48   6 C        3.056    -0.038    28.888     8.814
    49   6 C        2.969     0.013    27.715     8.635
    50  34 Se       2.428     0.022   235.014    26.712
    51   6 C        2.916    -0.008    28.209     8.710
    52   6 C        3.012    -0.039    28.939     8.824
    53   6 C        2.881     0.228    23.223     7.900
    54   8 O        1.063    -0.319    20.029     6.005
    55   6 C        3.082    -0.030    28.653     8.775
    56   6 C        2.912     0.092    25.950     8.353
    57  17 Cl       0.992    -0.068   101.293    15.398
    58   6 C        2.960     0.075    26.326     8.416
    59  17 Cl       1.032    -0.074   101.483    15.412
    60   6 C        2.964     0.077    26.268     8.407
    61  17 Cl       1.056    -0.071   101.397    15.406
    62   6 C        2.914     0.083    26.150     8.386
    63  17 Cl       1.015    -0.080   101.665    15.426
    64   6 C        3.059    -0.003    28.037     8.683
    65   6 C        3.025     0.035    27.191     8.553
    66   6 C        2.947     0.015    27.677     8.629
    67   6 C        1.952     0.124    28.032     8.550
    68   7 N        0.911    -0.225    25.924     7.364
    69   6 C        1.959     0.125    28.008     8.546
    70   7 N        0.911    -0.218    25.754     7.340
    71   1 H        0.925     0.064     2.158     2.297
    72   1 H        0.924     0.092     1.861     2.133
    73   1 H        0.924     0.065     2.143     2.289
    74   1 H        0.926     0.047     2.352     2.398
    75   1 H        0.926     0.045     2.389     2.417
    76   1 H        0.926     0.039     2.456     2.451
    77   1 H        0.926     0.037     2.494     2.469
    78   1 H        0.925     0.022     2.701     2.570
    79   1 H        0.926     0.053     2.284     2.363
    80   1 H        0.923     0.073     2.051     2.240
    81   1 H        0.925     0.070     2.082     2.256
    82   1 H        0.925     0.055     2.260     2.351
    83   1 H        0.925     0.047     2.351     2.398
    84   1 H        0.925     0.057     2.234     2.337
    85   1 H        0.923     0.068     2.105     2.269
    86   1 H        0.924     0.057     2.233     2.337
    87   1 H        0.925     0.056     2.251     2.346
    88   1 H        0.925     0.071     2.079     2.255
    89   1 H        0.925     0.059     2.216     2.328
    90   1 H        0.926     0.061     2.189     2.314
    91   1 H        0.925     0.069     2.099     2.266

 Mol. C6AA /au·bohr⁶  :     208254.267132
 Mol. C8AA /au·bohr⁸  :    6601420.743323
 Mol. α(0) /au        :        731.069484


Wiberg/Mayer (AO) data.
largest (>0.10) Wiberg bond orders for each atom

 ---------------------------------------------------------------------------
     #   Z sym  total        # sym  WBO       # sym  WBO       # sym  WBO
 ---------------------------------------------------------------------------
     1   6 C    3.953 --     2 C    1.508    20 C    1.294    71 H    0.952
     2   6 C    3.911 --     1 C    1.508    18 C    1.122     3 S    1.055
     3  16 S    2.495 --     4 C    1.106     2 C    1.055
     4   6 C    3.945 --     5 C    1.437    10 N    1.180     3 S    1.106
     5   6 C    3.935 --     4 C    1.437     6 C    1.110     8 C    1.095
     6   6 C    3.950 --     7 N    2.753     5 C    1.110
     7   7 N    2.983 --     6 C    2.753
     8   6 C    3.950 --     9 N    2.776     5 C    1.095
     9   7 N    2.987 --     8 C    2.776
    10   7 N    3.585 --     4 C    1.180    18 C    1.128    11 C    0.962
                            19 O    0.113
    11   6 C    3.948 --    12 C    0.991    10 N    0.962    73 H    0.959
                            72 H    0.945
    12   6 C    3.983 --    17 C    1.418    13 C    1.411    11 C    0.991
                            15 C    0.109
    13   6 C    3.990 --    14 C    1.445    12 C    1.411    74 H    0.967
                            16 C    0.112
    14   6 C    3.991 --    13 C    1.445    15 C    1.438    75 H    0.970
                            17 C    0.111
    15   6 C    3.991 --    16 C    1.441    14 C    1.438    76 H    0.971
                            12 C    0.109
    16   6 C    3.992 --    17 C    1.441    15 C    1.441    77 H    0.971
                            13 C    0.112
    17   6 C    3.992 --    16 C    1.441    12 C    1.418    78 H    0.969
                            14 C    0.111
    18   6 C    3.935 --    19 O    1.556    10 N    1.128     2 C    1.122
    19   8 O    2.148 --    18 C    1.556    42 Se   0.255    10 N    0.113
    20   6 C    3.943 --    21 C    1.377     1 C    1.294    42 Se   1.092
    21   6 C    3.967 --    22 C    1.385    20 C    1.377    79 H    0.960
                            42 Se   0.102
    22   6 C    3.929 --    21 C    1.385    41 C    1.287    23 S    1.085
    23  16 S    2.508 --    24 C    1.113    22 C    1.085
    24   6 C    3.915 --    40 C    1.296    25 C    1.283    23 S    1.113
    25   6 C    3.949 --    24 C    1.283    38 C    1.260    26 C    1.170
    26   6 C    3.972 --    30 N    1.428    25 C    1.170    27 C    1.169
                            29 S    0.101
    27   6 C    3.972 --    28 N    1.429    31 C    1.169    26 C    1.169
                            29 S    0.101
    28   7 N    3.074 --    27 C    1.429    29 S    1.393    30 N    0.147
    29  16 S    3.109 --    28 N    1.393    30 N    1.393    27 C    0.101
                            26 C    0.101
    30   7 N    3.074 --    26 C    1.428    29 S    1.393    28 N    0.147
    31   6 C    3.952 --    32 C    1.284    37 C    1.260    27 C    1.169
    32   6 C    3.915 --    33 C    1.291    31 C    1.284    47 S    1.117
    33   6 C    3.929 --    32 C    1.291    45 C    1.273    34 N    1.147
    34   7 N    3.545 --    37 C    1.169    33 C    1.147    35 C    0.982
    35   6 C    3.962 --    36 C    1.005    34 N    0.982    81 H    0.955
                            80 H    0.948
    36   6 C    3.987 --    35 C    1.005    83 H    0.985    84 H    0.982
                            82 H    0.980
    37   6 C    3.923 --    31 C    1.260    38 C    1.229    34 N    1.169
    38   6 C    3.925 --    25 C    1.260    37 C    1.229    39 N    1.171
    39   7 N    3.557 --    38 C    1.171    40 C    1.154    43 C    0.985
    40   6 C    3.929 --    24 C    1.296    41 C    1.261    39 N    1.154
    41   6 C    3.947 --    22 C    1.287    40 C    1.261    42 Se   1.159
    42  34 Se   2.946 --    41 C    1.159    20 C    1.092    19 O    0.255
                            21 C    0.102
    43   6 C    3.966 --    44 C    1.006    39 N    0.985    86 H    0.962
                            85 H    0.953
    44   6 C    3.984 --    43 C    1.006    89 H    0.982    87 H    0.980
                            88 H    0.962
    45   6 C    3.946 --    33 C    1.273    46 C    1.266    50 Se   1.167
    46   6 C    3.929 --    48 C    1.414    45 C    1.266    47 S    1.081
    47  16 S    2.509 --    32 C    1.117    46 C    1.081
    48   6 C    3.959 --    46 C    1.414    49 C    1.345    90 H    0.959
                            50 Se   0.105
    49   6 C    3.943 --    48 C    1.345    51 C    1.339    50 Se   1.080
    50  34 Se   2.952 --    45 C    1.167    49 C    1.080    54 O    0.272
                            48 C    0.105
    51   6 C    3.938 --    52 C    1.452    49 C    1.339    91 H    0.940
    52   6 C    3.949 --    51 C    1.452    65 C    1.130    53 C    1.105
    53   6 C    3.923 --    54 O    1.645    52 C    1.105    55 C    1.028
    54   8 O    2.200 --    53 C    1.645    50 Se   0.272
    55   6 C    3.970 --    56 C    1.378    64 C    1.268    53 C    1.028
    56   6 C    3.930 --    55 C    1.378    58 C    1.311    57 Cl   1.042
    57  17 Cl   1.212 --    56 C    1.042
    58   6 C    3.925 --    60 C    1.368    56 C    1.311    59 Cl   1.033
    59  17 Cl   1.194 --    58 C    1.033
    60   6 C    3.928 --    58 C    1.368    62 C    1.312    61 Cl   1.036
    61  17 Cl   1.197 --    60 C    1.036
    62   6 C    3.922 --    64 C    1.371    60 C    1.312    63 Cl   1.028
    63  17 Cl   1.208 --    62 C    1.028
    64   6 C    3.975 --    62 C    1.371    55 C    1.268    65 C    1.083
    65   6 C    3.968 --    66 C    1.492    52 C    1.130    64 C    1.083
    66   6 C    3.942 --    65 C    1.492    67 C    1.093    69 C    1.092
    67   6 C    3.946 --    68 N    2.761    66 C    1.093
    68   7 N    2.972 --    67 C    2.761
    69   6 C    3.946 --    70 N    2.769    66 C    1.092
    70   7 N    2.974 --    69 C    2.769
    71   1 H    0.995 --     1 C    0.952
    72   1 H    0.991 --    11 C    0.945
    73   1 H    0.994 --    11 C    0.959
    74   1 H    0.998 --    13 C    0.967
    75   1 H    0.997 --    14 C    0.970
    76   1 H    0.998 --    15 C    0.971
    77   1 H    0.998 --    16 C    0.971
    78   1 H    1.000 --    17 C    0.969
    79   1 H    0.997 --    21 C    0.960
    80   1 H    0.993 --    35 C    0.948
    81   1 H    0.994 --    35 C    0.955
    82   1 H    0.997 --    36 C    0.980
    83   1 H    0.998 --    36 C    0.985
    84   1 H    0.996 --    36 C    0.982
    85   1 H    0.993 --    43 C    0.953
    86   1 H    0.996 --    43 C    0.962
    87   1 H    0.997 --    44 C    0.980
    88   1 H    0.995 --    44 C    0.962
    89   1 H    0.996 --    44 C    0.982
    90   1 H    0.996 --    48 C    0.959
    91   1 H    0.994 --    51 C    0.940
 ---------------------------------------------------------------------------

Topologies differ in bond orders
Writing corrected topology to xtbtopo.mol

molecular dipole:
                 x           y           z       tot (Debye)
 q only:        1.272       0.286       0.429
   full:        1.404       0.287      -0.041       3.645
molecular quadrupole (traceless):
                xx          xy          yy          xz          yz          zz
 q only:       81.518      -4.517     -10.746     -19.443    -110.684     -70.772
  q+dip:       88.425      -3.302     -38.936     -23.132    -126.167     -49.489
   full:       95.128      -0.977     -42.862     -27.929    -124.945     -52.266

           -------------------------------------------------
          |                Geometry Summary                 |
           -------------------------------------------------

      molecular mass/u    :     1195.7416307
   center of mass at/Å    :       -0.3876821      -0.2132174      -0.3577725
  moments of inertia/u·Å² :        0.1588610E+05   0.6968216E+05   0.8416503E+05
rotational constants/cm⁻¹ :        0.1061156E-02   0.2419218E-03   0.2002926E-03

 * 90 selected distances

     #   Z          #   Z                                           value/Å
     1   6 C        2   6 C                                       1.3668150
     3  16 S        4   6 C                                       1.7475036
     4   6 C        5   6 C                                       1.3713014
     6   6 C        7   7 N                                       1.1484327
     8   6 C        9   7 N                                       1.1468756
     4   6 C       10   7 N                                       1.3628256
    10   7 N       11   6 C                                       1.4496939
    12   6 C       13   6 C                                       1.3881320
    13   6 C       14   6 C                                       1.3830807
    14   6 C       15   6 C                                       1.3847197
    15   6 C       16   6 C                                       1.3838919
    12   6 C       17   6 C                                       1.3888081
    16   6 C       17   6 C                                       1.3837911
     2   6 C       18   6 C                                       1.4362649
    10   7 N       18   6 C                                       1.3797059
    18   6 C       19   8 O                                       1.2275308
     1   6 C       20   6 C                                       1.4034993
    20   6 C       21   6 C                                       1.3945506
    21   6 C       22   6 C                                       1.3837276
    22   6 C       23  16 S                                       1.7536274
    23  16 S       24   6 C                                       1.7288674
    24   6 C       25   6 C                                       1.4000133
    25   6 C       26   6 C                                       1.4128557
    26   6 C       27   6 C                                       1.4328685
    27   6 C       28   7 N                                       1.3234953
    28   7 N       29  16 S                                       1.6185098
    26   6 C       30   7 N                                       1.3235512
    29  16 S       30   7 N                                       1.6186056
    27   6 C       31   6 C                                       1.4129983
    31   6 C       32   6 C                                       1.4000526
    32   6 C       33   6 C                                       1.4001675
    33   6 C       34   7 N                                       1.3715539
    34   7 N       35   6 C                                       1.4458294
    35   6 C       36   6 C                                       1.5272698
    31   6 C       37   6 C                                       1.4290335
    34   7 N       37   6 C                                       1.3839087
    25   6 C       38   6 C                                       1.4282992
    37   6 C       38   6 C                                       1.4193477
    38   6 C       39   7 N                                       1.3816565
    24   6 C       40   6 C                                       1.3997925
    39   7 N       40   6 C                                       1.3688112
    22   6 C       41   6 C                                       1.4099668
    40   6 C       41   6 C                                       1.3979046
    41   6 C       42  34 Se                                      1.8652632 (max)
    39   7 N       43   6 C                                       1.4438130
    43   6 C       44   6 C                                       1.5287680
    33   6 C       45   6 C                                       1.3948967
    45   6 C       46   6 C                                       1.4139748
    32   6 C       47  16 S                                       1.7287666
    46   6 C       47  16 S                                       1.7559189
    46   6 C       48   6 C                                       1.3790434
    48   6 C       49   6 C                                       1.4011256
    45   6 C       50  34 Se                                      1.8638293
    49   6 C       51   6 C                                       1.3968294
    51   6 C       52   6 C                                       1.3783359
    53   6 C       54   8 O                                       1.2244163
    55   6 C       56   6 C                                       1.3835032
    56   6 C       57  17 Cl                                      1.7055067
    56   6 C       58   6 C                                       1.4022050
    58   6 C       59  17 Cl                                      1.7095691
    58   6 C       60   6 C                                       1.3936266
    60   6 C       61  17 Cl                                      1.7100127
    60   6 C       62   6 C                                       1.4059835
    62   6 C       63  17 Cl                                      1.7145687
    55   6 C       64   6 C                                       1.4114017
    62   6 C       64   6 C                                       1.3886226
    65   6 C       66   6 C                                       1.3706446
    67   6 C       68   7 N                                       1.1485672
    69   6 C       70   7 N                                       1.1475692
     1   6 C       71   1 H                                       1.0852844
    11   6 C       72   1 H                                       1.0969935
    11   6 C       73   1 H                                       1.0924548
    13   6 C       74   1 H                                       1.0791986
    14   6 C       75   1 H                                       1.0792668
    15   6 C       76   1 H                                       1.0796080
    16   6 C       77   1 H                                       1.0800095
    17   6 C       78   1 H                                       1.0818873
    21   6 C       79   1 H                                       1.0767587 (min)
    35   6 C       80   1 H                                       1.0980152
    35   6 C       81   1 H                                       1.0823005
    36   6 C       82   1 H                                       1.0881471
    36   6 C       83   1 H                                       1.0884374
    36   6 C       84   1 H                                       1.0862440
    43   6 C       85   1 H                                       1.0988087
    43   6 C       86   1 H                                       1.0911810
    44   6 C       87   1 H                                       1.0872491
    44   6 C       88   1 H                                       1.0900101
    44   6 C       89   1 H                                       1.0863864
    48   6 C       90   1 H                                       1.0769668
    51   6 C       91   1 H                                       1.0841200

 * 8 distinct bonds (by element types)

   Z      Z             #   av. dist./Å        max./Å        min./Å
   1 H    6 C          21     1.0861585     1.0988087     1.0767587
   6 C    6 C          39     1.4048234     1.5287680     1.3668150
   6 C    7 N          15     1.3217526     1.4496939     1.1468756
   6 C    8 O           2     1.2259735     1.2275308     1.2244163
   6 C   16 S           5     1.7429368     1.7559189     1.7287666
   7 N   16 S           2     1.6185577     1.6186056     1.6185098
   6 C   17 Cl          4     1.7099143     1.7145687     1.7055067
   6 C   34 Se          2     1.8645463     1.8652632     1.8638293


optimized geometry written to: xtbopt.mol


           -------------------------------------------------
          | TOTAL ENERGY             -187.573457191068 Eh   |
          | GRADIENT NORM               0.000988027691 Eh/α |
          | HOMO-LUMO GAP               0.935814628251 eV   |
           -------------------------------------------------

------------------------------------------------------------------------
 * finished run on 2022/02/02 at 10:54:09.595     
------------------------------------------------------------------------
 total:
 * wall-time:     0 d,  0 h,  0 min, 38.532 sec
 *  cpu-time:     0 d,  0 h,  5 min,  8.031 sec
 * ratio c/w:     7.994 speedup
 SCF:
 * wall-time:     0 d,  0 h,  0 min,  0.325 sec
 *  cpu-time:     0 d,  0 h,  0 min,  2.582 sec
 * ratio c/w:     7.933 speedup
 ANC optimizer:
 * wall-time:     0 d,  0 h,  0 min, 38.146 sec
 *  cpu-time:     0 d,  0 h,  5 min,  5.045 sec
 * ratio c/w:     7.997 speedup

