      -----------------------------------------------------------      
     |                   =====================                   |     
     |                           x T B                           |     
     |                   =====================                   |     
     |                         S. Grimme                         |     
     |          Mulliken Center for Theoretical Chemistry        |     
     |                    University of Bonn                     |     
      -----------------------------------------------------------      

   * xtb version 6.4.1 (unknown) compiled by 'oda6@login1.crc.pitt.edu' on 2021-06-25

   xtb is free software: you can redistribute it and/or modify it under
   the terms of the GNU Lesser General Public License as published by
   the Free Software Foundation, either version 3 of the License, or
   (at your option) any later version.
   
   xtb is distributed in the hope that it will be useful,
   but WITHOUT ANY WARRANTY; without even the implied warranty of
   MERCHANTABILITY or FITNESS FOR A PARTICULAR PURPOSE.  See the
   GNU Lesser General Public License for more details.
   
   Cite this work as:
   * C. Bannwarth, E. Caldeweyher, S. Ehlert, A. Hansen, P. Pracht,
     J. Seibert, S. Spicher, S. Grimme, WIREs Comput. Mol. Sci., 2020, 11,
     e01493. DOI: 10.1002/wcms.1493
   
   for GFN2-xTB:
   * C. Bannwarth, S. Ehlert and S. Grimme., J. Chem. Theory Comput., 2019,
     15, 1652-1671. DOI: 10.1021/acs.jctc.8b01176
   for GFN1-xTB:
   * S. Grimme, C. Bannwarth, P. Shushkov, J. Chem. Theory Comput., 2017,
     13, 1989-2009. DOI: 10.1021/acs.jctc.7b00118
   for GFN0-xTB:
   * P. Pracht, E. Caldeweyher, S. Ehlert, S. Grimme, ChemRxiv, 2019, preprint.
     DOI: 10.26434/chemrxiv.8326202.v1
   for GFN-FF:
   * S. Spicher and S. Grimme, Angew. Chem. Int. Ed., 2020, 59, 15665-15673.
     DOI: 10.1002/anie.202004239
   
   for DFT-D4:
   * E. Caldeweyher, C. Bannwarth and S. Grimme, J. Chem. Phys., 2017,
     147, 034112. DOI: 10.1063/1.4993215
   * E. Caldeweyher, S. Ehlert, A. Hansen, H. Neugebauer, S. Spicher,
     C. Bannwarth and S. Grimme, J. Chem. Phys., 2019, 150, 154122.
     DOI: 10.1063/1.5090222
   * E. Caldeweyher, J.-M. Mewes, S. Ehlert and S. Grimme, Phys. Chem. Chem. Phys.
     2020, 22, 8499-8512. DOI: 10.1039/D0CP00502A
   
   for sTDA-xTB:
   * S. Grimme and C. Bannwarth, J. Chem. Phys., 2016, 145, 054103.
     DOI: 10.1063/1.4959605
   
   in the mass-spec context:
   * V. Asgeirsson, C. Bauer and S. Grimme, Chem. Sci., 2017, 8, 4879.
     DOI: 10.1039/c7sc00601b
   * J. Koopman and S. Grimme, ACS Omega 2019, 4, 12, 15120-15133.
     DOI: 10.1021/acsomega.9b02011
   
   for metadynamics refer to:
   * S. Grimme, J. Chem. Theory Comput., 2019, 155, 2847-2862
     DOI: 10.1021/acs.jctc.9b00143
   
   for SPH calculations refer to:
   * S. Spicher and S. Grimme, J. Chem. Theory Comput., 2021, 17, 1701-1714
     DOI: 10.1021/acs.jctc.0c01306
   
   with help from (in alphabetical order)
   P. Atkinson, C. Bannwarth, F. Bohle, G. Brandenburg, E. Caldeweyher
   M. Checinski, S. Dohm, S. Ehlert, S. Ehrlich, I. Gerasimov, J. Koopman
   C. Lavigne, S. Lehtola, F. März, M. Müller, F. Musil, H. Neugebauer
   J. Pisarek, C. Plett, P. Pracht, J. Seibert, P. Shushkov, S. Spicher
   M. Stahn, M. Steiner, T. Strunk, J. Stückrath, T. Rose, and J. Unsleber
   
 * started run on 2022/01/21 at 12:56:08.499     

           -------------------------------------------------
          |                Calculation Setup                |
           -------------------------------------------------

          program call               : /ihome/ghutchison/oda6/xtb/xtb-641/bin/xtb ../../FF_optimized/54_28_54.mol -opt
          hostname                   : smp-n28
          coordinate file            : ../../FF_optimized/54_28_54.mol
          omp threads                :                     8
          number of atoms            :                    64
          number of electrons        :                   234
          charge                     :                     0
          spin                       :                   0.0
          first test random number   :      0.22674622492559

   ID    Z sym.   atoms
    1    6 C      1-3, 5-8, 10-14, 16, 18-21, 23, 24, 26-29, 32-36, 38-41,
                  43-47, 49
    2    8 O      4, 37
    3    9 F      9, 42
    4    7 N      15, 17, 22, 25, 48, 50
    5   16 S      30, 31
    6    1 H      51-64
########################################################################
[WARNING] Please study the warnings concerning your input carefully
-1- prog_main_parseArguments: the use of '-opt' is discouraged, please use '--opt' next time
########################################################################

           -------------------------------------------------
          |                 G F N 2 - x T B                 |
           -------------------------------------------------

        Reference                      10.1021/acs.jctc.8b01176
      * Hamiltonian:
        H0-scaling (s, p, d)           1.850000    2.230000    2.230000
        zeta-weighting                 0.500000
      * Dispersion:
        s8                             2.700000
        a1                             0.520000
        a2                             5.000000
        s9                             5.000000
      * Repulsion:
        kExp                           1.500000    1.000000
        rExp                           1.000000
      * Coulomb:
        alpha                          2.000000
        third order                    shell-resolved
        anisotropic                    true
        a3                             3.000000
        a5                             4.000000
        cn-shift                       1.200000
        cn-exp                         4.000000
        max-rad                        5.000000


          ...................................................
          :                      SETUP                      :
          :.................................................:
          :  # basis functions                 226          :
          :  # atomic orbitals                 224          :
          :  # shells                          116          :
          :  # electrons                       234          :
          :  max. iterations                   250          :
          :  Hamiltonian                  GFN2-xTB          :
          :  restarted?                      false          :
          :  GBSA solvation                  false          :
          :  PC potential                    false          :
          :  electronic temp.          300.0000000     K    :
          :  accuracy                    1.0000000          :
          :  -> integral cutoff          0.2500000E+02      :
          :  -> integral neglect         0.1000000E-07      :
          :  -> SCF convergence          0.1000000E-05 Eh   :
          :  -> wf. convergence          0.1000000E-03 e    :
          :  Broyden damping             0.4000000          :
          ...................................................

 iter      E             dE          RMSdq      gap      omega  full diag
   1   -131.5072235 -0.131507E+03  0.573E+00    1.29       0.0  T
   2   -131.5715384 -0.643150E-01  0.376E+00    1.01       1.0  T
   3   -131.5098058  0.617326E-01  0.255E+00    0.71       1.0  T
   4   -131.7293960 -0.219590E+00  0.838E-01    0.84       1.0  T
   5   -131.7687963 -0.394004E-01  0.214E-01    0.62       1.0  T
   6   -131.7695684 -0.772078E-03  0.888E-02    0.66       1.0  T
   7   -131.7698076 -0.239200E-03  0.423E-02    0.66       1.0  T
   8   -131.7698617 -0.541017E-04  0.193E-02    0.67       1.0  T
   9   -131.7698728 -0.110407E-04  0.830E-03    0.67       1.5  T
  10   -131.7698751 -0.232012E-05  0.385E-03    0.67       3.2  T
  11   -131.7698754 -0.345855E-06  0.158E-03    0.67       7.9  T
  12   -131.7698755 -0.526716E-07  0.850E-04    0.67      14.7  T
  13   -131.7698755 -0.186815E-07  0.414E-04    0.67      30.2  T

   *** convergence criteria satisfied after 13 iterations ***

         #    Occupation            Energy/Eh            Energy/eV
      -------------------------------------------------------------
         1        2.0000           -0.8435587             -22.9544
       ...           ...                  ...                  ...
       111        2.0000           -0.4286642             -11.6645
       112        2.0000           -0.4216749             -11.4744
       113        2.0000           -0.4192780             -11.4091
       114        2.0000           -0.4162598             -11.3270
       115        2.0000           -0.4131508             -11.2424
       116        2.0000           -0.3881282             -10.5615
       117        2.0000           -0.3743930             -10.1878 (HOMO)
       118        0.0000           -0.3499100              -9.5215 (LUMO)
       119                         -0.3411235              -9.2824
       120                         -0.3391522              -9.2288
       121                         -0.3319197              -9.0320
       122                         -0.3237868              -8.8107
       ...                                ...                  ...
       224                          1.0673286              29.0435
      -------------------------------------------------------------
                  HL-Gap            0.0244830 Eh            0.6662 eV
             Fermi-level           -0.3621515 Eh           -9.8546 eV

 SCC (total)                   0 d,  0 h,  0 min,  0.103 sec
 SCC setup                      ...        0 min,  0.000 sec (  0.350%)
 Dispersion                     ...        0 min,  0.002 sec (  1.555%)
 classical contributions        ...        0 min,  0.000 sec (  0.057%)
 integral evaluation            ...        0 min,  0.006 sec (  6.040%)
 iterations                     ...        0 min,  0.082 sec ( 79.299%)
 molecular gradient             ...        0 min,  0.013 sec ( 12.216%)
 printout                       ...        0 min,  0.000 sec (  0.415%)

         :::::::::::::::::::::::::::::::::::::::::::::::::::::
         ::                     SUMMARY                     ::
         :::::::::::::::::::::::::::::::::::::::::::::::::::::
         :: total energy            -129.824317098735 Eh    ::
         :: gradient norm              0.229738228376 Eh/a0 ::
         :: HOMO-LUMO gap              0.666216835224 eV    ::
         ::.................................................::
         :: SCC energy              -131.769875493424 Eh    ::
         :: -> isotropic ES            0.121307727538 Eh    ::
         :: -> anisotropic ES          0.005462506939 Eh    ::
         :: -> anisotropic XC          0.112295327841 Eh    ::
         :: -> dispersion             -0.096659503527 Eh    ::
         :: repulsion energy           1.946184691566 Eh    ::
         :: add. restraining           0.000000000000 Eh    ::
         :: total charge              -0.000000000547 e     ::
         :::::::::::::::::::::::::::::::::::::::::::::::::::::

      ----------------------------------------------------------- 
     |                   =====================                   |
     |                        A N C O P T                        |
     |                   =====================                   |
     |               Approximate Normal Coordinate               |
     |                Rational Function Optimizer                |
      ----------------------------------------------------------- 

          ...................................................
          :                      SETUP                      :
          :.................................................:
          :   optimization level            normal          :
          :   max. optcycles                   200          :
          :   ANC micro-cycles                  20          :
          :   degrees of freedom               186          :
          :.................................................:
          :   RF solver                   davidson          :
          :   write xtbopt.log                true          :
          :   linear?                        false          :
          :   energy convergence         0.5000000E-05 Eh   :
          :   grad. convergence          0.1000000E-02 Eh/α :
          :   maximium RF displ.         1.0000000          :
          :   Hlow (freq-cutoff)         0.1000000E-01      :
          :   Hmax (freq-cutoff)         5.0000000          :
          :   S6 in model hess.         20.0000000          :
          ...................................................

generating ANC from model Hessian ...
Using Lindh-Hessian (1995)
 Shifting diagonal of input Hessian by   9.986605618599091E-003
 Lowest  eigenvalues of input Hessian
    0.000000    0.000000    0.000000    0.000000    0.000000    0.000000
    0.010000    0.010016    0.010077    0.010204    0.010317    0.010377
    0.010499    0.010890    0.011145    0.011413    0.012051    0.012564
 Highest eigenvalues
    2.122807    2.125840    2.490878    2.501254    2.544104    2.555359
 

........................................................................
.............................. CYCLE    1 ..............................
........................................................................
   1   -131.7698755 -0.131770E+03  0.218E-04    0.67       0.0  T
   2   -131.7698755  0.244540E-09  0.189E-04    0.67      66.1  T
   3   -131.7698755 -0.181149E-08  0.916E-05    0.67     136.5  T
     SCC iter.                  ...        0 min,  0.019 sec
     gradient                   ...        0 min,  0.012 sec
 * total energy  :  -129.8243171 Eh     change       -0.6291401E-08 Eh
   gradient norm :     0.2297383 Eh/α   predicted     0.0000000E+00 (-100.00%)
   displ. norm   :     0.4049656 α      lambda       -0.5343483E-01
   maximum displ.:     0.1274025 α      in ANC's #89, #61, #77, ...

........................................................................
.............................. CYCLE    2 ..............................
........................................................................
   1   -131.9018525 -0.131902E+03  0.337E-01    0.66       0.0  T
   2   -131.9027584 -0.905912E-03  0.204E-01    0.80       1.0  T
   3   -131.9026752  0.831684E-04  0.117E-01    0.76       1.0  T
   4   -131.9030189 -0.343729E-03  0.423E-02    0.80       1.0  T
   5   -131.9031145 -0.955227E-04  0.139E-02    0.79       1.0  T
   6   -131.9031219 -0.742645E-05  0.649E-03    0.79       1.9  T
   7   -131.9031233 -0.144774E-05  0.267E-03    0.79       4.7  T
   8   -131.9031236 -0.277972E-06  0.107E-03    0.79      11.6  T
   9   -131.9031236 -0.107572E-07  0.572E-04    0.79      21.8  T
  10   -131.9031236 -0.896006E-08  0.274E-04    0.79      45.6  T
     SCC iter.                  ...        0 min,  0.055 sec
     gradient                   ...        0 min,  0.012 sec
 * total energy  :  -129.8614886 Eh     change       -0.3717147E-01 Eh
   gradient norm :     0.1008089 Eh/α   predicted    -0.3114217E-01 ( -16.22%)
   displ. norm   :     0.4713330 α      lambda       -0.2087792E-01
   maximum displ.:     0.1790583 α      in ANC's #30, #26, #22, ...

........................................................................
.............................. CYCLE    3 ..............................
........................................................................
   1   -131.9524674 -0.131952E+03  0.398E-01    0.75       0.0  T
   2   -131.9532014 -0.734008E-03  0.232E-01    0.90       1.0  T
   3   -131.9525119  0.689449E-03  0.143E-01    0.82       1.0  T
   4   -131.9535615 -0.104961E-02  0.504E-02    0.89       1.0  T
   5   -131.9537403 -0.178761E-03  0.165E-02    0.88       1.0  T
   6   -131.9537494 -0.914084E-05  0.658E-03    0.88       1.9  T
   7   -131.9537508 -0.136926E-05  0.299E-03    0.88       4.2  T
   8   -131.9537511 -0.266137E-06  0.123E-03    0.88      10.2  T
   9   -131.9537511 -0.438592E-07  0.672E-04    0.88      18.6  T
  10   -131.9537511 -0.134561E-07  0.247E-04    0.88      50.6  T
     SCC iter.                  ...        0 min,  0.056 sec
     gradient                   ...        0 min,  0.012 sec
 * total energy  :  -129.8733885 Eh     change       -0.1189997E-01 Eh
   gradient norm :     0.0432926 Eh/α   predicted    -0.1275805E-01 (   7.21%)
   displ. norm   :     0.5798459 α      lambda       -0.1055069E-01
   maximum displ.:     0.3045361 α      in ANC's #22, #4, #32, ...

........................................................................
.............................. CYCLE    4 ..............................
........................................................................
   1   -131.9661136 -0.131966E+03  0.524E-01    0.86       0.0  T
   2   -131.9664254 -0.311823E-03  0.298E-01    0.96       1.0  T
   3   -131.9641188  0.230664E-02  0.175E-01    0.87       1.0  T
   4   -131.9667802 -0.266138E-02  0.373E-02    0.95       1.0  T
   5   -131.9668728 -0.926937E-04  0.133E-02    0.95       1.0  T
   6   -131.9668756 -0.275481E-05  0.630E-03    0.94       2.0  T
   7   -131.9668770 -0.141503E-05  0.201E-03    0.94       6.2  T
   8   -131.9668771 -0.115518E-06  0.110E-03    0.94      11.3  T
   9   -131.9668772 -0.459542E-07  0.480E-04    0.94      26.0  T
  10   -131.9668772 -0.737310E-08  0.175E-04    0.94      71.3  T
     SCC iter.                  ...        0 min,  0.055 sec
     gradient                   ...        0 min,  0.012 sec
 * total energy  :  -129.8751079 Eh     change       -0.1719328E-02 Eh
   gradient norm :     0.0526657 Eh/α   predicted    -0.7049090E-02 ( 309.99%)
   displ. norm   :     0.4117561 α      lambda       -0.9890866E-02
   maximum displ.:     0.1420725 α      in ANC's #10, #4, #30, ...

........................................................................
.............................. CYCLE    5 ..............................
........................................................................
   1   -131.9748985 -0.131975E+03  0.386E-01    0.95       0.0  T
   2   -131.9750771 -0.178585E-03  0.218E-01    0.97       1.0  T
   3   -131.9742420  0.835014E-03  0.104E-01    0.94       1.0  T
   4   -131.9751927 -0.950699E-03  0.154E-02    0.97       1.0  T
   5   -131.9752016 -0.889908E-05  0.908E-03    0.97       1.4  T
   6   -131.9752048 -0.318896E-05  0.389E-03    0.97       3.2  T
   7   -131.9752051 -0.299982E-06  0.170E-03    0.97       7.3  T
   8   -131.9752052 -0.975741E-07  0.723E-04    0.97      17.3  T
   9   -131.9752053 -0.224126E-07  0.361E-04    0.97      34.6  T
     SCC iter.                  ...        0 min,  0.050 sec
     gradient                   ...        0 min,  0.013 sec
 * total energy  :  -129.8805444 Eh     change       -0.5436561E-02 Eh
   gradient norm :     0.0445623 Eh/α   predicted    -0.5783903E-02 (   6.39%)
   displ. norm   :     0.4068506 α      lambda       -0.4741899E-02
   maximum displ.:     0.2121555 α      in ANC's #10, #22, #16, ...

........................................................................
.............................. CYCLE    6 ..............................
........................................................................
   1   -131.9550461 -0.131955E+03  0.315E-01    0.94       0.0  T
   2   -131.9551125 -0.663907E-04  0.178E-01    0.97       1.0  T
   3   -131.9541357  0.976816E-03  0.117E-01    0.93       1.0  T
   4   -131.9552384 -0.110271E-02  0.122E-02    0.96       1.0  T
   5   -131.9552415 -0.310534E-05  0.750E-03    0.96       1.7  T
   6   -131.9552439 -0.243190E-05  0.300E-03    0.96       4.2  T
   7   -131.9552440 -0.124704E-06  0.163E-03    0.96       7.7  T
   8   -131.9552442 -0.108347E-06  0.628E-04    0.96      19.9  T
   9   -131.9552442 -0.105552E-07  0.380E-04    0.96      32.9  T
     SCC iter.                  ...        0 min,  0.052 sec
     gradient                   ...        0 min,  0.012 sec
 * total energy  :  -129.8827054 Eh     change       -0.2160982E-02 Eh
   gradient norm :     0.0401983 Eh/α   predicted    -0.2763407E-02 (  27.88%)
   displ. norm   :     0.4553255 α      lambda       -0.4014417E-02
   maximum displ.:     0.1831906 α      in ANC's #10, #22, #17, ...

........................................................................
.............................. CYCLE    7 ..............................
........................................................................
   1   -131.9725838 -0.131973E+03  0.270E-01    0.93       0.0  T
   2   -131.9726468 -0.629600E-04  0.155E-01    0.97       1.0  T
   3   -131.9718255  0.821273E-03  0.102E-01    0.93       1.0  T
   4   -131.9727594 -0.933889E-03  0.147E-02    0.96       1.0  T
   5   -131.9727671 -0.771283E-05  0.803E-03    0.96       1.6  T
   6   -131.9727696 -0.244354E-05  0.315E-03    0.96       4.0  T
   7   -131.9727698 -0.251546E-06  0.153E-03    0.96       8.2  T
   8   -131.9727699 -0.859625E-07  0.703E-04    0.96      17.8  T
   9   -131.9727699 -0.130199E-07  0.384E-04    0.96      32.6  T
     SCC iter.                  ...        0 min,  0.051 sec
     gradient                   ...        0 min,  0.012 sec
 * total energy  :  -129.8847866 Eh     change       -0.2081197E-02 Eh
   gradient norm :     0.0396908 Eh/α   predicted    -0.2423345E-02 (  16.44%)
   displ. norm   :     0.5015557 α      lambda       -0.4125639E-02
   maximum displ.:     0.2267539 α      in ANC's #10, #22, #11, ...

........................................................................
.............................. CYCLE    8 ..............................
........................................................................
   1   -131.9864392 -0.131986E+03  0.289E-01    0.93       0.0  T
   2   -131.9864943 -0.551572E-04  0.168E-01    0.96       1.0  T
   3   -131.9852702  0.122413E-02  0.121E-01    0.93       1.0  T
   4   -131.9866647 -0.139454E-02  0.147E-02    0.96       1.0  T
   5   -131.9866711 -0.636977E-05  0.866E-03    0.96       1.4  T
   6   -131.9866737 -0.259810E-05  0.346E-03    0.96       3.6  T
   7   -131.9866739 -0.245344E-06  0.171E-03    0.96       7.3  T
   8   -131.9866741 -0.126790E-06  0.761E-04    0.96      16.4  T
   9   -131.9866741 -0.172232E-07  0.416E-04    0.96      30.1  T
     SCC iter.                  ...        0 min,  0.051 sec
     gradient                   ...        0 min,  0.012 sec
 * total energy  :  -129.8869634 Eh     change       -0.2176750E-02 Eh
   gradient norm :     0.0333115 Eh/α   predicted    -0.2581748E-02 (  18.61%)
   displ. norm   :     0.4813764 α      lambda       -0.2417836E-02
   maximum displ.:     0.3165265 α      in ANC's #10, #22, #11, ...

........................................................................
.............................. CYCLE    9 ..............................
........................................................................
   1   -131.9732970 -0.131973E+03  0.280E-01    0.94       0.0  T
   2   -131.9733546 -0.575955E-04  0.157E-01    0.95       1.0  T
   3   -131.9725729  0.781718E-03  0.100E-01    0.93       1.0  T
   4   -131.9734479 -0.874980E-03  0.114E-02    0.95       1.1  T
   5   -131.9734503 -0.242491E-05  0.723E-03    0.95       1.7  T
   6   -131.9734525 -0.218394E-05  0.311E-03    0.95       4.0  T
   7   -131.9734527 -0.192747E-06  0.145E-03    0.95       8.6  T
   8   -131.9734528 -0.673228E-07  0.660E-04    0.95      18.9  T
   9   -131.9734528 -0.140505E-07  0.384E-04    0.95      32.6  T
     SCC iter.                  ...        0 min,  0.051 sec
     gradient                   ...        0 min,  0.012 sec
 * total energy  :  -129.8882878 Eh     change       -0.1324403E-02 Eh
   gradient norm :     0.0404877 Eh/α   predicted    -0.1489057E-02 (  12.43%)
   displ. norm   :     0.5191819 α      lambda       -0.3043160E-02
   maximum displ.:     0.3010746 α      in ANC's #10, #11, #19, ...

........................................................................
.............................. CYCLE   10 ..............................
........................................................................
   1   -131.9807706 -0.131981E+03  0.210E-01    0.95       0.0  T
   2   -131.9808429 -0.723345E-04  0.119E-01    0.95       1.0  T
   3   -131.9806519  0.191031E-03  0.598E-02    0.95       1.0  T
   4   -131.9808629 -0.210995E-03  0.161E-02    0.95       1.0  T
   5   -131.9808790 -0.161235E-04  0.733E-03    0.95       1.7  T
   6   -131.9808821 -0.311086E-05  0.283E-03    0.95       4.4  T
   7   -131.9808824 -0.233715E-06  0.134E-03    0.95       9.3  T
   8   -131.9808824 -0.359937E-07  0.634E-04    0.95      19.7  T
   9   -131.9808824 -0.117573E-07  0.351E-04    0.95      35.6  T
     SCC iter.                  ...        0 min,  0.050 sec
     gradient                   ...        0 min,  0.012 sec
 * total energy  :  -129.8898803 Eh     change       -0.1592585E-02 Eh
   gradient norm :     0.0379171 Eh/α   predicted    -0.1931727E-02 (  21.30%)
   displ. norm   :     0.5243570 α      lambda       -0.2726826E-02
   maximum displ.:     0.2565305 α      in ANC's #10, #11, #19, ...

........................................................................
.............................. CYCLE   11 ..............................
........................................................................
   1   -131.9742817 -0.131974E+03  0.327E-01    0.93       0.0  T
   2   -131.9744157 -0.134025E-03  0.182E-01    0.94       1.0  T
   3   -131.9739274  0.488326E-03  0.931E-02    0.93       1.0  T
   4   -131.9744825 -0.555124E-03  0.150E-02    0.94       1.0  T
   5   -131.9744913 -0.883238E-05  0.888E-03    0.93       1.4  T
   6   -131.9744953 -0.394357E-05  0.361E-03    0.94       3.5  T
   7   -131.9744955 -0.252839E-06  0.150E-03    0.94       8.3  T
   8   -131.9744956 -0.542059E-07  0.629E-04    0.94      19.9  T
   9   -131.9744956 -0.946736E-08  0.369E-04    0.94      33.9  T
     SCC iter.                  ...        0 min,  0.050 sec
     gradient                   ...        0 min,  0.012 sec
 * total energy  :  -129.8897800 Eh     change        0.1003885E-03 Eh
   gradient norm :     0.0746932 Eh/α   predicted    -0.1738293E-02 (*******%)
   displ. norm   :     0.2850854 α      lambda       -0.3917504E-02
   maximum displ.:     0.1545842 α      in ANC's #10, #20, #12, ...

........................................................................
.............................. CYCLE   12 ..............................
........................................................................
   1   -131.9858848 -0.131986E+03  0.220E-01    0.92       0.0  T
   2   -131.9859571 -0.723966E-04  0.122E-01    0.93       1.0  T
   3   -131.9857760  0.181119E-03  0.590E-02    0.92       1.0  T
   4   -131.9859863 -0.210282E-03  0.104E-02    0.93       1.2  T
   5   -131.9859909 -0.456117E-05  0.569E-03    0.93       2.2  T
   6   -131.9859924 -0.157667E-05  0.238E-03    0.93       5.3  T
   7   -131.9859926 -0.141657E-06  0.976E-04    0.93      12.8  T
   8   -131.9859926 -0.232342E-07  0.485E-04    0.93      25.8  T
     SCC iter.                  ...        0 min,  0.045 sec
     gradient                   ...        0 min,  0.013 sec
 * total energy  :  -129.8920254 Eh     change       -0.2245494E-02 Eh
   gradient norm :     0.0169824 Eh/α   predicted    -0.2117959E-02 (  -5.68%)
   displ. norm   :     0.4885402 α      lambda       -0.1788888E-02
   maximum displ.:     0.3140429 α      in ANC's #10, #11, #12, ...

........................................................................
.............................. CYCLE   13 ..............................
........................................................................
   1   -131.9836092 -0.131984E+03  0.188E-01    0.93       0.0  T
   2   -131.9836484 -0.392277E-04  0.107E-01    0.92       1.0  T
   3   -131.9835493  0.991243E-04  0.444E-02    0.92       1.0  T
   4   -131.9836644 -0.115135E-03  0.105E-02    0.92       1.2  T
   5   -131.9836690 -0.460806E-05  0.533E-03    0.92       2.3  T
   6   -131.9836699 -0.839378E-06  0.263E-03    0.92       4.7  T
   7   -131.9836702 -0.293314E-06  0.118E-03    0.92      10.6  T
   8   -131.9836702 -0.336518E-07  0.558E-04    0.92      22.4  T
   9   -131.9836702 -0.805545E-08  0.323E-04    0.92      38.7  T
     SCC iter.                  ...        0 min,  0.054 sec
     gradient                   ...        0 min,  0.013 sec
 * total energy  :  -129.8930371 Eh     change       -0.1011677E-02 Eh
   gradient norm :     0.0303841 Eh/α   predicted    -0.1107931E-02 (   9.51%)
   displ. norm   :     0.5764158 α      lambda       -0.1751518E-02
   maximum displ.:     0.3332500 α      in ANC's #10, #11, #4, ...

........................................................................
.............................. CYCLE   14 ..............................
........................................................................
   1   -131.9787721 -0.131979E+03  0.200E-01    0.92       0.0  T
   2   -131.9787988 -0.267021E-04  0.115E-01    0.92       1.0  T
   3   -131.9787212  0.776196E-04  0.357E-02    0.92       1.0  T
   4   -131.9788077 -0.864792E-04  0.954E-03    0.92       1.3  T
   5   -131.9788125 -0.484384E-05  0.497E-03    0.92       2.5  T
   6   -131.9788133 -0.817022E-06  0.217E-03    0.92       5.8  T
   7   -131.9788137 -0.315381E-06  0.809E-04    0.92      15.4  T
   8   -131.9788137 -0.245095E-07  0.420E-04    0.92      29.8  T
     SCC iter.                  ...        0 min,  0.046 sec
     gradient                   ...        0 min,  0.013 sec
 * total energy  :  -129.8943692 Eh     change       -0.1332121E-02 Eh
   gradient norm :     0.0244171 Eh/α   predicted    -0.1166739E-02 ( -12.41%)
   displ. norm   :     0.5815305 α      lambda       -0.2132001E-02
   maximum displ.:     0.2582116 α      in ANC's #10, #4, #7, ...

........................................................................
.............................. CYCLE   15 ..............................
........................................................................
   1   -131.9938332 -0.131994E+03  0.206E-01    0.91       0.0  T
   2   -131.9939177 -0.844043E-04  0.123E-01    0.90       1.0  T
   3   -131.9934665  0.451107E-03  0.779E-02    0.92       1.0  T
   4   -131.9939657 -0.499110E-03  0.170E-02    0.90       1.0  T
   5   -131.9939876 -0.219452E-04  0.748E-03    0.91       1.7  T
   6   -131.9939908 -0.319598E-05  0.313E-03    0.91       4.0  T
   7   -131.9939910 -0.254790E-06  0.145E-03    0.91       8.6  T
   8   -131.9939911 -0.705437E-07  0.695E-04    0.91      18.0  T
   9   -131.9939911 -0.164143E-07  0.320E-04    0.91      39.0  T
     SCC iter.                  ...        0 min,  0.053 sec
     gradient                   ...        0 min,  0.013 sec
 * total energy  :  -129.8951740 Eh     change       -0.8047667E-03 Eh
   gradient norm :     0.0323127 Eh/α   predicted    -0.1426506E-02 (  77.26%)
   displ. norm   :     0.5392870 α      lambda       -0.1870862E-02
   maximum displ.:     0.3455318 α      in ANC's #10, #4, #22, ...

........................................................................
.............................. CYCLE   16 ..............................
........................................................................
   1   -131.9759635 -0.131976E+03  0.190E-01    0.89       0.0  T
   2   -131.9760236 -0.600602E-04  0.110E-01    0.89       1.0  T
   3   -131.9759094  0.114115E-03  0.488E-02    0.89       1.0  T
   4   -131.9760422 -0.132781E-03  0.124E-02    0.89       1.0  T
   5   -131.9760503 -0.811430E-05  0.552E-03    0.89       2.3  T
   6   -131.9760513 -0.925020E-06  0.305E-03    0.89       4.1  T
   7   -131.9760518 -0.505889E-06  0.130E-03    0.89       9.7  T
   8   -131.9760518 -0.397999E-07  0.615E-04    0.89      20.3  T
   9   -131.9760518 -0.715289E-08  0.348E-04    0.89      35.9  T
     SCC iter.                  ...        0 min,  0.051 sec
     gradient                   ...        0 min,  0.013 sec
 * total energy  :  -129.8961300 Eh     change       -0.9559722E-03 Eh
   gradient norm :     0.0243551 Eh/α   predicted    -0.1207491E-02 (  26.31%)
   displ. norm   :     0.3168606 α      lambda       -0.1126126E-02
   maximum displ.:     0.1902691 α      in ANC's #10, #6, #7, ...

........................................................................
.............................. CYCLE   17 ..............................
........................................................................
   1   -131.9762082 -0.131976E+03  0.130E-01    0.91       0.0  T
   2   -131.9762286 -0.204167E-04  0.750E-02    0.90       1.0  T
   3   -131.9761266  0.101998E-03  0.396E-02    0.90       1.0  T
   4   -131.9762435 -0.116872E-03  0.649E-03    0.90       1.9  T
   5   -131.9762450 -0.149406E-05  0.332E-03    0.90       3.8  T
   6   -131.9762453 -0.339501E-06  0.159E-03    0.90       7.8  T
   7   -131.9762454 -0.748644E-07  0.704E-04    0.90      17.8  T
   8   -131.9762454 -0.184042E-07  0.310E-04    0.90      40.3  T
     SCC iter.                  ...        0 min,  0.046 sec
     gradient                   ...        0 min,  0.012 sec
 * total energy  :  -129.8967631 Eh     change       -0.6330786E-03 Eh
   gradient norm :     0.0243150 Eh/α   predicted    -0.6195963E-03 (  -2.13%)
   displ. norm   :     0.4139842 α      lambda       -0.1083716E-02
   maximum displ.:     0.1800454 α      in ANC's #6, #10, #4, ...

........................................................................
.............................. CYCLE   18 ..............................
........................................................................
   1   -131.9894422 -0.131989E+03  0.122E-01    0.92       0.0  T
   2   -131.9894458 -0.368532E-05  0.712E-02    0.91       1.0  T
   3   -131.9893221  0.123758E-03  0.418E-02    0.92       1.0  T
   4   -131.9894573 -0.135239E-03  0.569E-03    0.91       2.2  T
   5   -131.9894590 -0.162501E-05  0.299E-03    0.91       4.2  T
   6   -131.9894593 -0.366798E-06  0.108E-03    0.91      11.6  T
   7   -131.9894594 -0.391437E-07  0.478E-04    0.91      26.2  T
   8   -131.9894594 -0.576691E-08  0.248E-04    0.91      50.4  T
     SCC iter.                  ...        0 min,  0.046 sec
     gradient                   ...        0 min,  0.013 sec
 * total energy  :  -129.8975059 Eh     change       -0.7428430E-03 Eh
   gradient norm :     0.0142647 Eh/α   predicted    -0.6347276E-03 ( -14.55%)
   displ. norm   :     0.5940953 α      lambda       -0.1142972E-02
   maximum displ.:     0.2960184 α      in ANC's #10, #6, #4, ...

........................................................................
.............................. CYCLE   19 ..............................
........................................................................
   1   -131.9899550 -0.131990E+03  0.183E-01    0.91       0.0  T
   2   -131.9899829 -0.279528E-04  0.105E-01    0.91       1.0  T
   3   -131.9898934  0.895190E-04  0.361E-02    0.92       1.0  T
   4   -131.9899948 -0.101357E-03  0.771E-03    0.92       1.6  T
   5   -131.9899971 -0.231099E-05  0.400E-03    0.92       3.1  T
   6   -131.9899975 -0.392886E-06  0.221E-03    0.92       5.6  T
   7   -131.9899978 -0.304349E-06  0.767E-04    0.92      16.3  T
   8   -131.9899978 -0.228479E-07  0.356E-04    0.92      35.1  T
     SCC iter.                  ...        0 min,  0.045 sec
     gradient                   ...        0 min,  0.013 sec
 * total energy  :  -129.8983114 Eh     change       -0.8054778E-03 Eh
   gradient norm :     0.0147006 Eh/α   predicted    -0.7731943E-03 (  -4.01%)
   displ. norm   :     0.6264722 α      lambda       -0.9749960E-03
   maximum displ.:     0.2951833 α      in ANC's #6, #10, #4, ...

........................................................................
.............................. CYCLE   20 ..............................
........................................................................
   1   -131.9918038 -0.131992E+03  0.179E-01    0.92       0.0  T
   2   -131.9918207 -0.168790E-04  0.103E-01    0.92       1.0  T
   3   -131.9917015  0.119195E-03  0.365E-02    0.93       1.0  T
   4   -131.9918320 -0.130562E-03  0.795E-03    0.92       1.6  T
   5   -131.9918348 -0.281812E-05  0.422E-03    0.92       3.0  T
   6   -131.9918353 -0.485478E-06  0.176E-03    0.92       7.1  T
   7   -131.9918355 -0.157611E-06  0.553E-04    0.92      22.6  T
   8   -131.9918355 -0.846956E-08  0.308E-04    0.92      40.6  T
     SCC iter.                  ...        0 min,  0.045 sec
     gradient                   ...        0 min,  0.013 sec
 * total energy  :  -129.8990163 Eh     change       -0.7049344E-03 Eh
   gradient norm :     0.0138123 Eh/α   predicted    -0.6788287E-03 (  -3.70%)
   displ. norm   :     0.6112400 α      lambda       -0.8515538E-03
   maximum displ.:     0.2808892 α      in ANC's #6, #10, #3, ...
 * RMSD in coord.:     0.9280857 α      energy gain  -0.7469922E-01 Eh

generating ANC from model Hessian ...
Using Lindh-Hessian (1995)
 Shifting diagonal of input Hessian by   1.002977312209584E-002
 Lowest  eigenvalues of input Hessian
    0.010000    0.000000    0.000000    0.000000    0.000000    0.000000
    0.000000    0.010046    0.010144    0.010323    0.010507    0.010570
    0.010651    0.011027    0.011086    0.011241    0.011723    0.012419
 Highest eigenvalues
    2.275318    2.285948    2.611651    2.613585    2.645514    2.648893
 

........................................................................
.............................. CYCLE   21 ..............................
........................................................................
   1   -131.9899898 -0.131990E+03  0.159E-01    0.92       0.0  T
   2   -131.9900027 -0.128732E-04  0.912E-02    0.92       1.0  T
   3   -131.9899337  0.689896E-04  0.329E-02    0.92       1.0  T
   4   -131.9900112 -0.775141E-04  0.650E-03    0.93       1.9  T
   5   -131.9900120 -0.815456E-06  0.419E-03    0.93       3.0  T
   6   -131.9900128 -0.789352E-06  0.142E-03    0.93       8.8  T
   7   -131.9900129 -0.917767E-07  0.559E-04    0.93      22.3  T
   8   -131.9900129 -0.954105E-08  0.279E-04    0.93      44.7  T
     SCC iter.                  ...        0 min,  0.045 sec
     gradient                   ...        0 min,  0.012 sec
 * total energy  :  -129.8996563 Eh     change       -0.6400271E-03 Eh
   gradient norm :     0.0101651 Eh/α   predicted     0.0000000E+00 (-100.00%)
   displ. norm   :     0.1408332 α      lambda       -0.4530801E-03
   maximum displ.:     0.0689046 α      in ANC's #5, #6, #12, ...

........................................................................
.............................. CYCLE   22 ..............................
........................................................................
   1   -131.9925250 -0.131993E+03  0.117E-01    0.92       0.0  T
   2   -131.9925355 -0.105484E-04  0.652E-02    0.92       1.0  T
   3   -131.9925277  0.779847E-05  0.130E-02    0.92       1.0  T
   4   -131.9925399 -0.122024E-04  0.364E-03    0.92       3.4  T
   5   -131.9925402 -0.267503E-06  0.197E-03    0.92       6.3  T
   6   -131.9925404 -0.135078E-06  0.635E-04    0.92      19.7  T
   7   -131.9925404 -0.172003E-07  0.321E-04    0.92      38.9  T
     SCC iter.                  ...        0 min,  0.040 sec
     gradient                   ...        0 min,  0.012 sec
 * total energy  :  -129.8997697 Eh     change       -0.1133383E-03 Eh
   gradient norm :     0.0088496 Eh/α   predicted    -0.2310349E-03 ( 103.85%)
   displ. norm   :     0.2467427 α      lambda       -0.7846162E-03
   maximum displ.:     0.1050060 α      in ANC's #3, #5, #8, ...

........................................................................
.............................. CYCLE   23 ..............................
........................................................................
   1   -131.9991844 -0.131999E+03  0.154E-01    0.91       0.0  T
   2   -131.9992026 -0.182179E-04  0.865E-02    0.91       1.0  T
   3   -131.9991835  0.191220E-04  0.189E-02    0.91       1.0  T
   4   -131.9992099 -0.264046E-04  0.579E-03    0.91       2.2  T
   5   -131.9992108 -0.927349E-06  0.293E-03    0.91       4.3  T
   6   -131.9992111 -0.262088E-06  0.898E-04    0.91      13.9  T
   7   -131.9992111 -0.226063E-07  0.487E-04    0.91      25.7  T
     SCC iter.                  ...        0 min,  0.040 sec
     gradient                   ...        0 min,  0.012 sec
 * total energy  :  -129.9000557 Eh     change       -0.2859998E-03 Eh
   gradient norm :     0.0083403 Eh/α   predicted    -0.4161973E-03 (  45.52%)
   displ. norm   :     0.1341737 α      lambda       -0.3504512E-03
   maximum displ.:     0.0550727 α      in ANC's #5, #3, #8, ...

........................................................................
.............................. CYCLE   24 ..............................
........................................................................
   1   -131.9971990 -0.131997E+03  0.748E-02    0.91       0.0  T
   2   -131.9972032 -0.422105E-05  0.419E-02    0.91       1.0  T
   3   -131.9971975  0.567669E-05  0.913E-03    0.91       1.4  T
   4   -131.9972050 -0.747762E-05  0.273E-03    0.91       4.6  T
   5   -131.9972052 -0.209319E-06  0.143E-03    0.91       8.7  T
   6   -131.9972053 -0.753988E-07  0.411E-04    0.91      30.4  T
   7   -131.9972053 -0.667572E-08  0.191E-04    0.91      65.4  T
     SCC iter.                  ...        0 min,  0.040 sec
     gradient                   ...        0 min,  0.013 sec
 * total energy  :  -129.9002764 Eh     change       -0.2207036E-03 Eh
   gradient norm :     0.0056492 Eh/α   predicted    -0.1783806E-03 ( -19.18%)
   displ. norm   :     0.3199689 α      lambda       -0.5158212E-03
   maximum displ.:     0.1239579 α      in ANC's #5, #1, #3, ...

........................................................................
.............................. CYCLE   25 ..............................
........................................................................
   1   -131.9918045 -0.131992E+03  0.123E-01    0.91       0.0  T
   2   -131.9918151 -0.105333E-04  0.697E-02    0.91       1.0  T
   3   -131.9917981  0.169521E-04  0.166E-02    0.91       1.0  T
   4   -131.9918190 -0.208786E-04  0.536E-03    0.91       2.3  T
   5   -131.9918197 -0.727079E-06  0.317E-03    0.91       3.9  T
   6   -131.9918202 -0.444252E-06  0.965E-04    0.91      13.0  T
   7   -131.9918202 -0.510432E-07  0.378E-04    0.91      33.1  T
     SCC iter.                  ...        0 min,  0.039 sec
     gradient                   ...        0 min,  0.013 sec
 * total energy  :  -129.9005309 Eh     change       -0.2545263E-03 Eh
   gradient norm :     0.0077556 Eh/α   predicted    -0.2843164E-03 (  11.70%)
   displ. norm   :     0.3964739 α      lambda       -0.4573912E-03
   maximum displ.:     0.1885325 α      in ANC's #5, #3, #4, ...

........................................................................
.............................. CYCLE   26 ..............................
........................................................................
   1   -131.9877529 -0.131988E+03  0.142E-01    0.91       0.0  T
   2   -131.9877662 -0.132181E-04  0.807E-02    0.91       1.0  T
   3   -131.9877599  0.624974E-05  0.139E-02    0.91       1.0  T
   4   -131.9877711 -0.112298E-04  0.501E-03    0.91       2.5  T
   5   -131.9877714 -0.303755E-06  0.235E-03    0.91       5.3  T
   6   -131.9877718 -0.342092E-06  0.760E-04    0.91      16.5  T
   7   -131.9877718 -0.294636E-07  0.348E-04    0.91      35.9  T
     SCC iter.                  ...        0 min,  0.040 sec
     gradient                   ...        0 min,  0.013 sec
 * total energy  :  -129.9007227 Eh     change       -0.1917524E-03 Eh
   gradient norm :     0.0107918 Eh/α   predicted    -0.2646456E-03 (  38.01%)
   displ. norm   :     0.4449760 α      lambda       -0.7187086E-03
   maximum displ.:     0.1941965 α      in ANC's #3, #5, #1, ...

........................................................................
.............................. CYCLE   27 ..............................
........................................................................
   1   -131.9881709 -0.131988E+03  0.153E-01    0.91       0.0  T
   2   -131.9881835 -0.126127E-04  0.871E-02    0.91       1.0  T
   3   -131.9881743  0.921429E-05  0.140E-02    0.91       1.0  T
   4   -131.9881880 -0.136502E-04  0.555E-03    0.91       2.3  T
   5   -131.9881886 -0.634033E-06  0.274E-03    0.91       4.6  T
   6   -131.9881891 -0.458052E-06  0.913E-04    0.91      13.7  T
   7   -131.9881891 -0.455320E-07  0.390E-04    0.91      32.0  T
     SCC iter.                  ...        0 min,  0.040 sec
     gradient                   ...        0 min,  0.012 sec
 * total energy  :  -129.9010971 Eh     change       -0.3744082E-03 Eh
   gradient norm :     0.0096794 Eh/α   predicted    -0.4305116E-03 (  14.98%)
   displ. norm   :     0.3143393 α      lambda       -0.3970967E-03
   maximum displ.:     0.1591902 α      in ANC's #3, #1, #5, ...

........................................................................
.............................. CYCLE   28 ..............................
........................................................................
   1   -131.9931380 -0.131993E+03  0.838E-02    0.90       0.0  T
   2   -131.9931413 -0.331638E-05  0.483E-02    0.90       1.0  T
   3   -131.9931285  0.128086E-04  0.129E-02    0.91       1.0  T
   4   -131.9931429 -0.144304E-04  0.334E-03    0.90       3.7  T
   5   -131.9931431 -0.219228E-06  0.200E-03    0.90       6.3  T
   6   -131.9931433 -0.186054E-06  0.727E-04    0.90      17.2  T
   7   -131.9931434 -0.282737E-07  0.271E-04    0.90      46.1  T
     SCC iter.                  ...        0 min,  0.040 sec
     gradient                   ...        0 min,  0.013 sec
 * total energy  :  -129.9014075 Eh     change       -0.3103841E-03 Eh
   gradient norm :     0.0061814 Eh/α   predicted    -0.2181693E-03 ( -29.71%)
   displ. norm   :     0.5480636 α      lambda       -0.5318993E-03
   maximum displ.:     0.2803407 α      in ANC's #3, #1, #5, ...

........................................................................
.............................. CYCLE   29 ..............................
........................................................................
   1   -131.9968663 -0.131997E+03  0.153E-01    0.90       0.0  T
   2   -131.9968784 -0.120822E-04  0.875E-02    0.89       1.0  T
   3   -131.9968495  0.288184E-04  0.203E-02    0.90       1.0  T
   4   -131.9968837 -0.341272E-04  0.581E-03    0.89       2.2  T
   5   -131.9968844 -0.740569E-06  0.342E-03    0.89       3.7  T
   6   -131.9968849 -0.509029E-06  0.110E-03    0.89      11.4  T
   7   -131.9968850 -0.572054E-07  0.465E-04    0.89      26.9  T
   8   -131.9968850 -0.844989E-08  0.205E-04    0.89      61.0  T
     SCC iter.                  ...        0 min,  0.045 sec
     gradient                   ...        0 min,  0.013 sec
 * total energy  :  -129.9017448 Eh     change       -0.3373660E-03 Eh
   gradient norm :     0.0048661 Eh/α   predicted    -0.3458348E-03 (   2.51%)
   displ. norm   :     0.6010900 α      lambda       -0.4629788E-03
   maximum displ.:     0.3049374 α      in ANC's #3, #1, #5, ...

........................................................................
.............................. CYCLE   30 ..............................
........................................................................
   1   -131.9954982 -0.131995E+03  0.152E-01    0.89       0.0  T
   2   -131.9955071 -0.886201E-05  0.879E-02    0.89       1.0  T
   3   -131.9954959  0.111871E-04  0.151E-02    0.89       1.0  T
   4   -131.9955101 -0.142330E-04  0.520E-03    0.89       2.4  T
   5   -131.9955105 -0.317299E-06  0.336E-03    0.89       3.7  T
   6   -131.9955112 -0.723374E-06  0.871E-04    0.89      14.3  T
   7   -131.9955112 -0.371533E-07  0.381E-04    0.89      32.8  T
     SCC iter.                  ...        0 min,  0.040 sec
     gradient                   ...        0 min,  0.012 sec
 * total energy  :  -129.9020724 Eh     change       -0.3275779E-03 Eh
   gradient norm :     0.0062561 Eh/α   predicted    -0.3151378E-03 (  -3.80%)
   displ. norm   :     0.5190430 α      lambda       -0.3346497E-03
   maximum displ.:     0.2824803 α      in ANC's #3, #1, #5, ...

........................................................................
.............................. CYCLE   31 ..............................
........................................................................
   1   -131.9971643 -0.131997E+03  0.125E-01    0.89       0.0  T
   2   -131.9971703 -0.609706E-05  0.723E-02    0.89       1.0  T
   3   -131.9971562  0.141774E-04  0.144E-02    0.89       1.0  T
   4   -131.9971730 -0.168725E-04  0.415E-03    0.89       3.0  T
   5   -131.9971733 -0.261533E-06  0.243E-03    0.89       5.1  T
   6   -131.9971736 -0.328852E-06  0.857E-04    0.89      14.6  T
   7   -131.9971737 -0.412130E-07  0.334E-04    0.89      37.5  T
     SCC iter.                  ...        0 min,  0.039 sec
     gradient                   ...        0 min,  0.013 sec
 * total energy  :  -129.9023494 Eh     change       -0.2770231E-03 Eh
   gradient norm :     0.0063383 Eh/α   predicted    -0.2124082E-03 ( -23.32%)
   displ. norm   :     0.6610783 α      lambda       -0.3817037E-03
   maximum displ.:     0.3667524 α      in ANC's #3, #1, #5, ...

........................................................................
.............................. CYCLE   32 ..............................
........................................................................
   1   -131.9946683 -0.131995E+03  0.160E-01    0.89       0.0  T
   2   -131.9946781 -0.971291E-05  0.923E-02    0.89       1.0  T
   3   -131.9946558  0.222997E-04  0.178E-02    0.89       1.0  T
   4   -131.9946827 -0.269006E-04  0.515E-03    0.89       2.4  T
   5   -131.9946828 -0.121008E-06  0.316E-03    0.89       4.0  T
   6   -131.9946834 -0.654630E-06  0.786E-04    0.89      15.9  T
   7   -131.9946835 -0.273313E-07  0.371E-04    0.89      33.7  T
     SCC iter.                  ...        0 min,  0.040 sec
     gradient                   ...        0 min,  0.012 sec
 * total energy  :  -129.9026633 Eh     change       -0.3138958E-03 Eh
   gradient norm :     0.0061421 Eh/α   predicted    -0.2742585E-03 ( -12.63%)
   displ. norm   :     0.5882898 α      lambda       -0.4696142E-03
   maximum displ.:     0.3621210 α      in ANC's #1, #3, #5, ...

........................................................................
.............................. CYCLE   33 ..............................
........................................................................
   1   -132.0049521 -0.132005E+03  0.143E-01    0.88       0.0  T
   2   -132.0049628 -0.106806E-04  0.823E-02    0.88       1.0  T
   3   -132.0049188  0.440327E-04  0.255E-02    0.89       1.0  T
   4   -132.0049681 -0.493311E-04  0.577E-03    0.88       2.2  T
   5   -132.0049697 -0.156835E-05  0.307E-03    0.88       4.1  T
   6   -132.0049700 -0.344901E-06  0.133E-03    0.88       9.4  T
   7   -132.0049701 -0.111339E-06  0.451E-04    0.88      27.7  T
   8   -132.0049701 -0.817667E-08  0.198E-04    0.88      63.1  T
     SCC iter.                  ...        0 min,  0.046 sec
     gradient                   ...        0 min,  0.012 sec
 * total energy  :  -129.9028994 Eh     change       -0.2360401E-03 Eh
   gradient norm :     0.0089031 Eh/α   predicted    -0.3160733E-03 (  33.91%)
   displ. norm   :     0.6470134 α      lambda       -0.4175574E-03
   maximum displ.:     0.3711971 α      in ANC's #3, #1, #5, ...

........................................................................
.............................. CYCLE   34 ..............................
........................................................................
   1   -131.9968467 -0.131997E+03  0.152E-01    0.89       0.0  T
   2   -131.9968560 -0.925990E-05  0.882E-02    0.88       1.0  T
   3   -131.9968376  0.183661E-04  0.177E-02    0.89       1.0  T
   4   -131.9968594 -0.217593E-04  0.510E-03    0.88       2.5  T
   5   -131.9968600 -0.696311E-06  0.314E-03    0.89       4.0  T
   6   -131.9968605 -0.489065E-06  0.116E-03    0.88      10.8  T
   7   -131.9968606 -0.762609E-07  0.447E-04    0.88      27.9  T
   8   -131.9968606 -0.632014E-08  0.228E-04    0.88      54.7  T
     SCC iter.                  ...        0 min,  0.045 sec
     gradient                   ...        0 min,  0.013 sec
 * total energy  :  -129.9032083 Eh     change       -0.3089083E-03 Eh
   gradient norm :     0.0055515 Eh/α   predicted    -0.2961798E-03 (  -4.12%)
   displ. norm   :     0.4503799 α      lambda       -0.2331258E-03
   maximum displ.:     0.2842492 α      in ANC's #1, #3, #5, ...

........................................................................
.............................. CYCLE   35 ..............................
........................................................................
   1   -131.9950869 -0.131995E+03  0.997E-02    0.89       0.0  T
   2   -131.9950906 -0.364644E-05  0.576E-02    0.89       1.0  T
   3   -131.9950788  0.118145E-04  0.126E-02    0.89       1.0  T
   4   -131.9950923 -0.135822E-04  0.326E-03    0.89       3.8  T
   5   -131.9950925 -0.177947E-06  0.219E-03    0.89       5.7  T
   6   -131.9950928 -0.264022E-06  0.676E-04    0.89      18.5  T
   7   -131.9950928 -0.210140E-07  0.278E-04    0.89      44.9  T
     SCC iter.                  ...        0 min,  0.040 sec
     gradient                   ...        0 min,  0.012 sec
 * total energy  :  -129.9034020 Eh     change       -0.1937512E-03 Eh
   gradient norm :     0.0047561 Eh/α   predicted    -0.1402083E-03 ( -27.63%)
   displ. norm   :     0.5312681 α      lambda       -0.3297233E-03
   maximum displ.:     0.3597063 α      in ANC's #1, #3, #4, ...

........................................................................
.............................. CYCLE   36 ..............................
........................................................................
   1   -131.9966424 -0.131997E+03  0.122E-01    0.89       0.0  T
   2   -131.9966498 -0.744609E-05  0.696E-02    0.89       1.0  T
   3   -131.9966354  0.144835E-04  0.150E-02    0.89       1.0  T
   4   -131.9966532 -0.177988E-04  0.421E-03    0.89       3.0  T
   5   -131.9966534 -0.241312E-06  0.283E-03    0.89       4.4  T
   6   -131.9966538 -0.434300E-06  0.787E-04    0.89      15.9  T
   7   -131.9966539 -0.324796E-07  0.325E-04    0.89      38.4  T
     SCC iter.                  ...        0 min,  0.040 sec
     gradient                   ...        0 min,  0.013 sec
 * total energy  :  -129.9036779 Eh     change       -0.2758671E-03 Eh
   gradient norm :     0.0054334 Eh/α   predicted    -0.2113977E-03 ( -23.37%)
   displ. norm   :     0.6608935 α      lambda       -0.4032918E-03
   maximum displ.:     0.4356164 α      in ANC's #1, #3, #4, ...

........................................................................
.............................. CYCLE   37 ..............................
........................................................................
   1   -132.0010013 -0.132001E+03  0.135E-01    0.88       0.0  T
   2   -132.0010091 -0.778204E-05  0.779E-02    0.88       1.0  T
   3   -132.0009897  0.193246E-04  0.183E-02    0.88       1.0  T
   4   -132.0010128 -0.231082E-04  0.442E-03    0.88       2.8  T
   5   -132.0010130 -0.133973E-06  0.288E-03    0.88       4.3  T
   6   -132.0010134 -0.466865E-06  0.862E-04    0.88      14.5  T
   7   -132.0010135 -0.362146E-07  0.343E-04    0.88      36.4  T
     SCC iter.                  ...        0 min,  0.040 sec
     gradient                   ...        0 min,  0.013 sec
 * total energy  :  -129.9039938 Eh     change       -0.3159557E-03 Eh
   gradient norm :     0.0101459 Eh/α   predicted    -0.2897282E-03 (  -8.30%)
   displ. norm   :     0.7334304 α      lambda       -0.4454566E-03
   maximum displ.:     0.5060860 α      in ANC's #1, #3, #4, ...

........................................................................
.............................. CYCLE   38 ..............................
........................................................................
   1   -131.9978678 -0.131998E+03  0.178E-01    0.88       0.0  T
   2   -131.9978854 -0.175638E-04  0.101E-01    0.88       1.0  T
   3   -131.9978749  0.105058E-04  0.177E-02    0.88       1.0  T
   4   -131.9978922 -0.173371E-04  0.576E-03    0.88       2.2  T
   5   -131.9978922  0.331360E-08  0.320E-03    0.88       3.9  T
   6   -131.9978930 -0.773097E-06  0.872E-04    0.88      14.3  T
   7   -131.9978930 -0.334985E-07  0.409E-04    0.88      30.6  T
     SCC iter.                  ...        0 min,  0.040 sec
     gradient                   ...        0 min,  0.012 sec
 * total energy  :  -129.9042911 Eh     change       -0.2972603E-03 Eh
   gradient norm :     0.0161951 Eh/α   predicted    -0.3425411E-03 (  15.23%)
   displ. norm   :     0.5965265 α      lambda       -0.4476363E-03
   maximum displ.:     0.3771722 α      in ANC's #1, #3, #8, ...

........................................................................
.............................. CYCLE   39 ..............................
........................................................................
   1   -132.0001136 -0.132000E+03  0.116E-01    0.88       0.0  T
   2   -132.0001192 -0.564212E-05  0.676E-02    0.88       1.0  T
   3   -132.0000705  0.487573E-04  0.248E-02    0.88       1.0  T
   4   -132.0001243 -0.538611E-04  0.394E-03    0.88       3.2  T
   5   -132.0001247 -0.370315E-06  0.203E-03    0.88       6.1  T
   6   -132.0001248 -0.102237E-06  0.914E-04    0.88      13.7  T
   7   -132.0001249 -0.369224E-07  0.396E-04    0.88      31.6  T
     SCC iter.                  ...        0 min,  0.040 sec
     gradient                   ...        0 min,  0.012 sec
 * total energy  :  -129.9046082 Eh     change       -0.3171342E-03 Eh
   gradient norm :     0.0093853 Eh/α   predicted    -0.3034659E-03 (  -4.31%)
   displ. norm   :     0.6216342 α      lambda       -0.4000315E-03
   maximum displ.:     0.4015957 α      in ANC's #1, #3, #8, ...

........................................................................
.............................. CYCLE   40 ..............................
........................................................................
   1   -131.9986194 -0.131999E+03  0.127E-01    0.88       0.0  T
   2   -131.9986276 -0.815977E-05  0.731E-02    0.88       1.0  T
   3   -131.9986098  0.177660E-04  0.171E-02    0.88       1.0  T
   4   -131.9986306 -0.207780E-04  0.485E-03    0.88       2.6  T
   5   -131.9986314 -0.791730E-06  0.279E-03    0.88       4.5  T
   6   -131.9986318 -0.403139E-06  0.889E-04    0.88      14.1  T
   7   -131.9986318 -0.252245E-07  0.494E-04    0.88      25.3  T
     SCC iter.                  ...        0 min,  0.040 sec
     gradient                   ...        0 min,  0.013 sec
 * total energy  :  -129.9049038 Eh     change       -0.2956088E-03 Eh
   gradient norm :     0.0072905 Eh/α   predicted    -0.2773123E-03 (  -6.19%)
   displ. norm   :     0.6376857 α      lambda       -0.3585266E-03
   maximum displ.:     0.4159957 α      in ANC's #1, #3, #8, ...

........................................................................
.............................. CYCLE   41 ..............................
........................................................................
   1   -131.9981553 -0.131998E+03  0.131E-01    0.88       0.0  T
   2   -131.9981619 -0.657179E-05  0.753E-02    0.88       1.0  T
   3   -131.9981115  0.504033E-04  0.252E-02    0.88       1.0  T
   4   -131.9981668 -0.553060E-04  0.490E-03    0.88       2.6  T
   5   -131.9981675 -0.734848E-06  0.264E-03    0.88       4.7  T
   6   -131.9981678 -0.256658E-06  0.109E-03    0.88      11.5  T
   7   -131.9981679 -0.525465E-07  0.449E-04    0.88      27.8  T
   8   -131.9981679 -0.884702E-08  0.187E-04    0.88      67.0  T
     SCC iter.                  ...        0 min,  0.046 sec
     gradient                   ...        0 min,  0.013 sec
 * total energy  :  -129.9051397 Eh     change       -0.2358831E-03 Eh
   gradient norm :     0.0078068 Eh/α   predicted    -0.2521633E-03 (   6.90%)
   displ. norm   :     0.6548181 α      lambda       -0.2836095E-03
   maximum displ.:     0.4428778 α      in ANC's #1, #3, #4, ...

........................................................................
.............................. CYCLE   42 ..............................
........................................................................
   1   -131.9912876 -0.131991E+03  0.146E-01    0.88       0.0  T
   2   -131.9912976 -0.100159E-04  0.834E-02    0.88       1.0  T
   3   -131.9912678  0.297826E-04  0.212E-02    0.88       1.0  T
   4   -131.9913030 -0.351926E-04  0.491E-03    0.88       2.5  T
   5   -131.9913033 -0.280685E-06  0.274E-03    0.88       4.6  T
   6   -131.9913036 -0.319644E-06  0.108E-03    0.88      11.5  T
   7   -131.9913037 -0.754604E-07  0.359E-04    0.88      34.9  T
   8   -131.9913037 -0.377807E-08  0.192E-04    0.88      65.2  T
     SCC iter.                  ...        0 min,  0.046 sec
     gradient                   ...        0 min,  0.013 sec
 * total energy  :  -129.9053203 Eh     change       -0.1805631E-03 Eh
   gradient norm :     0.0112059 Eh/α   predicted    -0.2026079E-03 (  12.21%)
   displ. norm   :     0.3890095 α      lambda       -0.2651245E-03
   maximum displ.:     0.2155126 α      in ANC's #1, #3, #8, ...
 * RMSD in coord.:     1.2084607 α      energy gain  -0.6303975E-02 Eh

generating ANC from model Hessian ...
Using Lindh-Hessian (1995)
 Shifting diagonal of input Hessian by   9.998587868953992E-003
 Lowest  eigenvalues of input Hessian
    0.000000    0.000000    0.000000    0.000000    0.000000    0.000000
    0.010000    0.010041    0.010174    0.010354    0.010424    0.010598
    0.010897    0.011030    0.011113    0.011324    0.011703    0.012275
 Highest eigenvalues
    2.282601    2.286284    2.608984    2.614828    2.643630    2.655324
 

........................................................................
.............................. CYCLE   43 ..............................
........................................................................
   1   -132.0030224 -0.132003E+03  0.912E-02    0.89       0.0  T
   2   -132.0030270 -0.464655E-05  0.526E-02    0.89       1.0  T
   3   -132.0029879  0.390629E-04  0.249E-02    0.89       1.0  T
   4   -132.0030312 -0.432678E-04  0.414E-03    0.89       3.0  T
   5   -132.0030318 -0.585992E-06  0.232E-03    0.89       5.4  T
   6   -132.0030320 -0.203748E-06  0.916E-04    0.89      13.6  T
   7   -132.0030320 -0.487405E-07  0.359E-04    0.89      34.8  T
     SCC iter.                  ...        0 min,  0.040 sec
     gradient                   ...        0 min,  0.013 sec
 * total energy  :  -129.9053587 Eh     change       -0.3841504E-04 Eh
   gradient norm :     0.0124551 Eh/α   predicted     0.0000000E+00 (-100.00%)
   displ. norm   :     0.0844275 α      lambda       -0.2872452E-03
   maximum displ.:     0.0309709 α      in ANC's #16, #1, #10, ...

........................................................................
.............................. CYCLE   44 ..............................
........................................................................
   1   -132.0002868 -0.132000E+03  0.803E-02    0.88       0.0  T
   2   -132.0002918 -0.500839E-05  0.448E-02    0.89       1.0  T
   3   -132.0002782  0.136223E-04  0.158E-02    0.88       1.0  T
   4   -132.0002947 -0.164927E-04  0.245E-03    0.89       5.1  T
   5   -132.0002948 -0.988817E-07  0.159E-03    0.89       7.9  T
   6   -132.0002949 -0.121435E-06  0.539E-04    0.89      23.2  T
   7   -132.0002949 -0.109124E-07  0.220E-04    0.89      56.9  T
     SCC iter.                  ...        0 min,  0.044 sec
     gradient                   ...        0 min,  0.013 sec
 * total energy  :  -129.9054662 Eh     change       -0.1075211E-03 Eh
   gradient norm :     0.0057315 Eh/α   predicted    -0.1446480E-03 (  34.53%)
   displ. norm   :     0.1293334 α      lambda       -0.3124718E-03
   maximum displ.:     0.0679146 α      in ANC's #1, #7, #14, ...

........................................................................
.............................. CYCLE   45 ..............................
........................................................................
   1   -131.9980166 -0.131998E+03  0.120E-01    0.88       0.0  T
   2   -131.9980282 -0.116129E-04  0.663E-02    0.88       1.0  T
   3   -131.9980208  0.738658E-05  0.134E-02    0.88       1.0  T
   4   -131.9980327 -0.119002E-04  0.359E-03    0.88       3.5  T
   5   -131.9980331 -0.324989E-06  0.215E-03    0.88       5.8  T
   6   -131.9980333 -0.213762E-06  0.646E-04    0.88      19.4  T
   7   -131.9980333 -0.143984E-07  0.254E-04    0.88      49.3  T
     SCC iter.                  ...        0 min,  0.040 sec
     gradient                   ...        0 min,  0.012 sec
 * total energy  :  -129.9054351 Eh     change        0.3114726E-04 Eh
   gradient norm :     0.0122765 Eh/α   predicted    -0.1588600E-03 (-610.03%)
   displ. norm   :     0.0678535 α      lambda       -0.3099511E-03
   maximum displ.:     0.0264489 α      in ANC's #6, #15, #30, ...

........................................................................
.............................. CYCLE   46 ..............................
........................................................................
   1   -132.0002670 -0.132000E+03  0.771E-02    0.88       0.0  T
   2   -132.0002724 -0.537126E-05  0.428E-02    0.88       1.0  T
   3   -132.0002709  0.154424E-05  0.701E-03    0.88       1.8  T
   4   -132.0002746 -0.370520E-05  0.192E-03    0.88       6.5  T
   5   -132.0002746 -0.293892E-07  0.111E-03    0.88      11.2  T
   6   -132.0002747 -0.630878E-07  0.388E-04    0.88      32.2  T
   7   -132.0002747 -0.891291E-08  0.176E-04    0.88      71.2  T
     SCC iter.                  ...        0 min,  0.040 sec
     gradient                   ...        0 min,  0.013 sec
 * total energy  :  -129.9055678 Eh     change       -0.1326775E-03 Eh
   gradient norm :     0.0041300 Eh/α   predicted    -0.1556900E-03 (  17.34%)
   displ. norm   :     0.0702644 α      lambda       -0.1627870E-03
   maximum displ.:     0.0309920 α      in ANC's #1, #30, #40, ...

........................................................................
.............................. CYCLE   47 ..............................
........................................................................
   1   -132.0015872 -0.132002E+03  0.705E-02    0.89       0.0  T
   2   -132.0015912 -0.409028E-05  0.392E-02    0.88       1.0  T
   3   -132.0015907  0.591470E-06  0.587E-03    0.88       2.1  T
   4   -132.0015929 -0.219921E-05  0.190E-03    0.88       6.6  T
   5   -132.0015929 -0.674265E-07  0.986E-04    0.88      12.7  T
   6   -132.0015930 -0.471531E-07  0.332E-04    0.88      37.7  T
     SCC iter.                  ...        0 min,  0.034 sec
     gradient                   ...        0 min,  0.013 sec
 * total energy  :  -129.9055731 Eh     change       -0.5295719E-05 Eh
   gradient norm :     0.0060144 Eh/α   predicted    -0.8179612E-04 (1444.57%)
   displ. norm   :     0.0759184 α      lambda       -0.1395539E-03
   maximum displ.:     0.0374249 α      in ANC's #7, #1, #4, ...

........................................................................
.............................. CYCLE   48 ..............................
........................................................................
   1   -132.0013851 -0.132001E+03  0.546E-02    0.88       0.0  T
   2   -132.0013874 -0.232565E-05  0.303E-02    0.88       1.0  T
   3   -132.0013870  0.397497E-06  0.441E-03    0.88       2.8  T
   4   -132.0013883 -0.127832E-05  0.152E-03    0.88       8.2  T
   5   -132.0013884 -0.487462E-07  0.799E-04    0.88      15.7  T
   6   -132.0013884 -0.284832E-07  0.263E-04    0.88      47.6  T
     SCC iter.                  ...        0 min,  0.035 sec
     gradient                   ...        0 min,  0.012 sec
 * total energy  :  -129.9056305 Eh     change       -0.5741359E-04 Eh
   gradient norm :     0.0031146 Eh/α   predicted    -0.7018411E-04 (  22.24%)
   displ. norm   :     0.1425370 α      lambda       -0.1736020E-03
   maximum displ.:     0.0860858 α      in ANC's #1, #5, #16, ...

........................................................................
.............................. CYCLE   49 ..............................
........................................................................
   1   -131.9993705 -0.131999E+03  0.109E-01    0.88       0.0  T
   2   -131.9993785 -0.808166E-05  0.602E-02    0.88       1.0  T
   3   -131.9993713  0.724341E-05  0.124E-02    0.88       1.0  T
   4   -131.9993821 -0.108516E-04  0.271E-03    0.88       4.6  T
   5   -131.9993822 -0.726546E-07  0.158E-03    0.88       7.9  T
   6   -131.9993823 -0.121201E-06  0.425E-04    0.88      29.4  T
   7   -131.9993823 -0.611229E-08  0.190E-04    0.88      65.7  T
     SCC iter.                  ...        0 min,  0.040 sec
     gradient                   ...        0 min,  0.013 sec
 * total energy  :  -129.9056264 Eh     change        0.4112026E-05 Eh
   gradient norm :     0.0073484 Eh/α   predicted    -0.8856454E-04 (*******%)
   displ. norm   :     0.0559107 α      lambda       -0.1453506E-03
   maximum displ.:     0.0249520 α      in ANC's #1, #5, #7, ...

........................................................................
.............................. CYCLE   50 ..............................
........................................................................
   1   -132.0011123 -0.132001E+03  0.453E-02    0.88       0.0  T
   2   -132.0011136 -0.138965E-05  0.252E-02    0.88       1.0  T
   3   -132.0011125  0.118970E-05  0.527E-03    0.88       2.4  T
   4   -132.0011143 -0.181149E-05  0.121E-03    0.88      10.4  T
   5   -132.0011143 -0.101090E-07  0.711E-04    0.88      17.6  T
   6   -132.0011143 -0.259946E-07  0.212E-04    0.88      58.9  T
     SCC iter.                  ...        0 min,  0.034 sec
     gradient                   ...        0 min,  0.013 sec
 * total energy  :  -129.9057204 Eh     change       -0.9407440E-04 Eh
   gradient norm :     0.0023605 Eh/α   predicted    -0.7290455E-04 ( -22.50%)
   displ. norm   :     0.1479944 α      lambda       -0.6960484E-04
   maximum displ.:     0.0933128 α      in ANC's #1, #5, #7, ...

........................................................................
.............................. CYCLE   51 ..............................
........................................................................
   1   -132.0012699 -0.132001E+03  0.507E-02    0.88       0.0  T
   2   -132.0012713 -0.141696E-05  0.287E-02    0.88       1.0  T
   3   -132.0012706  0.743516E-06  0.438E-03    0.88       2.9  T
   4   -132.0012719 -0.131487E-05  0.156E-03    0.88       8.0  T
   5   -132.0012719 -0.310930E-07  0.767E-04    0.88      16.3  T
   6   -132.0012719 -0.264733E-07  0.231E-04    0.88      54.2  T
     SCC iter.                  ...        0 min,  0.036 sec
     gradient                   ...        0 min,  0.013 sec
 * total energy  :  -129.9057737 Eh     change       -0.5328709E-04 Eh
   gradient norm :     0.0016798 Eh/α   predicted    -0.3556601E-04 ( -33.26%)
   displ. norm   :     0.5301392 α      lambda       -0.1218038E-03
   maximum displ.:     0.3439790 α      in ANC's #1, #5, #7, ...

........................................................................
.............................. CYCLE   52 ..............................
........................................................................
   1   -132.0010800 -0.132001E+03  0.142E-01    0.88       0.0  T
   2   -132.0010870 -0.697293E-05  0.816E-02    0.88       1.0  T
   3   -132.0010830  0.396889E-05  0.106E-02    0.88       1.2  T
   4   -132.0010894 -0.636347E-05  0.439E-03    0.88       2.8  T
   5   -132.0010898 -0.419652E-06  0.204E-03    0.88       6.1  T
   6   -132.0010900 -0.201269E-06  0.678E-04    0.88      18.4  T
   7   -132.0010900 -0.171724E-07  0.328E-04    0.88      38.1  T
     SCC iter.                  ...        0 min,  0.041 sec
     gradient                   ...        0 min,  0.013 sec
 * total energy  :  -129.9058598 Eh     change       -0.8610320E-04 Eh
   gradient norm :     0.0064811 Eh/α   predicted    -0.6850921E-04 ( -20.43%)
   displ. norm   :     0.2183416 α      lambda       -0.1142654E-03
   maximum displ.:     0.1423816 α      in ANC's #1, #5, #2, ...

........................................................................
.............................. CYCLE   53 ..............................
........................................................................
   1   -132.0003855 -0.132000E+03  0.824E-02    0.88       0.0  T
   2   -132.0003896 -0.404329E-05  0.462E-02    0.88       1.0  T
   3   -132.0003884  0.114044E-05  0.688E-03    0.88       1.8  T
   4   -132.0003912 -0.277382E-05  0.233E-03    0.88       5.4  T
   5   -132.0003912  0.547212E-08  0.136E-03    0.88       9.2  T
   6   -132.0003913 -0.124052E-06  0.262E-04    0.88      47.7  T
   7   -132.0003913 -0.155453E-08  0.136E-04    0.88      91.8  T
     SCC iter.                  ...        0 min,  0.042 sec
     gradient                   ...        0 min,  0.013 sec
 * total energy  :  -129.9059441 Eh     change       -0.8429126E-04 Eh
   gradient norm :     0.0040093 Eh/α   predicted    -0.5986013E-04 ( -28.98%)
   displ. norm   :     0.2045141 α      lambda       -0.1035093E-03
   maximum displ.:     0.1348689 α      in ANC's #1, #5, #2, ...

........................................................................
.............................. CYCLE   54 ..............................
........................................................................
   1   -132.0017378 -0.132002E+03  0.660E-02    0.88       0.0  T
   2   -132.0017400 -0.220745E-05  0.374E-02    0.88       1.0  T
   3   -132.0017373  0.266232E-05  0.765E-03    0.88       1.6  T
   4   -132.0017410 -0.364941E-05  0.201E-03    0.88       6.2  T
   5   -132.0017410  0.387914E-08  0.134E-03    0.88       9.4  T
   6   -132.0017411 -0.107153E-06  0.394E-04    0.88      31.7  T
   7   -132.0017411 -0.940955E-08  0.138E-04    0.88      90.8  T
     SCC iter.                  ...        0 min,  0.042 sec
     gradient                   ...        0 min,  0.013 sec
 * total energy  :  -129.9060241 Eh     change       -0.7995961E-04 Eh
   gradient norm :     0.0025436 Eh/α   predicted    -0.5392020E-04 ( -32.57%)
   displ. norm   :     0.2948642 α      lambda       -0.1059302E-03
   maximum displ.:     0.1902045 α      in ANC's #1, #5, #2, ...

........................................................................
.............................. CYCLE   55 ..............................
........................................................................
   1   -132.0017870 -0.132002E+03  0.808E-02    0.88       0.0  T
   2   -132.0017895 -0.250360E-05  0.463E-02    0.88       1.0  T
   3   -132.0017867  0.278900E-05  0.781E-03    0.88       1.6  T
   4   -132.0017906 -0.383058E-05  0.242E-03    0.88       5.2  T
   5   -132.0017906 -0.378200E-07  0.151E-03    0.88       8.3  T
   6   -132.0017907 -0.123862E-06  0.505E-04    0.88      24.8  T
   7   -132.0017907 -0.157490E-07  0.192E-04    0.88      65.1  T
     SCC iter.                  ...        0 min,  0.041 sec
     gradient                   ...        0 min,  0.013 sec
 * total energy  :  -129.9061096 Eh     change       -0.8551856E-04 Eh
   gradient norm :     0.0028913 Eh/α   predicted    -0.5757303E-04 ( -32.68%)
   displ. norm   :     0.4070248 α      lambda       -0.1218168E-03
   maximum displ.:     0.2643479 α      in ANC's #1, #5, #3, ...

........................................................................
.............................. CYCLE   56 ..............................
........................................................................
   1   -132.0008093 -0.132001E+03  0.104E-01    0.88       0.0  T
   2   -132.0008127 -0.343548E-05  0.597E-02    0.88       1.0  T
   3   -132.0008084  0.437011E-05  0.985E-03    0.88       1.3  T
   4   -132.0008143 -0.590973E-05  0.284E-03    0.88       4.4  T
   5   -132.0008143 -0.568718E-07  0.156E-03    0.88       8.0  T
   6   -132.0008144 -0.105017E-06  0.532E-04    0.88      23.5  T
   7   -132.0008145 -0.144213E-07  0.257E-04    0.88      48.7  T
     SCC iter.                  ...        0 min,  0.042 sec
     gradient                   ...        0 min,  0.013 sec
 * total energy  :  -129.9062094 Eh     change       -0.9977188E-04 Eh
   gradient norm :     0.0044201 Eh/α   predicted    -0.7100348E-04 ( -28.83%)
   displ. norm   :     0.4733508 α      lambda       -0.1283524E-03
   maximum displ.:     0.3106182 α      in ANC's #1, #5, #2, ...

........................................................................
.............................. CYCLE   57 ..............................
........................................................................
   1   -131.9990695 -0.131999E+03  0.116E-01    0.89       0.0  T
   2   -131.9990733 -0.384903E-05  0.669E-02    0.88       1.0  T
   3   -131.9990699  0.341057E-05  0.940E-03    0.88       1.3  T
   4   -131.9990749 -0.503285E-05  0.310E-03    0.88       4.0  T
   5   -131.9990750 -0.105144E-06  0.150E-03    0.88       8.4  T
   6   -131.9990751 -0.963244E-07  0.455E-04    0.88      27.5  T
   7   -131.9990751 -0.543051E-08  0.243E-04    0.88      51.4  T
     SCC iter.                  ...        0 min,  0.042 sec
     gradient                   ...        0 min,  0.013 sec
 * total energy  :  -129.9063127 Eh     change       -0.1033085E-03 Eh
   gradient norm :     0.0038673 Eh/α   predicted    -0.7856158E-04 ( -23.95%)
   displ. norm   :     0.4881892 α      lambda       -0.1288138E-03
   maximum displ.:     0.3269076 α      in ANC's #1, #3, #2, ...

........................................................................
.............................. CYCLE   58 ..............................
........................................................................
   1   -131.9984895 -0.131998E+03  0.115E-01    0.89       0.0  T
   2   -131.9984930 -0.349440E-05  0.664E-02    0.88       1.0  T
   3   -131.9984895  0.352916E-05  0.940E-03    0.88       1.3  T
   4   -131.9984946 -0.508032E-05  0.293E-03    0.88       4.3  T
   5   -131.9984946 -0.600000E-07  0.140E-03    0.88       8.9  T
   6   -131.9984947 -0.887083E-07  0.476E-04    0.88      26.3  T
   7   -131.9984947 -0.629953E-08  0.256E-04    0.88      48.8  T
     SCC iter.                  ...        0 min,  0.042 sec
     gradient                   ...        0 min,  0.013 sec
 * total energy  :  -129.9064150 Eh     change       -0.1023088E-03 Eh
   gradient norm :     0.0041525 Eh/α   predicted    -0.7975736E-04 ( -22.04%)
   displ. norm   :     0.4806158 α      lambda       -0.1306386E-03
   maximum displ.:     0.3284495 α      in ANC's #1, #3, #2, ...

........................................................................
.............................. CYCLE   59 ..............................
........................................................................
   1   -131.9985180 -0.131999E+03  0.110E-01    0.89       0.0  T
   2   -131.9985211 -0.312537E-05  0.639E-02    0.88       1.0  T
[...]
       116        2.0000           -0.3963581             -10.7855
       117        2.0000           -0.3834563             -10.4344 (HOMO)
       118        0.0000           -0.3516268              -9.5683 (LUMO)
       119                         -0.3390108              -9.2250
       120                         -0.3328497              -9.0573
       121                         -0.3238838              -8.8133
       122                         -0.3234887              -8.8026
       ...                                ...                  ...
       224                          1.1530417              31.3759
      -------------------------------------------------------------
                  HL-Gap            0.0318295 Eh            0.8661 eV
             Fermi-level           -0.3675415 Eh          -10.0013 eV

 SCC (total)                   0 d,  0 h,  0 min,  0.039 sec
 SCC setup                      ...        0 min,  0.000 sec (  0.535%)
 Dispersion                     ...        0 min,  0.001 sec (  2.154%)
 classical contributions        ...        0 min,  0.000 sec (  0.136%)
 integral evaluation            ...        0 min,  0.005 sec ( 12.330%)
 iterations                     ...        0 min,  0.019 sec ( 49.896%)
 molecular gradient             ...        0 min,  0.013 sec ( 34.071%)
 printout                       ...        0 min,  0.000 sec (  0.721%)

         :::::::::::::::::::::::::::::::::::::::::::::::::::::
         ::                     SUMMARY                     ::
         :::::::::::::::::::::::::::::::::::::::::::::::::::::
         :: total energy            -129.907692972462 Eh    ::
         :: gradient norm              0.000745142935 Eh/a0 ::
         :: HOMO-LUMO gap              0.866124012299 eV    ::
         ::.................................................::
         :: SCC energy              -132.002195434519 Eh    ::
         :: -> isotropic ES            0.115798317934 Eh    ::
         :: -> anisotropic ES          0.003646620729 Eh    ::
         :: -> anisotropic XC          0.104927332512 Eh    ::
         :: -> dispersion             -0.097811766325 Eh    ::
         :: repulsion energy           2.095875552692 Eh    ::
         :: add. restraining           0.000000000000 Eh    ::
         :: total charge              -0.000000000000 e     ::
         :::::::::::::::::::::::::::::::::::::::::::::::::::::

           -------------------------------------------------
          |                Property Printout                |
           -------------------------------------------------

    * Orbital Energies and Occupations

         #    Occupation            Energy/Eh            Energy/eV
      -------------------------------------------------------------
         1        2.0000           -0.8423823             -22.9224
       ...           ...                  ...                  ...
       105        2.0000           -0.4470592             -12.1651
       106        2.0000           -0.4439627             -12.0808
       107        2.0000           -0.4414949             -12.0137
       108        2.0000           -0.4386415             -11.9360
       109        2.0000           -0.4378753             -11.9152
       110        2.0000           -0.4322364             -11.7618
       111        2.0000           -0.4300377             -11.7019
       112        2.0000           -0.4251133             -11.5679
       113        2.0000           -0.4207650             -11.4496
       114        2.0000           -0.4188102             -11.3964
       115        2.0000           -0.4141559             -11.2698
       116        2.0000           -0.3963581             -10.7855
       117        2.0000           -0.3834563             -10.4344 (HOMO)
       118        0.0000           -0.3516268              -9.5683 (LUMO)
       119                         -0.3390108              -9.2250
       120                         -0.3328497              -9.0573
       121                         -0.3238838              -8.8133
       122                         -0.3234887              -8.8026
       123                         -0.2911975              -7.9239
       124                         -0.2737569              -7.4493
       125                         -0.2615615              -7.1175
       126                         -0.2536455              -6.9020
       127                         -0.2505853              -6.8188
       128                         -0.2433716              -6.6225
       ...                                ...                  ...
       224                          1.1530417              31.3759
      -------------------------------------------------------------
                  HL-Gap            0.0318295 Eh            0.8661 eV
             Fermi-level           -0.3675415 Eh          -10.0013 eV

     #   Z          covCN         q      C6AA      α(0)
     1   6 C        2.960    -0.012    28.310     8.727
     2   6 C        3.000    -0.033    28.798     8.803
     3   6 C        2.864     0.229    23.212     7.897
     4   8 O        0.856    -0.363    20.965     6.139
     5   6 C        3.043    -0.022    28.505     8.757
     6   6 C        2.917    -0.014    28.354     8.732
     7   6 C        2.919    -0.042    29.041     8.837
     8   6 C        2.789     0.181    24.116     8.044
     9   9 F        0.788    -0.204    11.279     3.967
    10   6 C        2.912    -0.047    29.164     8.855
    11   6 C        3.035     0.010    27.754     8.641
    12   6 C        3.020     0.030    27.305     8.571
    13   6 C        2.947     0.010    27.790     8.646
    14   6 C        1.943     0.121    28.109     8.562
    15   7 N        0.911    -0.226    25.948     7.367
    16   6 C        1.945     0.124    28.047     8.552
    17   7 N        0.911    -0.222    25.860     7.355
    18   6 C        2.988     0.030    27.313     8.573
    19   6 C        3.066    -0.040    28.933     8.820
    20   6 C        3.155    -0.006    27.863     8.632
    21   6 C        3.850     0.056    19.602     6.297
    22   7 N        1.829    -0.203    26.238     7.590
    23   6 C        2.876     0.064    26.563     8.449
    24   6 C        2.877     0.065    26.543     8.446
    25   7 N        1.829    -0.210    26.390     7.612
    26   6 C        3.849     0.056    19.610     6.299
    27   6 C        3.130    -0.007    27.977     8.660
    28   6 C        3.026    -0.001    28.024     8.683
    29   6 C        3.015     0.018    27.590     8.616
    30  16 S        2.327     0.032   139.758    19.897
    31  16 S        2.368     0.090   137.443    19.732
    32   6 C        2.986     0.025    27.446     8.594
    33   6 C        3.081    -0.042    28.949     8.821
    34   6 C        2.917    -0.013    28.327     8.728
    35   6 C        3.006    -0.035    28.844     8.810
    36   6 C        2.873     0.226    23.267     7.907
    37   8 O        0.973    -0.346    20.570     6.084
    38   6 C        3.042    -0.021    28.487     8.754
    39   6 C        2.916    -0.013    28.344     8.730
    40   6 C        2.919    -0.041    29.029     8.835
    41   6 C        2.789     0.181    24.104     8.042
    42   9 F        0.788    -0.203    11.264     3.964
    43   6 C        2.912    -0.046    29.150     8.853
    44   6 C        3.040     0.010    27.758     8.641
    45   6 C        3.017     0.030    27.304     8.571
    46   6 C        2.947     0.011    27.769     8.643
    47   6 C        1.945     0.124    28.045     8.552
    48   7 N        0.911    -0.221    25.830     7.351
    49   6 C        1.943     0.123    28.070     8.556
    50   7 N        0.911    -0.227    25.976     7.371
    51   1 H        0.925     0.071     2.071     2.251
    52   1 H        0.926     0.074     2.046     2.237
    53   1 H        0.926     0.074     2.042     2.235
    54   1 H        0.926     0.081     1.972     2.196
    55   1 H        0.926     0.118     1.632     1.998
    56   1 H        0.922     0.050     2.317     2.381
    57   1 H        0.925     0.058     2.225     2.333
    58   1 H        0.925     0.057     2.234     2.337
    59   1 H        0.922     0.050     2.326     2.385
    60   1 H        0.926     0.077     2.015     2.220
    61   1 H        0.925     0.075     2.036     2.231
    62   1 H        0.926     0.075     2.035     2.231
    63   1 H        0.926     0.075     2.026     2.226
    64   1 H        0.926     0.082     1.963     2.191

 Mol. C6AA /au·bohr⁶  :      82632.538250
 Mol. C8AA /au·bohr⁸  :    2277044.221188
 Mol. α(0) /au        :        458.018595


Wiberg/Mayer (AO) data.
largest (>0.10) Wiberg bond orders for each atom

 ---------------------------------------------------------------------------
     #   Z sym  total        # sym  WBO       # sym  WBO       # sym  WBO
 ---------------------------------------------------------------------------
     1   6 C    3.954 --     2 C    1.535    18 C    1.266    51 H    0.942
     2   6 C    3.951 --     1 C    1.535    12 C    1.130     3 C    1.030
     3   6 C    3.924 --     4 O    1.763     2 C    1.030     5 C    1.022
     4   8 O    2.062 --     3 C    1.763
     5   6 C    3.977 --     6 C    1.413    11 C    1.296     3 C    1.022
     6   6 C    3.981 --     7 C    1.433     5 C    1.413    52 H    0.964
     7   6 C    3.969 --     6 C    1.433     8 C    1.385    53 H    0.965
     8   6 C    3.884 --     7 C    1.385    10 C    1.384     9 F    0.978
     9   9 F    1.113 --     8 C    0.978
    10   6 C    3.976 --    11 C    1.406     8 C    1.384    54 H    0.956
    11   6 C    3.982 --    10 C    1.406     5 C    1.296    12 C    1.082
    12   6 C    3.976 --    13 C    1.502     2 C    1.130    11 C    1.082
    13   6 C    3.949 --    12 C    1.502    14 C    1.093    16 C    1.091
    14   6 C    3.947 --    15 N    2.761    13 C    1.093
    15   7 N    2.970 --    14 C    2.761
    16   6 C    3.947 --    17 N    2.772    13 C    1.091
    17   7 N    2.975 --    16 C    2.772
    18   6 C    3.922 --    19 C    1.386     1 C    1.266    30 S    1.107
    19   6 C    3.954 --    20 C    1.403    18 C    1.386    55 H    0.936
    20   6 C    3.956 --    19 C    1.403    29 C    1.347    21 C    0.987
    21   6 C    3.986 --    22 N    1.011    20 C    0.987    26 C    0.953
                            56 H    0.921
    22   7 N    3.080 --    23 C    1.869    21 C    1.011
    23   6 C    3.969 --    22 N    1.869    24 C    1.044    57 H    0.955
    24   6 C    3.968 --    25 N    1.868    23 C    1.044    58 H    0.955
    25   7 N    3.076 --    24 C    1.868    26 C    1.010
    26   6 C    3.985 --    25 N    1.010    27 C    0.989    21 C    0.953
                            59 H    0.922
    27   6 C    3.958 --    33 C    1.436    28 C    1.326    26 C    0.989
    28   6 C    3.943 --    27 C    1.326    29 C    1.204    31 S    1.200
    29   6 C    3.934 --    20 C    1.347    28 C    1.204    30 S    1.187
    30  16 S    2.624 --    29 C    1.187    18 C    1.107
    31  16 S    2.806 --    28 C    1.200    32 C    1.129    37 O    0.143
    32   6 C    3.932 --    33 C    1.344    34 C    1.294    31 S    1.129
    33   6 C    3.965 --    27 C    1.436    32 C    1.344    60 H    0.959
    34   6 C    3.952 --    35 C    1.506    32 C    1.294    61 H    0.939
    35   6 C    3.953 --    34 C    1.506    45 C    1.136    36 C    1.060
    36   6 C    3.921 --    37 O    1.714    35 C    1.060    38 C    1.027
    37   8 O    2.132 --    36 C    1.714    31 S    0.143
    38   6 C    3.975 --    39 C    1.413    44 C    1.294    36 C    1.027
    39   6 C    3.980 --    40 C    1.431    38 C    1.413    62 H    0.964
    40   6 C    3.969 --    39 C    1.431    41 C    1.387    63 H    0.965
    41   6 C    3.883 --    40 C    1.387    43 C    1.380    42 F    0.980
    42   9 F    1.114 --    41 C    0.980
    43   6 C    3.975 --    44 C    1.411    41 C    1.380    64 H    0.956
    44   6 C    3.981 --    43 C    1.411    38 C    1.294    45 C    1.079
    45   6 C    3.975 --    46 C    1.500    35 C    1.136    44 C    1.079
    46   6 C    3.947 --    45 C    1.500    49 C    1.095    47 C    1.091
    47   6 C    3.946 --    48 N    2.772    46 C    1.091
    48   7 N    2.974 --    47 C    2.772
    49   6 C    3.946 --    50 N    2.760    46 C    1.095
    50   7 N    2.970 --    49 C    2.760
    51   1 H    0.994 --     1 C    0.942
    52   1 H    0.994 --     6 C    0.964
    53   1 H    0.994 --     7 C    0.965
    54   1 H    0.993 --    10 C    0.956
    55   1 H    0.985 --    19 C    0.936
    56   1 H    0.994 --    21 C    0.921
    57   1 H    0.996 --    23 C    0.955
    58   1 H    0.996 --    24 C    0.955
    59   1 H    0.994 --    26 C    0.922
    60   1 H    0.993 --    33 C    0.959
    61   1 H    0.994 --    34 C    0.939
    62   1 H    0.994 --    39 C    0.964
    63   1 H    0.993 --    40 C    0.965
    64   1 H    0.993 --    43 C    0.956
 ---------------------------------------------------------------------------

Topologies differ in bond orders
Writing corrected topology to xtbtopo.mol

molecular dipole:
                 x           y           z       tot (Debye)
 q only:        0.256      -1.249      -0.886
   full:        0.441      -1.684      -1.206       5.384
molecular quadrupole (traceless):
                xx          xy          yy          xz          yz          zz
 q only:      -49.290      15.601      48.754     -51.761       8.049       0.535
  q+dip:      -59.239      13.395      65.368     -61.820      10.597      -6.128
   full:      -63.604      16.321      61.579     -69.225       4.258       2.024

           -------------------------------------------------
          |                Geometry Summary                 |
           -------------------------------------------------

      molecular mass/u    :      688.6845449
   center of mass at/Å    :       -0.1471382      -0.3541705       0.5011992
  moments of inertia/u·Å² :        0.4772759E+04   0.2610397E+05   0.3022115E+05
rotational constants/cm⁻¹ :        0.3532052E-02   0.6457880E-03   0.5578090E-03

 * 55 selected distances

     #   Z          #   Z                                           value/Å
     1   6 C        2   6 C                                       1.3683606
     3   6 C        4   8 O                                       1.2118112
     5   6 C        6   6 C                                       1.3826182
     6   6 C        7   6 C                                       1.3851884
     7   6 C        8   6 C                                       1.3877177
     8   6 C       10   6 C                                       1.3881215
     5   6 C       11   6 C                                       1.4047122
    10   6 C       11   6 C                                       1.3854243
    12   6 C       13   6 C                                       1.3688830
    14   6 C       15   7 N                                       1.1481481
    16   6 C       17   7 N                                       1.1473711
     1   6 C       18   6 C                                       1.4089514
    18   6 C       19   6 C                                       1.3902807
    19   6 C       20   6 C                                       1.3849296
    20   6 C       21   6 C                                       1.4998012
    22   7 N       23   6 C                                       1.2658486
    24   6 C       25   7 N                                       1.2662917
    21   6 C       26   6 C                                       1.5393440
    26   6 C       27   6 C                                       1.4983350
    27   6 C       28   6 C                                       1.3996449
    20   6 C       29   6 C                                       1.3983081
    28   6 C       29   6 C                                       1.4161285
    18   6 C       30  16 S                                       1.7575389 (max)
    29   6 C       30  16 S                                       1.7172876
    28   6 C       31  16 S                                       1.7223552
    31  16 S       32   6 C                                       1.7486213
    27   6 C       33   6 C                                       1.3779611
    32   6 C       33   6 C                                       1.4004694
    32   6 C       34   6 C                                       1.4038112
    34   6 C       35   6 C                                       1.3707019
    36   6 C       37   8 O                                       1.2178089
    38   6 C       39   6 C                                       1.3822986
    39   6 C       40   6 C                                       1.3855618
    40   6 C       41   6 C                                       1.3873346
    41   6 C       42   9 F                                       1.3412992
    41   6 C       43   6 C                                       1.3888986
    38   6 C       44   6 C                                       1.4065964
    43   6 C       44   6 C                                       1.3848680
    45   6 C       46   6 C                                       1.3691003
    47   6 C       48   7 N                                       1.1473695
    49   6 C       50   7 N                                       1.1482863
     1   6 C       51   1 H                                       1.0841943
     6   6 C       52   1 H                                       1.0787304
     7   6 C       53   1 H                                       1.0784140
    10   6 C       54   1 H                                       1.0772306
    19   6 C       55   1 H                                       1.0744509 (min)
    21   6 C       56   1 H                                       1.1065753
    23   6 C       57   1 H                                       1.0816166
    24   6 C       58   1 H                                       1.0817633
    26   6 C       59   1 H                                       1.1063497
    33   6 C       60   1 H                                       1.0749650
    34   6 C       61   1 H                                       1.0832368
    39   6 C       62   1 H                                       1.0786756
    40   6 C       63   1 H                                       1.0783370
    43   6 C       64   1 H                                       1.0772099

 * 6 distinct bonds (by element types)

   Z      Z             #   av. dist./Å        max./Å        min./Å
   1 H    6 C          14     1.0829821     1.1065753     1.0744509
   6 C    6 C          28     1.4022983     1.5393440     1.3683606
   6 C    7 N           6     1.1872192     1.2662917     1.1473695
   6 C    8 O           2     1.2148100     1.2178089     1.2118112
   6 C    9 F           1     1.3412992     1.3412992     1.3412992
   6 C   16 S           4     1.7364508     1.7575389     1.7172876


optimized geometry written to: xtbopt.mol


           -------------------------------------------------
          | TOTAL ENERGY             -129.907692972462 Eh   |
          | GRADIENT NORM               0.000745142935 Eh/α |
          | HOMO-LUMO GAP               0.866124012299 eV   |
           -------------------------------------------------

------------------------------------------------------------------------
 * finished run on 2022/01/21 at 12:56:14.650     
------------------------------------------------------------------------
 total:
 * wall-time:     0 d,  0 h,  0 min,  6.151 sec
 *  cpu-time:     0 d,  0 h,  0 min, 49.086 sec
 * ratio c/w:     7.980 speedup
 SCF:
 * wall-time:     0 d,  0 h,  0 min,  0.104 sec
 *  cpu-time:     0 d,  0 h,  0 min,  0.819 sec
 * ratio c/w:     7.886 speedup
 ANC optimizer:
 * wall-time:     0 d,  0 h,  0 min,  5.996 sec
 *  cpu-time:     0 d,  0 h,  0 min, 47.951 sec
 * ratio c/w:     7.997 speedup

