      -----------------------------------------------------------      
     |                   =====================                   |     
     |                           x T B                           |     
     |                   =====================                   |     
     |                         S. Grimme                         |     
     |          Mulliken Center for Theoretical Chemistry        |     
     |                    University of Bonn                     |     
      -----------------------------------------------------------      

   * xtb version 6.4.1 (unknown) compiled by 'oda6@login1.crc.pitt.edu' on 2021-06-25

   xtb is free software: you can redistribute it and/or modify it under
   the terms of the GNU Lesser General Public License as published by
   the Free Software Foundation, either version 3 of the License, or
   (at your option) any later version.
   
   xtb is distributed in the hope that it will be useful,
   but WITHOUT ANY WARRANTY; without even the implied warranty of
   MERCHANTABILITY or FITNESS FOR A PARTICULAR PURPOSE.  See the
   GNU Lesser General Public License for more details.
   
   Cite this work as:
   * C. Bannwarth, E. Caldeweyher, S. Ehlert, A. Hansen, P. Pracht,
     J. Seibert, S. Spicher, S. Grimme, WIREs Comput. Mol. Sci., 2020, 11,
     e01493. DOI: 10.1002/wcms.1493
   
   for GFN2-xTB:
   * C. Bannwarth, S. Ehlert and S. Grimme., J. Chem. Theory Comput., 2019,
     15, 1652-1671. DOI: 10.1021/acs.jctc.8b01176
   for GFN1-xTB:
   * S. Grimme, C. Bannwarth, P. Shushkov, J. Chem. Theory Comput., 2017,
     13, 1989-2009. DOI: 10.1021/acs.jctc.7b00118
   for GFN0-xTB:
   * P. Pracht, E. Caldeweyher, S. Ehlert, S. Grimme, ChemRxiv, 2019, preprint.
     DOI: 10.26434/chemrxiv.8326202.v1
   for GFN-FF:
   * S. Spicher and S. Grimme, Angew. Chem. Int. Ed., 2020, 59, 15665-15673.
     DOI: 10.1002/anie.202004239
   
   for DFT-D4:
   * E. Caldeweyher, C. Bannwarth and S. Grimme, J. Chem. Phys., 2017,
     147, 034112. DOI: 10.1063/1.4993215
   * E. Caldeweyher, S. Ehlert, A. Hansen, H. Neugebauer, S. Spicher,
     C. Bannwarth and S. Grimme, J. Chem. Phys., 2019, 150, 154122.
     DOI: 10.1063/1.5090222
   * E. Caldeweyher, J.-M. Mewes, S. Ehlert and S. Grimme, Phys. Chem. Chem. Phys.
     2020, 22, 8499-8512. DOI: 10.1039/D0CP00502A
   
   for sTDA-xTB:
   * S. Grimme and C. Bannwarth, J. Chem. Phys., 2016, 145, 054103.
     DOI: 10.1063/1.4959605
   
   in the mass-spec context:
   * V. Asgeirsson, C. Bauer and S. Grimme, Chem. Sci., 2017, 8, 4879.
     DOI: 10.1039/c7sc00601b
   * J. Koopman and S. Grimme, ACS Omega 2019, 4, 12, 15120-15133.
     DOI: 10.1021/acsomega.9b02011
   
   for metadynamics refer to:
   * S. Grimme, J. Chem. Theory Comput., 2019, 155, 2847-2862
     DOI: 10.1021/acs.jctc.9b00143
   
   for SPH calculations refer to:
   * S. Spicher and S. Grimme, J. Chem. Theory Comput., 2021, 17, 1701-1714
     DOI: 10.1021/acs.jctc.0c01306
   
   with help from (in alphabetical order)
   P. Atkinson, C. Bannwarth, F. Bohle, G. Brandenburg, E. Caldeweyher
   M. Checinski, S. Dohm, S. Ehlert, S. Ehrlich, I. Gerasimov, J. Koopman
   C. Lavigne, S. Lehtola, F. März, M. Müller, F. Musil, H. Neugebauer
   J. Pisarek, C. Plett, P. Pracht, J. Seibert, P. Shushkov, S. Spicher
   M. Stahn, M. Steiner, T. Strunk, J. Stückrath, T. Rose, and J. Unsleber
   
 * started run on 2022/02/11 at 08:05:16.697     

           -------------------------------------------------
          |                Calculation Setup                |
           -------------------------------------------------

          program call               : /ihome/ghutchison/oda6/xtb/xtb-641/bin/xtb ../../FF_optimized/58_104_39.mol -opt
          hostname                   : smp-n28
          coordinate file            : ../../FF_optimized/58_104_39.mol
          omp threads                :                     8
          number of atoms            :                   113
          number of electrons        :                   362
          charge                     :                     0
          spin                       :                   0.0
          first test random number   :      0.46629047935581

   ID    Z sym.   atoms
    1    6 C      1-3, 5-7, 9, 11-17, 19, 21, 23-26, 30, 31, 33-37, 39, 40,
                  42, 43, 45-55, 57-65, 67, 69-75
    2    8 O      4, 8, 10, 56
    3    7 N      18, 20, 27, 29, 41, 44, 66, 68
    4   16 S      22, 28, 32, 38
    5    1 H      76-113
########################################################################
[WARNING] Please study the warnings concerning your input carefully
-1- prog_main_parseArguments: the use of '-opt' is discouraged, please use '--opt' next time
########################################################################

           -------------------------------------------------
          |                 G F N 2 - x T B                 |
           -------------------------------------------------

        Reference                      10.1021/acs.jctc.8b01176
      * Hamiltonian:
        H0-scaling (s, p, d)           1.850000    2.230000    2.230000
        zeta-weighting                 0.500000
      * Dispersion:
        s8                             2.700000
        a1                             0.520000
        a2                             5.000000
        s9                             5.000000
      * Repulsion:
        kExp                           1.500000    1.000000
        rExp                           1.000000
      * Coulomb:
        alpha                          2.000000
        third order                    shell-resolved
        anisotropic                    true
        a3                             3.000000
        a5                             4.000000
        cn-shift                       1.200000
        cn-exp                         4.000000
        max-rad                        5.000000


          ...................................................
          :                      SETUP                      :
          :.................................................:
          :  # basis functions                 362          :
          :  # atomic orbitals                 358          :
          :  # shells                          192          :
          :  # electrons                       362          :
          :  max. iterations                   250          :
          :  Hamiltonian                  GFN2-xTB          :
          :  restarted?                      false          :
          :  GBSA solvation                  false          :
          :  PC potential                    false          :
          :  electronic temp.          300.0000000     K    :
          :  accuracy                    1.0000000          :
          :  -> integral cutoff          0.2500000E+02      :
          :  -> integral neglect         0.1000000E-07      :
          :  -> SCF convergence          0.1000000E-05 Eh   :
          :  -> wf. convergence          0.1000000E-03 e    :
          :  Broyden damping             0.4000000          :
          ...................................................

 iter      E             dE          RMSdq      gap      omega  full diag
   1   -200.6589588 -0.200659E+03  0.494E+00    1.31       0.0  T
   2   -200.8650511 -0.206092E+00  0.307E+00    0.84       1.0  T
   3   -200.7856305  0.794207E-01  0.206E+00    0.87       1.0  T
   4   -201.0216856 -0.236055E+00  0.806E-01    0.95       1.0  T
   5   -201.0792992 -0.576136E-01  0.220E-01    0.67       1.0  T
   6   -201.0828357 -0.353658E-02  0.114E-01    0.83       1.0  T
   7   -201.0835526 -0.716856E-03  0.485E-02    0.79       1.0  T
   8   -201.0837344 -0.181841E-03  0.196E-02    0.80       1.0  T
   9   -201.0837485 -0.140708E-04  0.999E-03    0.79       1.0  T
  10   -201.0837546 -0.613377E-05  0.407E-03    0.79       2.3  T
  11   -201.0837552 -0.589584E-06  0.181E-03    0.80       5.2  T
  12   -201.0837554 -0.128311E-06  0.103E-03    0.79       9.1  T
  13   -201.0837554 -0.576294E-07  0.467E-04    0.80      20.1  T
  14   -201.0837554 -0.825625E-08  0.252E-04    0.80      37.4  T

   *** convergence criteria satisfied after 14 iterations ***

         #    Occupation            Energy/Eh            Energy/eV
      -------------------------------------------------------------
         1        2.0000           -0.7552519             -20.5514
       ...           ...                  ...                  ...
       175        2.0000           -0.4038742             -10.9900
       176        2.0000           -0.4030067             -10.9664
       177        2.0000           -0.3977302             -10.8228
       178        2.0000           -0.3912967             -10.6477
       179        2.0000           -0.3789734             -10.3124
       180        2.0000           -0.3712188             -10.1014
       181        2.0000           -0.3637942              -9.8993 (HOMO)
       182        0.0000           -0.3345775              -9.1043 (LUMO)
       183                         -0.3269342              -8.8963
       184                         -0.3250824              -8.8459
       185                         -0.3180453              -8.6545
       186                         -0.2996397              -8.1536
       ...                                ...                  ...
       358                          1.0757007              29.2713
      -------------------------------------------------------------
                  HL-Gap            0.0292167 Eh            0.7950 eV
             Fermi-level           -0.3491859 Eh           -9.5018 eV

 SCC (total)                   0 d,  0 h,  0 min,  0.273 sec
 SCC setup                      ...        0 min,  0.001 sec (  0.259%)
 Dispersion                     ...        0 min,  0.004 sec (  1.365%)
 classical contributions        ...        0 min,  0.000 sec (  0.051%)
 integral evaluation            ...        0 min,  0.013 sec (  4.869%)
 iterations                     ...        0 min,  0.215 sec ( 78.815%)
 molecular gradient             ...        0 min,  0.039 sec ( 14.212%)
 printout                       ...        0 min,  0.001 sec (  0.402%)

         :::::::::::::::::::::::::::::::::::::::::::::::::::::
         ::                     SUMMARY                     ::
         :::::::::::::::::::::::::::::::::::::::::::::::::::::
         :: total energy            -198.124060879811 Eh    ::
         :: gradient norm              0.309096239766 Eh/a0 ::
         :: HOMO-LUMO gap              0.795027241078 eV    ::
         ::.................................................::
         :: SCC energy              -201.083755427894 Eh    ::
         :: -> isotropic ES            0.158919200152 Eh    ::
         :: -> anisotropic ES          0.013970687306 Eh    ::
         :: -> anisotropic XC          0.135481746569 Eh    ::
         :: -> dispersion             -0.173082767837 Eh    ::
         :: repulsion energy           2.958648013489 Eh    ::
         :: add. restraining           0.000000000000 Eh    ::
         :: total charge               0.000000000014 e     ::
         :::::::::::::::::::::::::::::::::::::::::::::::::::::

      ----------------------------------------------------------- 
     |                   =====================                   |
     |                        A N C O P T                        |
     |                   =====================                   |
     |               Approximate Normal Coordinate               |
     |                Rational Function Optimizer                |
      ----------------------------------------------------------- 

          ...................................................
          :                      SETUP                      :
          :.................................................:
          :   optimization level            normal          :
          :   max. optcycles                   339          :
          :   ANC micro-cycles                  20          :
          :   degrees of freedom               333          :
          :.................................................:
          :   RF solver                   davidson          :
          :   write xtbopt.log                true          :
          :   linear?                        false          :
          :   energy convergence         0.5000000E-05 Eh   :
          :   grad. convergence          0.1000000E-02 Eh/α :
          :   maximium RF displ.         1.0000000          :
          :   Hlow (freq-cutoff)         0.1000000E-01      :
          :   Hmax (freq-cutoff)         5.0000000          :
          :   S6 in model hess.         20.0000000          :
          ...................................................

generating ANC from model Hessian ...
Using Lindh-Hessian (1995)
 Shifting diagonal of input Hessian by   9.993893337522075E-003
 Lowest  eigenvalues of input Hessian
    0.000000    0.000000    0.000000    0.000000    0.000000    0.000000
    0.010000    0.010007    0.010024    0.010041    0.010073    0.010155
    0.010232    0.010254    0.010350    0.010384    0.010411    0.010483
 Highest eigenvalues
    2.268197    2.337411    2.488546    2.492389    2.547049    2.550868
 

........................................................................
.............................. CYCLE    1 ..............................
........................................................................
   1   -201.0837554 -0.201084E+03  0.120E-04    0.80       0.0  T
   2   -201.0837554  0.164107E-09  0.106E-04    0.80      88.9  T
   3   -201.0837554 -0.101355E-08  0.501E-05    0.80     187.8  T
     SCC iter.                  ...        0 min,  0.046 sec
     gradient                   ...        0 min,  0.037 sec
 * total energy  :  -198.1240609 Eh     change       -0.3543363E-08 Eh
   gradient norm :     0.3090971 Eh/α   predicted     0.0000000E+00 (-100.00%)
   displ. norm   :     0.4640195 α      lambda       -0.9960039E-01
   maximum displ.:     0.1041262 α      in ANC's #190, #203, #95, ...

........................................................................
.............................. CYCLE    2 ..............................
........................................................................
   1   -201.2387200 -0.201239E+03  0.340E-01    0.79       0.0  T
   2   -201.2401369 -0.141697E-02  0.197E-01    0.82       1.0  T
   3   -201.2399141  0.222772E-03  0.105E-01    0.79       1.0  T
   4   -201.2404187 -0.504502E-03  0.437E-02    0.80       1.0  T
   5   -201.2405020 -0.833199E-04  0.189E-02    0.80       1.0  T
   6   -201.2405160 -0.139802E-04  0.976E-03    0.80       1.0  T
   7   -201.2405231 -0.712612E-05  0.439E-03    0.80       2.1  T
   8   -201.2405243 -0.121018E-05  0.202E-03    0.80       4.6  T
   9   -201.2405243 -0.553940E-07  0.984E-04    0.80       9.6  T
  10   -201.2405244 -0.512275E-07  0.379E-04    0.80      24.8  T
     SCC iter.                  ...        0 min,  0.147 sec
     gradient                   ...        0 min,  0.038 sec
 * total energy  :  -198.1955166 Eh     change       -0.7145569E-01 Eh
   gradient norm :     0.1355677 Eh/α   predicted    -0.6058156E-01 ( -15.22%)
   displ. norm   :     0.4820424 α      lambda       -0.3806654E-01
   maximum displ.:     0.1520206 α      in ANC's #57, #72, #95, ...

........................................................................
.............................. CYCLE    3 ..............................
........................................................................
   1   -201.3115060 -0.201312E+03  0.263E-01    0.77       0.0  T
   2   -201.3122764 -0.770350E-03  0.150E-01    0.82       1.0  T
   3   -201.3121183  0.158085E-03  0.867E-02    0.78       1.0  T
   4   -201.3125056 -0.387344E-03  0.292E-02    0.80       1.0  T
   5   -201.3125415 -0.358802E-04  0.121E-02    0.80       1.0  T
   6   -201.3125462 -0.470165E-05  0.605E-03    0.80       1.6  T
   7   -201.3125479 -0.170233E-05  0.288E-03    0.80       3.3  T
   8   -201.3125484 -0.488255E-06  0.141E-03    0.80       6.6  T
   9   -201.3125485 -0.584907E-07  0.661E-04    0.80      14.2  T
  10   -201.3125485 -0.277732E-07  0.305E-04    0.80      30.9  T
     SCC iter.                  ...        0 min,  0.147 sec
     gradient                   ...        0 min,  0.038 sec
 * total energy  :  -198.2191376 Eh     change       -0.2362106E-01 Eh
   gradient norm :     0.0413247 Eh/α   predicted    -0.2345595E-01 (  -0.70%)
   displ. norm   :     0.5253122 α      lambda       -0.1126062E-01
   maximum displ.:     0.2170132 α      in ANC's #57, #53, #55, ...

........................................................................
.............................. CYCLE    4 ..............................
........................................................................
   1   -201.3228386 -0.201323E+03  0.217E-01    0.82       0.0  T
   2   -201.3229578 -0.119160E-03  0.124E-01    0.85       1.0  T
   3   -201.3225548  0.402951E-03  0.629E-02    0.81       1.0  T
   4   -201.3230213 -0.466489E-03  0.140E-02    0.84       1.0  T
   5   -201.3230409 -0.195595E-04  0.725E-03    0.84       1.3  T
   6   -201.3230449 -0.398513E-05  0.266E-03    0.84       3.5  T
   7   -201.3230450 -0.177973E-06  0.133E-03    0.84       7.1  T
   8   -201.3230451 -0.880747E-07  0.543E-04    0.84      17.3  T
   9   -201.3230451 -0.121890E-07  0.316E-04    0.84      29.8  T
     SCC iter.                  ...        0 min,  0.135 sec
     gradient                   ...        0 min,  0.038 sec
 * total energy  :  -198.2256741 Eh     change       -0.6536473E-02 Eh
   gradient norm :     0.0293701 Eh/α   predicted    -0.7184061E-02 (   9.91%)
   displ. norm   :     0.6493000 α      lambda       -0.1023388E-01
   maximum displ.:     0.2185052 α      in ANC's #57, #19, #53, ...

........................................................................
.............................. CYCLE    5 ..............................
........................................................................
   1   -201.3305245 -0.201331E+03  0.351E-01    0.85       0.0  T
   2   -201.3307975 -0.273011E-03  0.197E-01    0.89       1.0  T
   3   -201.3298886  0.908885E-03  0.916E-02    0.83       1.0  T
   4   -201.3309667 -0.107804E-02  0.166E-02    0.88       1.0  T
   5   -201.3309918 -0.251521E-04  0.942E-03    0.88       1.0  T
   6   -201.3309984 -0.655505E-05  0.355E-03    0.88       2.7  T
   7   -201.3309987 -0.343474E-06  0.167E-03    0.88       5.6  T
   8   -201.3309989 -0.210777E-06  0.722E-04    0.88      13.0  T
   9   -201.3309990 -0.299382E-07  0.385E-04    0.88      24.4  T
     SCC iter.                  ...        0 min,  0.131 sec
     gradient                   ...        0 min,  0.038 sec
 * total energy  :  -198.2286518 Eh     change       -0.2977698E-02 Eh
   gradient norm :     0.0348010 Eh/α   predicted    -0.7274226E-02 ( 144.29%)
   displ. norm   :     0.3107177 α      lambda       -0.4599394E-02
   maximum displ.:     0.0890311 α      in ANC's #22, #20, #34, ...

........................................................................
.............................. CYCLE    6 ..............................
........................................................................
   1   -201.3364976 -0.201336E+03  0.148E-01    0.90       0.0  T
   2   -201.3365252 -0.276082E-04  0.844E-02    0.92       1.0  T
   3   -201.3361785  0.346780E-03  0.517E-02    0.89       1.0  T
   4   -201.3365704 -0.391911E-03  0.644E-03    0.91       1.5  T
   5   -201.3365729 -0.253928E-05  0.322E-03    0.91       2.9  T
   6   -201.3365733 -0.420691E-06  0.150E-03    0.91       6.3  T
   7   -201.3365735 -0.141886E-06  0.591E-04    0.91      15.9  T
   8   -201.3365735 -0.238798E-07  0.276E-04    0.91      34.1  T
     SCC iter.                  ...        0 min,  0.119 sec
     gradient                   ...        0 min,  0.038 sec
 * total energy  :  -198.2317675 Eh     change       -0.3115673E-02 Eh
   gradient norm :     0.0196370 Eh/α   predicted    -0.2521722E-02 ( -19.06%)
   displ. norm   :     0.4988562 α      lambda       -0.3499223E-02
   maximum displ.:     0.1478922 α      in ANC's #22, #9, #20, ...

........................................................................
.............................. CYCLE    7 ..............................
........................................................................
   1   -201.3322938 -0.201332E+03  0.209E-01    0.93       0.0  T
   2   -201.3323497 -0.558615E-04  0.119E-01    0.96       1.0  T
   3   -201.3316147  0.734943E-03  0.730E-02    0.91       1.0  T
   4   -201.3324411 -0.826359E-03  0.889E-03    0.95       1.1  T
   5   -201.3324452 -0.415261E-05  0.471E-03    0.95       2.0  T
   6   -201.3324464 -0.116897E-05  0.216E-03    0.95       4.4  T
   7   -201.3324467 -0.279498E-06  0.862E-04    0.95      10.9  T
   8   -201.3324467 -0.464031E-07  0.384E-04    0.95      24.5  T
     SCC iter.                  ...        0 min,  0.116 sec
     gradient                   ...        0 min,  0.037 sec
 * total energy  :  -198.2329276 Eh     change       -0.1160166E-02 Eh
   gradient norm :     0.0249714 Eh/α   predicted    -0.2185031E-02 (  88.34%)
   displ. norm   :     0.4605728 α      lambda       -0.3438849E-02
   maximum displ.:     0.1438324 α      in ANC's #22, #17, #19, ...

........................................................................
.............................. CYCLE    8 ..............................
........................................................................
   1   -201.3302062 -0.201330E+03  0.215E-01    0.97       0.0  T
   2   -201.3302568 -0.505647E-04  0.121E-01    1.00       1.0  T
   3   -201.3294886  0.768106E-03  0.738E-02    0.96       1.0  T
   4   -201.3303546 -0.865915E-03  0.807E-03    0.99       1.2  T
   5   -201.3303574 -0.286005E-05  0.456E-03    0.99       2.1  T
   6   -201.3303584 -0.929383E-06  0.195E-03    0.99       4.8  T
   7   -201.3303586 -0.293402E-06  0.715E-04    0.99      13.2  T
   8   -201.3303587 -0.302726E-07  0.323E-04    0.99      29.2  T
     SCC iter.                  ...        0 min,  0.119 sec
     gradient                   ...        0 min,  0.038 sec
 * total energy  :  -198.2347819 Eh     change       -0.1854240E-02 Eh
   gradient norm :     0.0242871 Eh/α   predicted    -0.2084176E-02 (  12.40%)
   displ. norm   :     0.4175674 α      lambda       -0.2232464E-02
   maximum displ.:     0.1661373 α      in ANC's #9, #20, #17, ...

........................................................................
.............................. CYCLE    9 ..............................
........................................................................
   1   -201.3279422 -0.201328E+03  0.198E-01    0.98       0.0  T
   2   -201.3280054 -0.632286E-04  0.111E-01    1.00       1.0  T
   3   -201.3276043  0.401089E-03  0.549E-02    0.97       1.0  T
   4   -201.3280671 -0.462740E-03  0.792E-03    1.00       1.2  T
   5   -201.3280709 -0.384620E-05  0.443E-03    1.00       2.1  T
   6   -201.3280719 -0.932047E-06  0.171E-03    1.00       5.5  T
   7   -201.3280721 -0.236476E-06  0.673E-04    1.00      14.0  T
   8   -201.3280721 -0.269036E-07  0.314E-04    1.00      29.9  T
     SCC iter.                  ...        0 min,  0.120 sec
     gradient                   ...        0 min,  0.037 sec
 * total energy  :  -198.2356419 Eh     change       -0.8600601E-03 Eh
   gradient norm :     0.0347801 Eh/α   predicted    -0.1310863E-02 (  52.42%)
   displ. norm   :     0.4572659 α      lambda       -0.3342574E-02
   maximum displ.:     0.1523334 α      in ANC's #17, #19, #20, ...

........................................................................
.............................. CYCLE   10 ..............................
........................................................................
   1   -201.3531828 -0.201353E+03  0.173E-01    1.01       0.0  T
   2   -201.3532376 -0.547410E-04  0.971E-02    1.03       1.0  T
   3   -201.3529651  0.272461E-03  0.499E-02    1.00       1.0  T
   4   -201.3532843 -0.319178E-03  0.741E-03    1.02       1.3  T
   5   -201.3532877 -0.336649E-05  0.405E-03    1.02       2.3  T
   6   -201.3532885 -0.811797E-06  0.172E-03    1.02       5.5  T
   7   -201.3532887 -0.201243E-06  0.800E-04    1.02      11.8  T
   8   -201.3532887 -0.510733E-07  0.376E-04    1.02      25.0  T
     SCC iter.                  ...        0 min,  0.121 sec
     gradient                   ...        0 min,  0.038 sec
 * total energy  :  -198.2365927 Eh     change       -0.9507659E-03 Eh
   gradient norm :     0.0500409 Eh/α   predicted    -0.2020748E-02 ( 112.54%)
   displ. norm   :     0.3826385 α      lambda       -0.2493442E-02
   maximum displ.:     0.1266724 α      in ANC's #9, #20, #17, ...

........................................................................
.............................. CYCLE   11 ..............................
........................................................................
   1   -201.3481047 -0.201348E+03  0.143E-01    1.03       0.0  T
   2   -201.3481369 -0.321430E-04  0.812E-02    1.04       1.0  T
   3   -201.3478760  0.260831E-03  0.465E-02    1.02       1.0  T
   4   -201.3481711 -0.295058E-03  0.643E-03    1.04       1.5  T
   5   -201.3481727 -0.155759E-05  0.418E-03    1.04       2.3  T
   6   -201.3481741 -0.142868E-05  0.131E-03    1.04       7.2  T
   7   -201.3481741 -0.464475E-07  0.641E-04    1.04      14.7  T
   8   -201.3481742 -0.268660E-07  0.232E-04    1.04      40.6  T
     SCC iter.                  ...        0 min,  0.121 sec
     gradient                   ...        0 min,  0.037 sec
 * total energy  :  -198.2379440 Eh     change       -0.1351257E-02 Eh
   gradient norm :     0.0259133 Eh/α   predicted    -0.1429258E-02 (   5.77%)
   displ. norm   :     0.5207130 α      lambda       -0.1910068E-02
   maximum displ.:     0.1920355 α      in ANC's #20, #9, #18, ...

........................................................................
.............................. CYCLE   12 ..............................
........................................................................
   1   -201.3237624 -0.201324E+03  0.178E-01    1.03       0.0  T
   2   -201.3237845 -0.220472E-04  0.102E-01    1.06       1.0  T
   3   -201.3231222  0.662292E-03  0.733E-02    1.02       1.0  T
   4   -201.3238691 -0.746914E-03  0.696E-03    1.05       1.4  T
   5   -201.3238701 -0.105079E-05  0.444E-03    1.05       2.1  T
   6   -201.3238714 -0.124825E-05  0.151E-03    1.05       6.2  T
   7   -201.3238715 -0.790843E-07  0.832E-04    1.05      11.3  T
   8   -201.3238715 -0.555715E-07  0.327E-04    1.05      28.7  T
     SCC iter.                  ...        0 min,  0.116 sec
     gradient                   ...        0 min,  0.037 sec
 * total energy  :  -198.2386663 Eh     change       -0.7223644E-03 Eh
   gradient norm :     0.0365552 Eh/α   predicted    -0.1213986E-02 (  68.06%)
   displ. norm   :     0.3576933 α      lambda       -0.1397096E-02
   maximum displ.:     0.1315297 α      in ANC's #20, #15, #18, ...

........................................................................
.............................. CYCLE   13 ..............................
........................................................................
   1   -201.3342943 -0.201334E+03  0.858E-02    1.05       0.0  T
   2   -201.3343080 -0.136934E-04  0.486E-02    1.05       1.0  T
   3   -201.3342206  0.874124E-04  0.301E-02    1.05       1.0  T
   4   -201.3343228 -0.102243E-03  0.493E-03    1.05       1.9  T
   5   -201.3343245 -0.174574E-05  0.239E-03    1.05       3.9  T
   6   -201.3343248 -0.272545E-06  0.109E-03    1.05       8.6  T
   7   -201.3343249 -0.717424E-07  0.439E-04    1.05      21.4  T
   8   -201.3343249 -0.117596E-07  0.209E-04    1.05      45.0  T
     SCC iter.                  ...        0 min,  0.115 sec
     gradient                   ...        0 min,  0.037 sec
 * total energy  :  -198.2396582 Eh     change       -0.9918306E-03 Eh
   gradient norm :     0.0177774 Eh/α   predicted    -0.7879281E-03 ( -20.56%)
   displ. norm   :     0.5286313 α      lambda       -0.1218249E-02
   maximum displ.:     0.2184040 α      in ANC's #15, #20, #18, ...

........................................................................
.............................. CYCLE   14 ..............................
........................................................................
   1   -201.3460975 -0.201346E+03  0.989E-02    1.06       0.0  T
   2   -201.3461162 -0.187239E-04  0.562E-02    1.06       1.0  T
   3   -201.3460286  0.876490E-04  0.291E-02    1.06       1.0  T
   4   -201.3461283 -0.997283E-04  0.594E-03    1.06       1.6  T
   5   -201.3461311 -0.274043E-05  0.288E-03    1.06       3.3  T
   6   -201.3461315 -0.396158E-06  0.134E-03    1.06       7.0  T
   7   -201.3461316 -0.114132E-06  0.504E-04    1.06      18.7  T
   8   -201.3461316 -0.133735E-07  0.270E-04    1.06      34.8  T
     SCC iter.                  ...        0 min,  0.117 sec
     gradient                   ...        0 min,  0.037 sec
 * total energy  :  -198.2405225 Eh     change       -0.8643648E-03 Eh
   gradient norm :     0.0140173 Eh/α   predicted    -0.7793470E-03 (  -9.84%)
   displ. norm   :     0.6825244 α      lambda       -0.1141388E-02
   maximum displ.:     0.2552720 α      in ANC's #20, #15, #18, ...

........................................................................
.............................. CYCLE   15 ..............................
........................................................................
   1   -201.3447486 -0.201345E+03  0.144E-01    1.06       0.0  T
   2   -201.3447813 -0.327031E-04  0.813E-02    1.06       1.0  T
   3   -201.3446827  0.986190E-04  0.292E-02    1.05       1.0  T
   4   -201.3447972 -0.114541E-03  0.709E-03    1.06       1.3  T
   5   -201.3448007 -0.344610E-05  0.375E-03    1.06       2.5  T
   6   -201.3448014 -0.755847E-06  0.165E-03    1.06       5.7  T
   7   -201.3448016 -0.224704E-06  0.575E-04    1.06      16.4  T
   8   -201.3448017 -0.134597E-07  0.303E-04    1.06      31.0  T
     SCC iter.                  ...        0 min,  0.119 sec
     gradient                   ...        0 min,  0.037 sec
 * total energy  :  -198.2412930 Eh     change       -0.7704638E-03 Eh
   gradient norm :     0.0225723 Eh/α   predicted    -0.8365549E-03 (   8.58%)
   displ. norm   :     0.6315321 α      lambda       -0.1066949E-02
   maximum displ.:     0.2703773 α      in ANC's #15, #20, #18, ...

........................................................................
.............................. CYCLE   16 ..............................
........................................................................
   1   -201.3353985 -0.201335E+03  0.140E-01    1.07       0.0  T
   2   -201.3354277 -0.292309E-04  0.795E-02    1.07       1.0  T
   3   -201.3353091  0.118599E-03  0.333E-02    1.06       1.0  T
   4   -201.3354454 -0.136294E-03  0.672E-03    1.07       1.4  T
   5   -201.3354481 -0.267111E-05  0.377E-03    1.06       2.5  T
   6   -201.3354490 -0.936671E-06  0.153E-03    1.07       6.2  T
   7   -201.3354492 -0.185444E-06  0.510E-04    1.07      18.4  T
   8   -201.3354492 -0.103928E-07  0.253E-04    1.07      37.1  T
     SCC iter.                  ...        0 min,  0.117 sec
     gradient                   ...        0 min,  0.037 sec
 * total energy  :  -198.2419792 Eh     change       -0.6862340E-03 Eh
   gradient norm :     0.0178650 Eh/α   predicted    -0.7462446E-03 (   8.74%)
   displ. norm   :     0.5089988 α      lambda       -0.9227445E-03
   maximum displ.:     0.2315049 α      in ANC's #15, #5, #2, ...

........................................................................
.............................. CYCLE   17 ..............................
........................................................................
   1   -201.3459883 -0.201346E+03  0.849E-02    1.07       0.0  T
   2   -201.3460000 -0.117172E-04  0.489E-02    1.06       1.0  T
   3   -201.3459007  0.992501E-04  0.306E-02    1.08       1.0  T
   4   -201.3460142 -0.113426E-03  0.560E-03    1.07       1.7  T
   5   -201.3460168 -0.260743E-05  0.238E-03    1.07       4.0  T
   6   -201.3460170 -0.280569E-06  0.110E-03    1.07       8.5  T
   7   -201.3460171 -0.613781E-07  0.469E-04    1.07      20.1  T
   8   -201.3460171 -0.120019E-07  0.208E-04    1.07      45.2  T
     SCC iter.                  ...        0 min,  0.119 sec
     gradient                   ...        0 min,  0.037 sec
 * total energy  :  -198.2425772 Eh     change       -0.5979279E-03 Eh
   gradient norm :     0.0145237 Eh/α   predicted    -0.5809081E-03 (  -2.85%)
   displ. norm   :     0.6381103 α      lambda       -0.8465976E-03
   maximum displ.:     0.2690736 α      in ANC's #15, #5, #9, ...

........................................................................
.............................. CYCLE   18 ..............................
........................................................................
   1   -201.3399209 -0.201340E+03  0.118E-01    1.07       0.0  T
   2   -201.3399449 -0.239850E-04  0.665E-02    1.07       1.0  T
   3   -201.3399160  0.288830E-04  0.178E-02    1.07       1.0  T
   4   -201.3399518 -0.358281E-04  0.593E-03    1.07       1.6  T
   5   -201.3399546 -0.281816E-05  0.282E-03    1.07       3.3  T
   6   -201.3399550 -0.336984E-06  0.129E-03    1.07       7.3  T
   7   -201.3399551 -0.120550E-06  0.512E-04    1.07      18.4  T
   8   -201.3399551 -0.147146E-07  0.231E-04    1.07      40.7  T
     SCC iter.                  ...        0 min,  0.118 sec
     gradient                   ...        0 min,  0.037 sec
 * total energy  :  -198.2431424 Eh     change       -0.5652600E-03 Eh
   gradient norm :     0.0161790 Eh/α   predicted    -0.5956644E-03 (   5.38%)
   displ. norm   :     0.5893283 α      lambda       -0.8883139E-03
   maximum displ.:     0.2569150 α      in ANC's #5, #15, #2, ...

........................................................................
.............................. CYCLE   19 ..............................
........................................................................
   1   -201.3459446 -0.201346E+03  0.106E-01    1.07       0.0  T
   2   -201.3459665 -0.218790E-04  0.609E-02    1.08       1.0  T
   3   -201.3458796  0.868997E-04  0.310E-02    1.07       1.0  T
   4   -201.3459804 -0.100782E-03  0.629E-03    1.08       1.5  T
   5   -201.3459835 -0.314557E-05  0.314E-03    1.08       3.0  T
   6   -201.3459842 -0.613159E-06  0.152E-03    1.08       6.2  T
   7   -201.3459843 -0.160696E-06  0.521E-04    1.08      18.1  T
   8   -201.3459843 -0.111585E-07  0.239E-04    1.08      39.3  T
     SCC iter.                  ...        0 min,  0.118 sec
     gradient                   ...        0 min,  0.037 sec
 * total energy  :  -198.2435626 Eh     change       -0.4202126E-03 Eh
   gradient norm :     0.0249324 Eh/α   predicted    -0.5984170E-03 (  42.41%)
   displ. norm   :     0.4453472 α      lambda       -0.9002086E-03
   maximum displ.:     0.2069820 α      in ANC's #5, #15, #2, ...

........................................................................
.............................. CYCLE   20 ..............................
........................................................................
   1   -201.3469222 -0.201347E+03  0.717E-02    1.08       0.0  T
   2   -201.3469356 -0.133395E-04  0.413E-02    1.08       1.0  T
   3   -201.3468901  0.454763E-04  0.210E-02    1.08       1.0  T
   4   -201.3469429 -0.528451E-04  0.442E-03    1.08       2.1  T
   5   -201.3469446 -0.166322E-05  0.181E-03    1.08       5.2  T
   6   -201.3469447 -0.145603E-06  0.980E-04    1.08       9.6  T
   7   -201.3469448 -0.605527E-07  0.396E-04    1.08      23.8  T
     SCC iter.                  ...        0 min,  0.108 sec
     gradient                   ...        0 min,  0.037 sec
 * total energy  :  -198.2441800 Eh     change       -0.6174034E-03 Eh
   gradient norm :     0.0108337 Eh/α   predicted    -0.5393765E-03 ( -12.64%)
   displ. norm   :     0.6026967 α      lambda       -0.7751411E-03
   maximum displ.:     0.2828512 α      in ANC's #5, #15, #2, ...
 * RMSD in coord.:     0.7319998 α      energy gain  -0.1201192E+00 Eh

generating ANC from model Hessian ...
Using Lindh-Hessian (1995)
 Shifting diagonal of input Hessian by   1.008390676119209E-002
 Lowest  eigenvalues of input Hessian
    0.010000    0.000000    0.000000    0.000000    0.000000    0.000000
    0.000000    0.010086    0.010100    0.010108    0.010155    0.010202
    0.010228    0.010344    0.010460    0.010518    0.010581    0.010637
 Highest eigenvalues
    2.288317    2.390523    2.601562    2.607035    2.637606    2.651873
 

........................................................................
.............................. CYCLE   21 ..............................
........................................................................
   1   -201.3378441 -0.201338E+03  0.954E-02    1.08       0.0  T
   2   -201.3378593 -0.151976E-04  0.543E-02    1.09       1.0  T
   3   -201.3377827  0.766523E-04  0.252E-02    1.08       1.0  T
   4   -201.3378703 -0.875744E-04  0.525E-03    1.09       1.8  T
   5   -201.3378723 -0.202145E-05  0.260E-03    1.09       3.6  T
   6   -201.3378726 -0.313992E-06  0.123E-03    1.09       7.6  T
   7   -201.3378727 -0.909099E-07  0.495E-04    1.09      19.0  T
   8   -201.3378727 -0.153658E-07  0.241E-04    1.09      39.1  T
     SCC iter.                  ...        0 min,  0.119 sec
     gradient                   ...        0 min,  0.037 sec
 * total energy  :  -198.2447181 Eh     change       -0.5380277E-03 Eh
   gradient norm :     0.0161477 Eh/α   predicted     0.0000000E+00 (-100.00%)
   displ. norm   :     0.1246672 α      lambda       -0.4481398E-03
   maximum displ.:     0.0533605 α      in ANC's #6, #10, #5, ...

........................................................................
.............................. CYCLE   22 ..............................
........................................................................
   1   -201.3468246 -0.201347E+03  0.508E-02    1.09       0.0  T
   2   -201.3468306 -0.602306E-05  0.285E-02    1.09       1.0  T
   3   -201.3468168  0.138330E-04  0.117E-02    1.09       1.0  T
   4   -201.3468329 -0.161037E-04  0.264E-03    1.09       3.6  T
   5   -201.3468337 -0.775656E-06  0.120E-03    1.09       7.8  T
   6   -201.3468338 -0.105614E-06  0.533E-04    1.09      17.6  T
   7   -201.3468338 -0.148163E-07  0.218E-04    1.09      43.2  T
     SCC iter.                  ...        0 min,  0.105 sec
     gradient                   ...        0 min,  0.037 sec
 * total energy  :  -198.2449836 Eh     change       -0.2655635E-03 Eh
   gradient norm :     0.0059238 Eh/α   predicted    -0.2275683E-03 ( -14.31%)
   displ. norm   :     0.2811331 α      lambda       -0.6148407E-03
   maximum displ.:     0.1638233 α      in ANC's #6, #10, #5, ...

........................................................................
.............................. CYCLE   23 ..............................
........................................................................
   1   -201.3588674 -0.201359E+03  0.901E-02    1.09       0.0  T
   2   -201.3588865 -0.191414E-04  0.506E-02    1.09       1.0  T
   3   -201.3588104  0.760472E-04  0.260E-02    1.10       1.0  T
   4   -201.3588969 -0.864881E-04  0.523E-03    1.09       1.8  T
   5   -201.3589003 -0.336016E-05  0.230E-03    1.10       4.1  T
   6   -201.3589007 -0.357710E-06  0.100E-03    1.09       9.4  T
   7   -201.3589007 -0.492264E-07  0.413E-04    1.10      22.8  T
   8   -201.3589007 -0.943339E-08  0.202E-04    1.10      46.6  T
     SCC iter.                  ...        0 min,  0.118 sec
     gradient                   ...        0 min,  0.037 sec
 * total energy  :  -198.2450691 Eh     change       -0.8548501E-04 Eh
   gradient norm :     0.0210902 Eh/α   predicted    -0.3317191E-03 ( 288.04%)
   displ. norm   :     0.2209505 α      lambda       -0.6941645E-03
   maximum displ.:     0.0880189 α      in ANC's #6, #10, #5, ...

........................................................................
.............................. CYCLE   24 ..............................
........................................................................
   1   -201.3575257 -0.201358E+03  0.940E-02    1.10       0.0  T
   2   -201.3575396 -0.138460E-04  0.522E-02    1.10       1.0  T
   3   -201.3575057  0.339048E-04  0.174E-02    1.09       1.0  T
   4   -201.3575475 -0.418326E-04  0.280E-03    1.10       3.4  T
   5   -201.3575479 -0.404547E-06  0.158E-03    1.10       6.0  T
   6   -201.3575480 -0.110261E-06  0.611E-04    1.10      15.4  T
   7   -201.3575480 -0.246405E-07  0.256E-04    1.10      36.7  T
     SCC iter.                  ...        0 min,  0.104 sec
     gradient                   ...        0 min,  0.037 sec
 * total energy  :  -198.2453614 Eh     change       -0.2923400E-03 Eh
   gradient norm :     0.0160604 Eh/α   predicted    -0.3640404E-03 (  24.53%)
   displ. norm   :     0.2301882 α      lambda       -0.7472663E-03
   maximum displ.:     0.1249720 α      in ANC's #6, #10, #5, ...

........................................................................
.............................. CYCLE   25 ..............................
........................................................................
   1   -201.3451743 -0.201345E+03  0.928E-02    1.09       0.0  T
   2   -201.3451887 -0.143443E-04  0.516E-02    1.10       1.0  T
   3   -201.3451706  0.180573E-04  0.151E-02    1.10       1.0  T
   4   -201.3451946 -0.239575E-04  0.303E-03    1.10       3.1  T
   5   -201.3451951 -0.538994E-06  0.171E-03    1.10       5.5  T
   6   -201.3451953 -0.230935E-06  0.793E-04    1.10      11.9  T
   7   -201.3451954 -0.520979E-07  0.288E-04    1.10      32.7  T
     SCC iter.                  ...        0 min,  0.104 sec
     gradient                   ...        0 min,  0.037 sec
 * total energy  :  -198.2456515 Eh     change       -0.2900789E-03 Eh
   gradient norm :     0.0149993 Eh/α   predicted    -0.3934376E-03 (  35.63%)
   displ. norm   :     0.3221063 α      lambda       -0.6527464E-03
   maximum displ.:     0.1886964 α      in ANC's #6, #5, #3, ...

........................................................................
.............................. CYCLE   26 ..............................
........................................................................
   1   -201.3424290 -0.201342E+03  0.103E-01    1.10       0.0  T
   2   -201.3424464 -0.174286E-04  0.569E-02    1.10       1.0  T
   3   -201.3424279  0.184644E-04  0.143E-02    1.10       1.0  T
   4   -201.3424544 -0.264531E-04  0.292E-03    1.10       3.2  T
   5   -201.3424546 -0.217932E-06  0.202E-03    1.10       4.7  T
   6   -201.3424549 -0.323904E-06  0.613E-04    1.10      15.4  T
   7   -201.3424549 -0.204769E-07  0.275E-04    1.10      34.2  T
     SCC iter.                  ...        0 min,  0.104 sec
     gradient                   ...        0 min,  0.037 sec
 * total energy  :  -198.2458327 Eh     change       -0.1812026E-03 Eh
   gradient norm :     0.0150820 Eh/α   predicted    -0.3602353E-03 (  98.80%)
   displ. norm   :     0.3578686 α      lambda       -0.9641915E-03
   maximum displ.:     0.2081356 α      in ANC's #6, #10, #5, ...

........................................................................
.............................. CYCLE   27 ..............................
........................................................................
   1   -201.3496765 -0.201350E+03  0.892E-02    1.10       0.0  T
   2   -201.3496880 -0.115793E-04  0.498E-02    1.10       1.0  T
   3   -201.3496351  0.529886E-04  0.211E-02    1.10       1.0  T
   4   -201.3496963 -0.612557E-04  0.301E-03    1.10       3.1  T
   5   -201.3496969 -0.546705E-06  0.182E-03    1.10       5.2  T
   6   -201.3496971 -0.248437E-06  0.692E-04    1.10      13.6  T
   7   -201.3496971 -0.303213E-07  0.275E-04    1.10      34.2  T
     SCC iter.                  ...        0 min,  0.104 sec
     gradient                   ...        0 min,  0.037 sec
 * total energy  :  -198.2464003 Eh     change       -0.5675544E-03 Eh
   gradient norm :     0.0110848 Eh/α   predicted    -0.5438404E-03 (  -4.18%)
   displ. norm   :     0.5057344 α      lambda       -0.5504562E-03
   maximum displ.:     0.2947238 α      in ANC's #6, #10, #5, ...

........................................................................
.............................. CYCLE   28 ..............................
........................................................................
   1   -201.3477604 -0.201348E+03  0.571E-02    1.10       0.0  T
   2   -201.3477632 -0.281074E-05  0.328E-02    1.10       1.0  T
   3   -201.3477364  0.267306E-04  0.144E-02    1.10       1.0  T
   4   -201.3477661 -0.296764E-04  0.254E-03    1.10       3.7  T
   5   -201.3477664 -0.260650E-06  0.164E-03    1.10       5.7  T
   6   -201.3477666 -0.219114E-06  0.630E-04    1.10      14.9  T
   7   -201.3477666 -0.244282E-07  0.269E-04    1.10      34.9  T
     SCC iter.                  ...        0 min,  0.104 sec
     gradient                   ...        0 min,  0.037 sec
 * total energy  :  -198.2468989 Eh     change       -0.4986060E-03 Eh
   gradient norm :     0.0081837 Eh/α   predicted    -0.3456249E-03 ( -30.68%)
   displ. norm   :     0.7803461 α      lambda       -0.8592228E-03
   maximum displ.:     0.4647918 α      in ANC's #6, #5, #10, ...

........................................................................
.............................. CYCLE   29 ..............................
........................................................................
   1   -201.3443813 -0.201344E+03  0.927E-02    1.10       0.0  T
   2   -201.3443904 -0.907069E-05  0.531E-02    1.10       1.0  T
   3   -201.3443543  0.360537E-04  0.178E-02    1.10       1.0  T
   4   -201.3443960 -0.416499E-04  0.345E-03    1.10       2.7  T
   5   -201.3443963 -0.277331E-06  0.225E-03    1.10       4.2  T
   6   -201.3443967 -0.434451E-06  0.988E-04    1.10       9.5  T
   7   -201.3443968 -0.806642E-07  0.395E-04    1.10      23.8  T
     SCC iter.                  ...        0 min,  0.103 sec
     gradient                   ...        0 min,  0.037 sec
 * total energy  :  -198.2476247 Eh     change       -0.7258503E-03 Eh
   gradient norm :     0.0084837 Eh/α   predicted    -0.6912203E-03 (  -4.77%)
   displ. norm   :     0.7995963 α      lambda       -0.8902911E-03
   maximum displ.:     0.4902334 α      in ANC's #6, #5, #10, ...

........................................................................
.............................. CYCLE   30 ..............................
........................................................................
   1   -201.3458202 -0.201346E+03  0.833E-02    1.10       0.0  T
   2   -201.3458269 -0.671337E-05  0.483E-02    1.10       1.0  T
   3   -201.3457972  0.297337E-04  0.169E-02    1.11       1.0  T
   4   -201.3458307 -0.335529E-04  0.334E-03    1.10       2.8  T
   5   -201.3458313 -0.606590E-06  0.206E-03    1.11       4.6  T
   6   -201.3458317 -0.375921E-06  0.940E-04    1.10      10.0  T
   7   -201.3458318 -0.704142E-07  0.372E-04    1.10      25.3  T
     SCC iter.                  ...        0 min,  0.104 sec
     gradient                   ...        0 min,  0.037 sec
 * total energy  :  -198.2483386 Eh     change       -0.7138650E-03 Eh
   gradient norm :     0.0116801 Eh/α   predicted    -0.7297517E-03 (   2.23%)
   displ. norm   :     0.7618855 α      lambda       -0.7857693E-03
   maximum displ.:     0.4755913 α      in ANC's #6, #5, #10, ...

........................................................................
.............................. CYCLE   31 ..............................
........................................................................
   1   -201.3455944 -0.201346E+03  0.764E-02    1.10       0.0  T
   2   -201.3456000 -0.557413E-05  0.442E-02    1.10       1.0  T
   3   -201.3455730  0.269471E-04  0.153E-02    1.11       1.0  T
   4   -201.3456032 -0.301380E-04  0.341E-03    1.10       2.8  T
   5   -201.3456039 -0.745343E-06  0.201E-03    1.10       4.7  T
   6   -201.3456043 -0.331095E-06  0.776E-04    1.10      12.1  T
   7   -201.3456043 -0.395323E-07  0.317E-04    1.10      29.7  T
     SCC iter.                  ...        0 min,  0.105 sec
     gradient                   ...        0 min,  0.037 sec
 * total energy  :  -198.2490536 Eh     change       -0.7150234E-03 Eh
   gradient norm :     0.0085897 Eh/α   predicted    -0.6209457E-03 ( -13.16%)
   displ. norm   :     0.6927965 α      lambda       -0.8325711E-03
   maximum displ.:     0.4404679 α      in ANC's #6, #5, #3, ...

........................................................................
.............................. CYCLE   32 ..............................
........................................................................
   1   -201.3556214 -0.201356E+03  0.759E-02    1.11       0.0  T
   2   -201.3556286 -0.723026E-05  0.438E-02    1.10       1.0  T
   3   -201.3555722  0.564170E-04  0.208E-02    1.11       1.0  T
   4   -201.3556342 -0.620069E-04  0.395E-03    1.10       2.4  T
   5   -201.3556358 -0.158810E-05  0.179E-03    1.10       5.2  T
   6   -201.3556359 -0.143950E-06  0.896E-04    1.10      10.5  T
   7   -201.3556360 -0.505252E-07  0.351E-04    1.10      26.8  T
     SCC iter.                  ...        0 min,  0.104 sec
     gradient                   ...        0 min,  0.037 sec
 * total energy  :  -198.2497246 Eh     change       -0.6709874E-03 Eh
   gradient norm :     0.0063413 Eh/α   predicted    -0.6160884E-03 (  -8.18%)
   displ. norm   :     0.8325793 α      lambda       -0.8050398E-03
   maximum displ.:     0.5103897 α      in ANC's #6, #5, #10, ...

........................................................................
.............................. CYCLE   33 ..............................
........................................................................
   1   -201.3490949 -0.201349E+03  0.810E-02    1.10       0.0  T
   2   -201.3491013 -0.635758E-05  0.468E-02    1.10       1.0  T
   3   -201.3490594  0.418753E-04  0.186E-02    1.11       1.0  T
   4   -201.3491053 -0.458599E-04  0.393E-03    1.10       2.4  T
   5   -201.3491065 -0.123799E-05  0.216E-03    1.10       4.4  T
   6   -201.3491068 -0.324610E-06  0.891E-04    1.10      10.6  T
   7   -201.3491069 -0.425047E-07  0.362E-04    1.10      26.0  T
     SCC iter.                  ...        0 min,  0.105 sec
     gradient                   ...        0 min,  0.037 sec
 * total energy  :  -198.2504240 Eh     change       -0.6994085E-03 Eh
   gradient norm :     0.0085260 Eh/α   predicted    -0.6815430E-03 (  -2.55%)
   displ. norm   :     0.8210846 α      lambda       -0.7606135E-03
   maximum displ.:     0.5164112 α      in ANC's #6, #5, #3, ...

........................................................................
.............................. CYCLE   34 ..............................
........................................................................
   1   -201.3466287 -0.201347E+03  0.800E-02    1.10       0.0  T
   2   -201.3466337 -0.505683E-05  0.461E-02    1.10       1.0  T
   3   -201.3465980  0.357628E-04  0.168E-02    1.11       1.0  T
   4   -201.3466374 -0.394869E-04  0.327E-03    1.10       2.9  T
   5   -201.3466381 -0.671310E-06  0.198E-03    1.10       4.8  T
   6   -201.3466384 -0.322275E-06  0.784E-04    1.10      12.0  T
   7   -201.3466385 -0.381412E-07  0.322E-04    1.10      29.2  T
     SCC iter.                  ...        0 min,  0.105 sec
     gradient                   ...        0 min,  0.037 sec
 * total energy  :  -198.2511182 Eh     change       -0.6941608E-03 Eh
   gradient norm :     0.0085611 Eh/α   predicted    -0.6367057E-03 (  -8.28%)
   displ. norm   :     0.7721514 α      lambda       -0.8533658E-03
   maximum displ.:     0.4827380 α      in ANC's #6, #5, #3, ...

........................................................................
.............................. CYCLE   35 ..............................
........................................................................
   1   -201.3511974 -0.201351E+03  0.839E-02    1.11       0.0  T
   2   -201.3512047 -0.729196E-05  0.479E-02    1.10       1.0  T
   3   -201.3511649  0.398211E-04  0.177E-02    1.11       1.0  T
   4   -201.3512093 -0.443890E-04  0.379E-03    1.10       2.5  T
   5   -201.3512103 -0.102034E-05  0.220E-03    1.11       4.3  T
   6   -201.3512107 -0.366302E-06  0.852E-04    1.10      11.0  T
   7   -201.3512107 -0.498996E-07  0.380E-04    1.10      24.8  T
     SCC iter.                  ...        0 min,  0.105 sec
     gradient                   ...        0 min,  0.037 sec
 * total energy  :  -198.2518520 Eh     change       -0.7338557E-03 Eh
   gradient norm :     0.0059280 Eh/α   predicted    -0.6810821E-03 (  -7.19%)
   displ. norm   :     0.8612542 α      lambda       -0.7405258E-03
   maximum displ.:     0.5373629 α      in ANC's #6, #5, #3, ...

........................................................................
.............................. CYCLE   36 ..............................
........................................................................
   1   -201.3486787 -0.201349E+03  0.860E-02    1.11       0.0  T
   2   -201.3486852 -0.656306E-05  0.493E-02    1.11       1.0  T
   3   -201.3486691  0.161212E-04  0.128E-02    1.11       1.0  T
   4   -201.3486882 -0.190876E-04  0.341E-03    1.11       2.8  T
   5   -201.3486886 -0.356152E-06  0.222E-03    1.11       4.2  T
   6   -201.3486890 -0.447206E-06  0.740E-04    1.11      12.7  T
   7   -201.3486890 -0.372238E-07  0.354E-04    1.11      26.6  T
     SCC iter.                  ...        0 min,  0.105 sec
     gradient                   ...        0 min,  0.037 sec
 * total energy  :  -198.2525281 Eh     change       -0.6760907E-03 Eh
   gradient norm :     0.0059199 Eh/α   predicted    -0.6449147E-03 (  -4.61%)
   displ. norm   :     0.8157346 α      lambda       -0.7378582E-03
   maximum displ.:     0.5004128 α      in ANC's #6, #5, #3, ...

........................................................................
.............................. CYCLE   37 ..............................
........................................................................
   1   -201.3545698 -0.201355E+03  0.829E-02    1.11       0.0  T
   2   -201.3545779 -0.811995E-05  0.475E-02    1.11       1.0  T
   3   -201.3545565  0.214544E-04  0.143E-02    1.11       1.0  T
   4   -201.3545805 -0.240559E-04  0.420E-03    1.11       2.2  T
   5   -201.3545819 -0.135883E-05  0.221E-03    1.11       4.3  T
   6   -201.3545823 -0.368980E-06  0.815E-04    1.11      11.5  T
   7   -201.3545823 -0.407508E-07  0.388E-04    1.11      24.3  T
     SCC iter.                  ...        0 min,  0.105 sec
     gradient                   ...        0 min,  0.037 sec
 * total energy  :  -198.2531541 Eh     change       -0.6259887E-03 Eh
   gradient norm :     0.0053270 Eh/α   predicted    -0.6144259E-03 (  -1.85%)
   displ. norm   :     0.8811212 α      lambda       -0.6582292E-03
   maximum displ.:     0.5507873 α      in ANC's #6, #5, #3, ...

........................................................................
.............................. CYCLE   38 ..............................
........................................................................
   1   -201.3487092 -0.201349E+03  0.840E-02    1.11       0.0  T
   2   -201.3487200 -0.108068E-04  0.485E-02    1.12       1.0  T
   3   -201.3486917  0.282626E-04  0.160E-02    1.12       1.0  T
   4   -201.3487240 -0.322797E-04  0.411E-03    1.12       2.3  T
   5   -201.3487252 -0.118782E-05  0.209E-03    1.12       4.5  T
   6   -201.3487254 -0.202024E-06  0.980E-04    1.12       9.6  T
   7   -201.3487255 -0.763599E-07  0.377E-04    1.12      25.0  T
     SCC iter.                  ...        0 min,  0.102 sec
     gradient                   ...        0 min,  0.037 sec
 * total energy  :  -198.2537171 Eh     change       -0.5629351E-03 Eh
   gradient norm :     0.0083336 Eh/α   predicted    -0.5846370E-03 (   3.86%)
   displ. norm   :     0.7880505 α      lambda       -0.5962600E-03
   maximum displ.:     0.4801966 α      in ANC's #6, #5, #3, ...

........................................................................
.............................. CYCLE   39 ..............................
........................................................................
   1   -201.3494859 -0.201349E+03  0.763E-02    1.12       0.0  T
   2   -201.3494937 -0.779223E-05  0.438E-02    1.12       1.0  T
   3   -201.3494717  0.219093E-04  0.142E-02    1.12       1.0  T
   4   -201.3494968 -0.250038E-04  0.362E-03    1.12       2.6  T
   5   -201.3494976 -0.817078E-06  0.184E-03    1.12       5.1  T
   6   -201.3494978 -0.203039E-06  0.888E-04    1.12      10.6  T
   7   -201.3494978 -0.620043E-07  0.344E-04    1.12      27.4  T
     SCC iter.                  ...        0 min,  0.101 sec
     gradient                   ...        0 min,  0.036 sec
 * total energy  :  -198.2542399 Eh     change       -0.5228841E-03 Eh
   gradient norm :     0.0071182 Eh/α   predicted    -0.4832770E-03 (  -7.57%)
   displ. norm   :     0.7620377 α      lambda       -0.6159529E-03
   maximum displ.:     0.4427851 α      in ANC's #6, #5, #3, ...

........................................................................
.............................. CYCLE   40 ..............................
........................................................................
   1   -201.3596059 -0.201360E+03  0.737E-02    1.12       0.0  T
   2   -201.3596134 -0.756247E-05  0.424E-02    1.12       1.0  T
   3   -201.3595849  0.285253E-04  0.160E-02    1.12       1.0  T
   4   -201.3596171 -0.321577E-04  0.400E-03    1.12       2.3  T
   5   -201.3596181 -0.101728E-05  0.205E-03    1.12       4.6  T
   6   -201.3596183 -0.224391E-06  0.969E-04    1.12       9.7  T
   7   -201.3596184 -0.735963E-07  0.364E-04    1.12      25.8  T
     SCC iter.                  ...        0 min,  0.100 sec
     gradient                   ...        0 min,  0.036 sec
 * total energy  :  -198.2547019 Eh     change       -0.4619293E-03 Eh
   gradient norm :     0.0091781 Eh/α   predicted    -0.4868203E-03 (   5.39%)
   displ. norm   :     0.7952900 α      lambda       -0.5821299E-03
   maximum displ.:     0.4831331 α      in ANC's #6, #5, #3, ...

........................................................................
.............................. CYCLE   41 ..............................
........................................................................
   1   -201.3542492 -0.201354E+03  0.773E-02    1.12       0.0  T
   2   -201.3542621 -0.129163E-04  0.446E-02    1.12       1.0  T
   3   -201.3542210  0.410935E-04  0.195E-02    1.13       1.0  T
   4   -201.3542672 -0.461684E-04  0.488E-03    1.12       1.9  T
   5   -201.3542696 -0.240454E-05  0.194E-03    1.12       4.8  T
   6   -201.3542698 -0.181005E-06  0.108E-03    1.12       8.7  T
   7   -201.3542699 -0.102687E-06  0.435E-04    1.12      21.6  T
   8   -201.3542699 -0.935970E-08  0.220E-04    1.12      42.7  T
     SCC iter.                  ...        0 min,  0.115 sec
     gradient                   ...        0 min,  0.036 sec
 * total energy  :  -198.2551774 Eh     change       -0.4755206E-03 Eh
   gradient norm :     0.0075716 Eh/α   predicted    -0.4751648E-03 (  -0.07%)
   displ. norm   :     0.7852898 α      lambda       -0.4905203E-03
   maximum displ.:     0.4547830 α      in ANC's #6, #5, #3, ...

........................................................................
.............................. CYCLE   42 ..............................
........................................................................
   1   -201.3512660 -0.201351E+03  0.751E-02    1.13       0.0  T
   2   -201.3512738 -0.779765E-05  0.432E-02    1.12       1.0  T
   3   -201.3512291  0.446761E-04  0.202E-02    1.13       1.0  T
   4   -201.3512791 -0.499868E-04  0.461E-03    1.12       2.0  T
   5   -201.3512811 -0.201024E-05  0.204E-03    1.12       4.6  T
   6   -201.3512813 -0.224504E-06  0.111E-03    1.12       8.5  T
   7   -201.3512814 -0.108797E-06  0.401E-04    1.12      23.5  T
   8   -201.3512814 -0.597944E-08  0.226E-04    1.12      41.5  T
     SCC iter.                  ...        0 min,  0.119 sec
     gradient                   ...        0 min,  0.037 sec
 * total energy  :  -198.2556057 Eh     change       -0.4283328E-03 Eh
   gradient norm :     0.0064518 Eh/α   predicted    -0.3965096E-03 (  -7.43%)
   displ. norm   :     0.7384213 α      lambda       -0.5351165E-03
   maximum displ.:     0.3820536 α      in ANC's #6, #5, #3, ...
 * RMSD in coord.:     1.2413861 α      energy gain  -0.1142569E-01 Eh

generating ANC from model Hessian ...
Using Lindh-Hessian (1995)
 Shifting diagonal of input Hessian by   1.000635767096602E-002
 Lowest  eigenvalues of input Hessian
    0.010000    0.000000    0.000000    0.000000    0.000000    0.000000
    0.000000    0.010016    0.010037    0.010055    0.010118    0.010160
    0.010267    0.010277    0.010379    0.010482    0.010526    0.010570
 Highest eigenvalues
    2.283384    2.385977    2.609048    2.610285    2.639349    2.650836
 

........................................................................
.............................. CYCLE   43 ..............................
........................................................................
   1   -201.3567493 -0.201357E+03  0.794E-02    1.13       0.0  T
   2   -201.3567599 -0.106718E-04  0.459E-02    1.12       1.0  T
   3   -201.3566707  0.892691E-04  0.288E-02    1.13       1.0  T
   4   -201.3567725 -0.101792E-03  0.670E-03    1.12       1.4  T
   5   -201.3567778 -0.538076E-05  0.246E-03    1.12       3.8  T
   6   -201.3567781 -0.294472E-06  0.133E-03    1.12       7.1  T
   7   -201.3567783 -0.127545E-06  0.471E-04    1.12      20.0  T
   8   -201.3567783 -0.913738E-08  0.270E-04    1.12      34.8  T
     SCC iter.                  ...        0 min,  0.115 sec
     gradient                   ...        0 min,  0.036 sec
 * total energy  :  -198.2560455 Eh     change       -0.4397552E-03 Eh
   gradient norm :     0.0083927 Eh/α   predicted     0.0000000E+00 (-100.00%)
   displ. norm   :     0.0804917 α      lambda       -0.1540309E-03
   maximum displ.:     0.0229231 α      in ANC's #8, #2, #3, ...

........................................................................
.............................. CYCLE   44 ..............................
........................................................................
   1   -201.3581071 -0.201358E+03  0.288E-02    1.13       0.0  T
   2   -201.3581103 -0.316791E-05  0.166E-02    1.13       1.0  T
   3   -201.3581007  0.958616E-05  0.895E-03    1.13       1.1  T
   4   -201.3581118 -0.111582E-04  0.195E-03    1.13       4.8  T
   5   -201.3581123 -0.436259E-06  0.697E-04    1.13      13.5  T
   6   -201.3581123 -0.229445E-07  0.371E-04    1.13      25.4  T
     SCC iter.                  ...        0 min,  0.088 sec
     gradient                   ...        0 min,  0.036 sec
 * total energy  :  -198.2561509 Eh     change       -0.1054107E-03 Eh
   gradient norm :     0.0033255 Eh/α   predicted    -0.7751501E-04 ( -26.46%)
   displ. norm   :     0.2413069 α      lambda       -0.3073668E-03
   maximum displ.:     0.0801475 α      in ANC's #8, #2, #20, ...

........................................................................
.............................. CYCLE   45 ..............................
........................................................................
   1   -201.3601274 -0.201360E+03  0.551E-02    1.13       0.0  T
   2   -201.3601405 -0.131064E-04  0.325E-02    1.13       1.0  T
   3   -201.3600990  0.415319E-04  0.196E-02    1.13       1.0  T
   4   -201.3601484 -0.494003E-04  0.448E-03    1.13       2.1  T
   5   -201.3601507 -0.226178E-05  0.162E-03    1.13       5.8  T
   6   -201.3601508 -0.138560E-06  0.836E-04    1.13      11.2  T
   7   -201.3601508 -0.383747E-07  0.380E-04    1.13      24.8  T
     SCC iter.                  ...        0 min,  0.102 sec
     gradient                   ...        0 min,  0.036 sec
 * total energy  :  -198.2562207 Eh     change       -0.6977673E-04 Eh
   gradient norm :     0.0135461 Eh/α   predicted    -0.1626324E-03 ( 133.08%)
   displ. norm   :     0.2038133 α      lambda       -0.3453085E-03
   maximum displ.:     0.0657792 α      in ANC's #1, #8, #3, ...

........................................................................
.............................. CYCLE   46 ..............................
........................................................................
   1   -201.3587931 -0.201359E+03  0.763E-02    1.13       0.0  T
   2   -201.3588030 -0.995590E-05  0.424E-02    1.13       1.0  T
   3   -201.3587801  0.229542E-04  0.142E-02    1.13       1.0  T
   4   -201.3588084 -0.283081E-04  0.266E-03    1.13       3.5  T
   5   -201.3588089 -0.491613E-06  0.137E-03    1.13       6.8  T
   6   -201.3588090 -0.887002E-07  0.609E-04    1.13      15.5  T
   7   -201.3588090 -0.263518E-07  0.204E-04    1.13      46.2  T
     SCC iter.                  ...        0 min,  0.103 sec
     gradient                   ...        0 min,  0.036 sec
 * total energy  :  -198.2563208 Eh     change       -0.1001099E-03 Eh
   gradient norm :     0.0132364 Eh/α   predicted    -0.1798391E-03 (  79.64%)
   displ. norm   :     0.1605886 α      lambda       -0.4178822E-03
   maximum displ.:     0.0543582 α      in ANC's #2, #8, #6, ...

........................................................................
.............................. CYCLE   47 ..............................
........................................................................
   1   -201.3571650 -0.201357E+03  0.650E-02    1.13       0.0  T
   2   -201.3571750 -0.100550E-04  0.366E-02    1.13       1.0  T
   3   -201.3571519  0.231132E-04  0.141E-02    1.13       1.0  T
   4   -201.3571793 -0.274237E-04  0.307E-03    1.13       3.1  T
   5   -201.3571802 -0.862398E-06  0.121E-03    1.13       7.8  T
   6   -201.3571802 -0.429909E-07  0.650E-04    1.13      14.5  T
   7   -201.3571803 -0.208034E-07  0.266E-04    1.13      35.3  T
     SCC iter.                  ...        0 min,  0.103 sec
     gradient                   ...        0 min,  0.036 sec
 * total energy  :  -198.2564712 Eh     change       -0.1504658E-03 Eh
   gradient norm :     0.0086166 Eh/α   predicted    -0.2143306E-03 (  42.44%)
   displ. norm   :     0.1992000 α      lambda       -0.3580283E-03
   maximum displ.:     0.0667743 α      in ANC's #8, #6, #2, ...

........................................................................
.............................. CYCLE   48 ..............................
........................................................................
   1   -201.3566590 -0.201357E+03  0.853E-02    1.13       0.0  T
   2   -201.3566722 -0.132777E-04  0.474E-02    1.13       1.0  T
   3   -201.3566614  0.108331E-04  0.108E-02    1.13       1.0  T
   4   -201.3566773 -0.158795E-04  0.297E-03    1.13       3.2  T
   5   -201.3566781 -0.757356E-06  0.131E-03    1.13       7.2  T
   6   -201.3566781 -0.648526E-07  0.628E-04    1.13      15.0  T
   7   -201.3566782 -0.340223E-07  0.227E-04    1.13      41.4  T
     SCC iter.                  ...        0 min,  0.103 sec
     gradient                   ...        0 min,  0.036 sec
 * total energy  :  -198.2565569 Eh     change       -0.8561431E-04 Eh
   gradient norm :     0.0091091 Eh/α   predicted    -0.1861223E-03 ( 117.40%)
   displ. norm   :     0.2525396 α      lambda       -0.4344237E-03
   maximum displ.:     0.0898178 α      in ANC's #2, #8, #6, ...

........................................................................
.............................. CYCLE   49 ..............................
........................................................................
   1   -201.3587104 -0.201359E+03  0.677E-02    1.13       0.0  T
   2   -201.3587177 -0.732091E-05  0.380E-02    1.13       1.0  T
   3   -201.3586991  0.186524E-04  0.126E-02    1.13       1.0  T
   4   -201.3587213 -0.222615E-04  0.271E-03    1.13       3.5  T
   5   -201.3587220 -0.664569E-06  0.125E-03    1.13       7.5  T
   6   -201.3587220 -0.454437E-07  0.704E-04    1.13      13.4  T
   7   -201.3587221 -0.455473E-07  0.218E-04    1.13      43.2  T
     SCC iter.                  ...        0 min,  0.103 sec
     gradient                   ...        0 min,  0.036 sec
 * total energy  :  -198.2568053 Eh     change       -0.2484305E-03 Eh
   gradient norm :     0.0062169 Eh/α   predicted    -0.2310710E-03 (  -6.99%)
   displ. norm   :     0.3887340 α      lambda       -0.3115088E-03
   maximum displ.:     0.1373241 α      in ANC's #2, #8, #6, ...

........................................................................
.............................. CYCLE   50 ..............................
........................................................................
   1   -201.3575777 -0.201358E+03  0.710E-02    1.13       0.0  T
   2   -201.3575842 -0.658923E-05  0.405E-02    1.13       1.0  T
   3   -201.3575509  0.333844E-04  0.166E-02    1.13       1.0  T
   4   -201.3575886 -0.376947E-04  0.341E-03    1.13       2.8  T
   5   -201.3575897 -0.114560E-05  0.153E-03    1.13       6.2  T
   6   -201.3575898 -0.736335E-07  0.859E-04    1.13      11.0  T
   7   -201.3575898 -0.574879E-07  0.293E-04    1.13      32.1  T
     SCC iter.                  ...        0 min,  0.102 sec
     gradient                   ...        0 min,  0.036 sec
 * total energy  :  -198.2569919 Eh     change       -0.1866045E-03 Eh
   gradient norm :     0.0065668 Eh/α   predicted    -0.1792908E-03 (  -3.92%)
   displ. norm   :     0.5206629 α      lambda       -0.3650110E-03
   maximum displ.:     0.1889241 α      in ANC's #2, #8, #6, ...

........................................................................
.............................. CYCLE   51 ..............................
........................................................................
   1   -201.3548984 -0.201355E+03  0.772E-02    1.13       0.0  T
   2   -201.3549048 -0.639784E-05  0.446E-02    1.12       1.0  T
   3   -201.3548645  0.402715E-04  0.187E-02    1.13       1.0  T
   4   -201.3549087 -0.442383E-04  0.408E-03    1.12       2.3  T
   5   -201.3549105 -0.175453E-05  0.170E-03    1.13       5.5  T
   6   -201.3549106 -0.107009E-06  0.935E-04    1.13      10.1  T
   7   -201.3549106 -0.648432E-07  0.359E-04    1.13      26.2  T
     SCC iter.                  ...        0 min,  0.102 sec
     gradient                   ...        0 min,  0.036 sec
 * total energy  :  -198.2572731 Eh     change       -0.2812611E-03 Eh
   gradient norm :     0.0070892 Eh/α   predicted    -0.2319836E-03 ( -17.52%)
   displ. norm   :     0.5258878 α      lambda       -0.3909438E-03
   maximum displ.:     0.2013262 α      in ANC's #2, #6, #8, ...

........................................................................
.............................. CYCLE   52 ..............................
........................................................................
   1   -201.3572966 -0.201357E+03  0.734E-02    1.12       0.0  T
   2   -201.3573071 -0.105296E-04  0.430E-02    1.12       1.0  T
   3   -201.3572658  0.412917E-04  0.194E-02    1.13       1.0  T
   4   -201.3573105 -0.446776E-04  0.473E-03    1.12       2.0  T
   5   -201.3573134 -0.290285E-05  0.172E-03    1.12       5.5  T
   6   -201.3573136 -0.180787E-06  0.973E-04    1.12       9.7  T
   7   -201.3573136 -0.689815E-07  0.410E-04    1.12      22.9  T
     SCC iter.                  ...        0 min,  0.101 sec
     gradient                   ...        0 min,  0.036 sec
 * total energy  :  -198.2575685 Eh     change       -0.2953427E-03 Eh
   gradient norm :     0.0056280 Eh/α   predicted    -0.2495409E-03 ( -15.51%)
   displ. norm   :     0.6303956 α      lambda       -0.3185186E-03
   maximum displ.:     0.2432928 α      in ANC's #2, #8, #6, ...

........................................................................
.............................. CYCLE   53 ..............................
........................................................................
   1   -201.3559784 -0.201356E+03  0.821E-02    1.13       0.0  T
   2   -201.3559832 -0.482435E-05  0.479E-02    1.12       1.0  T
   3   -201.3559501  0.330955E-04  0.164E-02    1.13       1.0  T
   4   -201.3559860 -0.358688E-04  0.378E-03    1.12       2.5  T
   5   -201.3559874 -0.141432E-05  0.178E-03    1.12       5.3  T
   6   -201.3559876 -0.162893E-06  0.831E-04    1.12      11.3  T
   7   -201.3559876 -0.461685E-07  0.345E-04    1.12      27.2  T
     SCC iter.                  ...        0 min,  0.101 sec
     gradient                   ...        0 min,  0.036 sec
 * total energy  :  -198.2578189 Eh     change       -0.2504495E-03 Eh
   gradient norm :     0.0054223 Eh/α   predicted    -0.2225554E-03 ( -11.14%)
   displ. norm   :     0.5236281 α      lambda       -0.3433949E-03
   maximum displ.:     0.2098534 α      in ANC's #2, #8, #6, ...

........................................................................
.............................. CYCLE   54 ..............................
........................................................................
   1   -201.3618578 -0.201362E+03  0.641E-02    1.13       0.0  T
   2   -201.3618661 -0.833420E-05  0.380E-02    1.12       1.0  T
   3   -201.3618199  0.461720E-04  0.189E-02    1.13       1.0  T
   4   -201.3618699 -0.500011E-04  0.409E-03    1.12       2.3  T
   5   -201.3618719 -0.200318E-05  0.167E-03    1.12       5.6  T
   6   -201.3618721 -0.185066E-06  0.897E-04    1.12      10.5  T
   7   -201.3618722 -0.513982E-07  0.380E-04    1.12      24.8  T
     SCC iter.                  ...        0 min,  0.102 sec
     gradient                   ...        0 min,  0.036 sec
 * total energy  :  -198.2580629 Eh     change       -0.2439224E-03 Eh
   gradient norm :     0.0071372 Eh/α   predicted    -0.2187763E-03 ( -10.31%)
   displ. norm   :     0.6090043 α      lambda       -0.2922806E-03
   maximum displ.:     0.2421875 α      in ANC's #2, #8, #6, ...

........................................................................
.............................. CYCLE   55 ..............................
........................................................................
   1   -201.3605998 -0.201361E+03  0.717E-02    1.13       0.0  T
   2   -201.3606029 -0.303370E-05  0.419E-02    1.12       1.0  T
   3   -201.3605830  0.198334E-04  0.124E-02    1.13       1.0  T
   4   -201.3606048 -0.217261E-04  0.286E-03    1.12       3.3  T
   5   -201.3606053 -0.560030E-06  0.165E-03    1.12       5.7  T
   6   -201.3606055 -0.197033E-06  0.591E-04    1.12      15.9  T
   7   -201.3606055 -0.196752E-07  0.268E-04    1.12      35.1  T
     SCC iter.                  ...        0 min,  0.102 sec
     gradient                   ...        0 min,  0.036 sec
 * total energy  :  -198.2583122 Eh     change       -0.2493338E-03 Eh
   gradient norm :     0.0053365 Eh/α   predicted    -0.2003454E-03 ( -19.65%)
   displ. norm   :     0.5846158 α      lambda       -0.3420540E-03
   maximum displ.:     0.2337593 α      in ANC's #2, #8, #6, ...

........................................................................
.............................. CYCLE   56 ..............................
........................................................................
   1   -201.3617141 -0.201362E+03  0.647E-02    1.13       0.0  T
   2   -201.3617166 -0.246528E-05  0.377E-02    1.12       1.0  T
   3   -201.3616941  0.225135E-04  0.130E-02    1.13       1.0  T
   4   -201.3617186 -0.245697E-04  0.273E-03    1.12       3.4  T
   5   -201.3617190 -0.393303E-06  0.174E-03    1.13       5.4  T
   6   -201.3617193 -0.242402E-06  0.517E-04    1.13      18.2  T
   7   -201.3617193 -0.123938E-07  0.261E-04    1.13      36.0  T
     SCC iter.                  ...        0 min,  0.103 sec
     gradient                   ...        0 min,  0.036 sec
 * total energy  :  -198.2585929 Eh     change       -0.2806655E-03 Eh
   gradient norm :     0.0050754 Eh/α   predicted    -0.2294808E-03 ( -18.24%)
   displ. norm   :     0.6202414 α      lambda       -0.3072799E-03
   maximum displ.:     0.2475892 α      in ANC's #8, #2, #1, ...

........................................................................
.............................. CYCLE   57 ..............................
........................................................................
   1   -201.3605550 -0.201361E+03  0.664E-02    1.13       0.0  T
   2   -201.3605581 -0.310134E-05  0.387E-02    1.13       1.0  T
   3   -201.3605457  0.124352E-04  0.107E-02    1.13       1.0  T
   4   -201.3605598 -0.141160E-04  0.255E-03    1.13       3.7  T
   5   -201.3605600 -0.259883E-06  0.158E-03    1.13       6.0  T
   6   -201.3605602 -0.177676E-06  0.605E-04    1.13      15.5  T
   7   -201.3605602 -0.272190E-07  0.259E-04    1.13      36.3  T
     SCC iter.                  ...        0 min,  0.101 sec
     gradient                   ...        0 min,  0.036 sec
 * total energy  :  -198.2588478 Eh     change       -0.2548947E-03 Eh
   gradient norm :     0.0048061 Eh/α   predicted    -0.2127469E-03 ( -16.54%)
   displ. norm   :     0.6054352 α      lambda       -0.2833670E-03
   maximum displ.:     0.2431846 α      in ANC's #8, #2, #1, ...

........................................................................
.............................. CYCLE   58 ..............................
........................................................................
   1   -201.3593487 -0.201359E+03  0.633E-02    1.13       0.0  T
   2   -201.3593516 -0.284945E-05  0.366E-02    1.13       1.0  T
   3   -201.3593428  0.875820E-05  0.943E-03    1.13       1.0  T
   4   -201.3593530 -0.102039E-04  0.240E-03    1.13       3.9  T
   5   -201.3593532 -0.222417E-06  0.134E-03    1.13       7.0  T
   6   -201.3593534 -0.143854E-06  0.494E-04    1.13      19.0  T
   7   -201.3593534 -0.175519E-07  0.253E-04    1.13      37.1  T
     SCC iter.                  ...        0 min,  0.101 sec
     gradient                   ...        0 min,  0.036 sec
 * total energy  :  -198.2590792 Eh     change       -0.2314906E-03 Eh
   gradient norm :     0.0056788 Eh/α   predicted    -0.1936211E-03 ( -16.36%)
   displ. norm   :     0.6064340 α      lambda       -0.2678878E-03
   maximum displ.:     0.2540362 α      in ANC's #1, #2, #8, ...

........................................................................
.............................. CYCLE   59 ..............................
........................................................................
   1   -201.3595202 -0.201360E+03  0.615E-02    1.13       0.0  T
   2   -201.3595241 -0.390257E-05  0.357E-02    1.13       1.0  T
   3   -201.3595025  0.216785E-04  0.132E-02    1.13       1.0  T
   4   -201.3595265 -0.240094E-04  0.274E-03    1.13       3.4  T
   5   -201.3595270 -0.536326E-06  0.139E-03    1.13       6.8  T
   6   -201.3595271 -0.926761E-07  0.675E-04    1.13      13.9  T
   7   -201.3595271 -0.385538E-07  0.293E-04    1.13      32.2  T
     SCC iter.                  ...        0 min,  0.101 sec
     gradient                   ...        0 min,  0.036 sec
[...]
    99   1 H        0.924     0.073     2.055     2.242
   100   1 H        0.925     0.043     2.404     2.425
   101   1 H        0.925     0.053     2.286     2.364
   102   1 H        0.925     0.049     2.328     2.386
   103   1 H        0.925     0.070     2.083     2.257
   104   1 H        0.926     0.057     2.237     2.339
   105   1 H        0.926     0.056     2.245     2.343
   106   1 H        0.925     0.044     2.395     2.420
   107   1 H        0.925     0.037     2.494     2.469
   108   1 H        0.926     0.032     2.561     2.502
   109   1 H        0.926     0.031     2.573     2.509
   110   1 H        0.925     0.034     2.527     2.486
   111   1 H        0.925     0.038     2.474     2.460
   112   1 H        0.925     0.041     2.441     2.443
   113   1 H        0.925     0.043     2.416     2.430

 Mol. C6AA /au·bohr⁶  :     213867.016335
 Mol. C8AA /au·bohr⁸  :    5811911.418799
 Mol. α(0) /au        :        729.275155


Wiberg/Mayer (AO) data.
largest (>0.10) Wiberg bond orders for each atom

 ---------------------------------------------------------------------------
     #   Z sym  total        # sym  WBO       # sym  WBO       # sym  WBO
 ---------------------------------------------------------------------------
     1   6 C    3.948 --     2 C    1.486    21 C    1.316    76 H    0.929
     2   6 C    3.953 --     1 C    1.486    15 C    1.144     3 C    1.062
     3   6 C    3.922 --     4 O    1.731     2 C    1.062     5 C    1.014
     4   8 O    2.119 --     3 C    1.731    22 S    0.111
     5   6 C    3.975 --     6 C    1.438    14 C    1.290     3 C    1.014
     6   6 C    3.979 --     5 C    1.438     7 C    1.360    77 H    0.962
     7   6 C    3.907 --    12 C    1.388     6 C    1.360     8 O    0.995
     8   8 O    2.346 --     9 C    1.079     7 C    0.995    10 O    0.157
     9   6 C    3.910 --    10 O    1.782     8 O    1.079    11 C    0.991
    10   8 O    2.064 --     9 C    1.782     8 O    0.157
    11   6 C    3.989 --     9 C    0.991    78 H    0.981    79 H    0.966
                            80 H    0.957
    12   6 C    3.977 --    13 C    1.430     7 C    1.388    81 H    0.964
    13   6 C    3.974 --    12 C    1.430    14 C    1.403    82 H    0.960
    14   6 C    3.980 --    13 C    1.403     5 C    1.290    15 C    1.084
    15   6 C    3.971 --    16 C    1.478     2 C    1.144    14 C    1.084
    16   6 C    3.955 --    15 C    1.478    17 C    1.102    19 C    1.096
    17   6 C    3.944 --    18 N    2.743    16 C    1.102
    18   7 N    2.961 --    17 C    2.743
    19   6 C    3.945 --    20 N    2.763    16 C    1.096
    20   7 N    2.967 --    19 C    2.763
    21   6 C    3.929 --    46 C    1.330     1 C    1.316    22 S    1.095
    22  16 S    2.729 --    23 C    1.184    21 C    1.095    46 C    0.112
                             4 O    0.111
    23   6 C    3.942 --    24 C    1.274    45 C    1.252    22 S    1.184
    24   6 C    3.955 --    23 C    1.274    43 C    1.267    25 C    1.173
    25   6 C    3.973 --    29 N    1.426    24 C    1.173    26 C    1.169
    26   6 C    3.973 --    27 N    1.425    30 C    1.173    25 C    1.169
                            28 S    0.102
    27   7 N    3.073 --    26 C    1.425    28 S    1.395    29 N    0.149
    28  16 S    3.110 --    29 N    1.395    27 N    1.395    26 C    0.102
    29   7 N    3.077 --    25 C    1.426    28 S    1.395    27 N    0.149
    30   6 C    3.950 --    31 C    1.273    42 C    1.270    26 C    1.173
    31   6 C    3.917 --    40 C    1.310    30 C    1.273    32 S    1.113
    32  16 S    2.501 --    31 C    1.113    33 C    1.079
    33   6 C    3.930 --    34 C    1.358    39 C    1.293    32 S    1.079
    34   6 C    3.956 --    33 C    1.358    37 C    1.339    35 C    1.017
    35   6 C    3.993 --    34 C    1.017    36 C    0.992    84 H    0.968
                            83 H    0.964
    36   6 C    3.990 --    35 C    0.992    85 H    0.988    87 H    0.987
                            86 H    0.984
    37   6 C    3.929 --    34 C    1.339    53 C    1.309    38 S    1.079
    38  16 S    2.733 --    39 C    1.153    37 C    1.079    56 O    0.142
    39   6 C    3.942 --    33 C    1.293    40 C    1.255    38 S    1.153
    40   6 C    3.936 --    31 C    1.310    39 C    1.255    41 N    1.146
    41   7 N    3.521 --    42 C    1.152    40 C    1.146    51 C    0.975
    42   6 C    3.926 --    30 C    1.270    43 C    1.232    41 N    1.152
    43   6 C    3.921 --    24 C    1.267    42 C    1.232    44 N    1.172
    44   7 N    3.550 --    43 C    1.172    45 C    1.136    49 C    0.990
    45   6 C    3.933 --    46 C    1.332    23 C    1.252    44 N    1.136
    46   6 C    3.964 --    45 C    1.332    21 C    1.330    47 C    1.015
                            22 S    0.112
    47   6 C    3.994 --    46 C    1.015    48 C    0.995    89 H    0.962
                            88 H    0.960
    48   6 C    3.992 --    47 C    0.995    91 H    0.986    92 H    0.986
                            90 H    0.985
    49   6 C    3.968 --    50 C    1.004    44 N    0.990    94 H    0.961
                            93 H    0.960
    50   6 C    3.988 --    49 C    1.004    96 H    0.984    97 H    0.980
                            95 H    0.979
    51   6 C    3.960 --    52 C    1.005    41 N    0.975    99 H    0.963
                            98 H    0.955
    52   6 C    3.989 --    51 C    1.005   102 H    0.986   100 H    0.985
                           101 H    0.983
    53   6 C    3.947 --    54 C    1.495    37 C    1.309   103 H    0.932
    54   6 C    3.951 --    53 C    1.495    63 C    1.137    55 C    1.065
    55   6 C    3.921 --    56 O    1.699    54 C    1.065    57 C    1.031
    56   8 O    2.118 --    55 C    1.699    38 S    0.142
    57   6 C    3.971 --    58 C    1.380    62 C    1.309    55 C    1.031
    58   6 C    3.981 --    59 C    1.443    57 C    1.380   104 H    0.964
    59   6 C    3.957 --    58 C    1.443    60 C    1.328    75 C    0.996
    60   6 C    3.966 --    61 C    1.449    59 C    1.328    69 C    0.997
    61   6 C    3.978 --    60 C    1.449    62 C    1.368   105 H    0.958
    62   6 C    3.977 --    61 C    1.368    57 C    1.309    63 C    1.087
    63   6 C    3.972 --    64 C    1.483    54 C    1.137    62 C    1.087
    64   6 C    3.947 --    63 C    1.483    65 C    1.099    67 C    1.096
    65   6 C    3.945 --    66 N    2.749    64 C    1.099
    66   7 N    2.963 --    65 C    2.749
    67   6 C    3.944 --    68 N    2.761    64 C    1.096
    68   7 N    2.967 --    67 C    2.761
    69   6 C    3.985 --    60 C    0.997    75 C    0.978   106 H    0.960
                            70 C    0.947
    70   6 C    3.990 --    71 C    1.010    74 C    0.985   107 H    0.972
                            69 C    0.947
    71   6 C    3.987 --    72 C    1.924    70 C    1.010   108 H    0.972
    72   6 C    3.987 --    71 C    1.924    73 C    1.010   109 H    0.972
    73   6 C    3.989 --    72 C    1.010    74 C    0.985   110 H    0.972
                            75 C    0.947
    74   6 C    3.993 --    73 C    0.985    70 C    0.985   111 H    0.978
                           112 H    0.977
    75   6 C    3.985 --    59 C    0.996    69 C    0.978   113 H    0.960
                            73 C    0.947
    76   1 H    0.994 --     1 C    0.929
    77   1 H    0.993 --     6 C    0.962
    78   1 H    0.993 --    11 C    0.981
    79   1 H    0.993 --    11 C    0.966
    80   1 H    0.993 --    11 C    0.957
    81   1 H    0.994 --    12 C    0.964
    82   1 H    0.995 --    13 C    0.960
    83   1 H    0.996 --    35 C    0.964
    84   1 H    0.995 --    35 C    0.968
    85   1 H    0.998 --    36 C    0.988
    86   1 H    0.996 --    36 C    0.984
    87   1 H    0.999 --    36 C    0.987
    88   1 H    0.996 --    47 C    0.960
    89   1 H    0.997 --    47 C    0.962
    90   1 H    0.996 --    48 C    0.985
    91   1 H    0.998 --    48 C    0.986
    92   1 H    0.999 --    48 C    0.986
    93   1 H    0.996 --    49 C    0.960
    94   1 H    0.994 --    49 C    0.961
    95   1 H    0.997 --    50 C    0.979
    96   1 H    0.997 --    50 C    0.984
    97   1 H    0.997 --    50 C    0.980
    98   1 H    0.994 --    51 C    0.955
    99   1 H    0.994 --    51 C    0.963
   100   1 H    0.998 --    52 C    0.985
   101   1 H    0.997 --    52 C    0.983
   102   1 H    0.998 --    52 C    0.986
   103   1 H    0.994 --    53 C    0.932
   104   1 H    0.996 --    58 C    0.964
   105   1 H    0.996 --    61 C    0.958
   106   1 H    0.997 --    69 C    0.960
   107   1 H    0.998 --    70 C    0.972
   108   1 H    0.999 --    71 C    0.972
   109   1 H    0.999 --    72 C    0.972
   110   1 H    0.999 --    73 C    0.972
   111   1 H    0.998 --    74 C    0.978
   112   1 H    0.996 --    74 C    0.977
   113   1 H    0.996 --    75 C    0.960
 ---------------------------------------------------------------------------

Topologies differ in bond orders
Writing corrected topology to xtbtopo.mol

molecular dipole:
                 x           y           z       tot (Debye)
 q only:       -0.278      -1.163      -0.939
   full:       -0.153      -1.423      -0.976       4.403
molecular quadrupole (traceless):
                xx          xy          yy          xz          yz          zz
 q only:     -144.075       0.423      95.888     -20.842      26.805      48.187
  q+dip:     -161.662      12.369     104.075     -13.044      35.340      57.587
   full:     -169.883      13.058     102.861     -13.916      26.482      67.022

           -------------------------------------------------
          |                Geometry Summary                 |
           -------------------------------------------------

      molecular mass/u    :     1051.2455616
   center of mass at/Å    :       -0.2278661       0.8407851       0.3373151
  moments of inertia/u·Å² :        0.1102777E+05   0.6712294E+05   0.7317816E+05
rotational constants/cm⁻¹ :        0.1528653E-02   0.2511456E-03   0.2303643E-03

 * 108 selected distances

     #   Z          #   Z                                           value/Å
     1   6 C        2   6 C                                       1.3732534
     3   6 C        4   8 O                                       1.2155026
     5   6 C        6   6 C                                       1.3767010
     6   6 C        7   6 C                                       1.3941305
     7   6 C        8   8 O                                       1.3817393
     8   8 O        9   6 C                                       1.3518261
     9   6 C       10   8 O                                       1.1979324
     7   6 C       12   6 C                                       1.3909760
    12   6 C       13   6 C                                       1.3879158
     5   6 C       14   6 C                                       1.4058178
    13   6 C       14   6 C                                       1.3857767
    15   6 C       16   6 C                                       1.3724956
    17   6 C       18   7 N                                       1.1499021
    19   6 C       20   7 N                                       1.1481563
     1   6 C       21   6 C                                       1.4003538
    22  16 S       23   6 C                                       1.7058420
    23   6 C       24   6 C                                       1.3995193
    24   6 C       25   6 C                                       1.4113662
    25   6 C       26   6 C                                       1.4314798
    26   6 C       27   7 N                                       1.3243052
    27   7 N       28  16 S                                       1.6190077
    25   6 C       29   7 N                                       1.3234942
    28  16 S       29   7 N                                       1.6174469
    26   6 C       30   6 C                                       1.4113531
    30   6 C       31   6 C                                       1.4012767
    31   6 C       32  16 S                                       1.7296084
    32  16 S       33   6 C                                       1.7548431 (max)
    33   6 C       34   6 C                                       1.3893993
    34   6 C       35   6 C                                       1.4940379
    35   6 C       36   6 C                                       1.5312074
    34   6 C       37   6 C                                       1.4047946
    33   6 C       39   6 C                                       1.4048522
    38  16 S       39   6 C                                       1.7225874
    31   6 C       40   6 C                                       1.3968313
    39   6 C       40   6 C                                       1.3974892
    40   6 C       41   7 N                                       1.3739626
    30   6 C       42   6 C                                       1.4287171
    41   7 N       42   6 C                                       1.3932872
    24   6 C       43   6 C                                       1.4242196
    42   6 C       43   6 C                                       1.4224820
    43   6 C       44   7 N                                       1.3829474
    23   6 C       45   6 C                                       1.4081951
    44   7 N       45   6 C                                       1.3804377
    21   6 C       46   6 C                                       1.4123782
    45   6 C       46   6 C                                       1.3967080
    47   6 C       48   6 C                                       1.5322813
    44   7 N       49   6 C                                       1.4404952
    49   6 C       50   6 C                                       1.5308368
    41   7 N       51   6 C                                       1.4512127
    51   6 C       52   6 C                                       1.5279249
    37   6 C       53   6 C                                       1.4003462
    53   6 C       54   6 C                                       1.3716751
    55   6 C       56   8 O                                       1.2204350
    57   6 C       58   6 C                                       1.3924299
    58   6 C       59   6 C                                       1.3740197
    59   6 C       60   6 C                                       1.4010905
    60   6 C       61   6 C                                       1.3750955
    57   6 C       62   6 C                                       1.4096485
    61   6 C       62   6 C                                       1.3974033
    63   6 C       64   6 C                                       1.3717349
    65   6 C       66   7 N                                       1.1494006
    67   6 C       68   7 N                                       1.1483088
    60   6 C       69   6 C                                       1.5079826
    69   6 C       70   6 C                                       1.5492007
    71   6 C       72   6 C                                       1.3263248
    70   6 C       74   6 C                                       1.5371074
    73   6 C       74   6 C                                       1.5369407
    59   6 C       75   6 C                                       1.5079686
    69   6 C       75   6 C                                       1.5612644
    73   6 C       75   6 C                                       1.5491509
     1   6 C       76   1 H                                       1.0807336
     6   6 C       77   1 H                                       1.0784223
    11   6 C       78   1 H                                       1.0854169
    11   6 C       79   1 H                                       1.0867864
    11   6 C       80   1 H                                       1.0879585
    12   6 C       81   1 H                                       1.0779893
    13   6 C       82   1 H                                       1.0775185
    35   6 C       83   1 H                                       1.0909137
    35   6 C       84   1 H                                       1.0918229
    36   6 C       85   1 H                                       1.0875389
    36   6 C       86   1 H                                       1.0862825
    36   6 C       87   1 H                                       1.0877395
    47   6 C       88   1 H                                       1.0914077
    47   6 C       89   1 H                                       1.0878592
    48   6 C       90   1 H                                       1.0868843
    48   6 C       91   1 H                                       1.0870149
    48   6 C       92   1 H                                       1.0886462
    49   6 C       93   1 H                                       1.0911060
    49   6 C       94   1 H                                       1.0921271
    50   6 C       95   1 H                                       1.0872621
    50   6 C       96   1 H                                       1.0871181
    50   6 C       97   1 H                                       1.0866068
    51   6 C       98   1 H                                       1.0825454
    51   6 C       99   1 H                                       1.0931025
    52   6 C      100   1 H                                       1.0886904
    52   6 C      101   1 H                                       1.0864153
    52   6 C      102   1 H                                       1.0873926
    53   6 C      103   1 H                                       1.0814510
    58   6 C      104   1 H                                       1.0788566
    61   6 C      105   1 H                                       1.0770813
    69   6 C      106   1 H                                       1.0880201
    70   6 C      107   1 H                                       1.0865915
    71   6 C      108   1 H                                       1.0743318 (min)
    72   6 C      109   1 H                                       1.0744009
    73   6 C      110   1 H                                       1.0869261
    74   6 C      111   1 H                                       1.0890643
    74   6 C      112   1 H                                       1.0889695
    75   6 C      113   1 H                                       1.0882242

 * 6 distinct bonds (by element types)

   Z      Z             #   av. dist./Å        max./Å        min./Å
   1 H    6 C          38     1.0857163     1.0931025     1.0743318
   6 C    6 C          47     1.4300884     1.5612644     1.3263248
   6 C    7 N          12     1.3054925     1.4512127     1.1481563
   6 C    8 O           5     1.2734871     1.3817393     1.1979324
   6 C   16 S           4     1.7282202     1.7548431     1.7058420
   7 N   16 S           2     1.6182273     1.6190077     1.6174469


optimized geometry written to: xtbopt.mol


           -------------------------------------------------
          | TOTAL ENERGY             -198.266638301084 Eh   |
          | GRADIENT NORM               0.000319207246 Eh/α |
          | HOMO-LUMO GAP               1.126467706601 eV   |
           -------------------------------------------------

------------------------------------------------------------------------
 * finished run on 2022/02/11 at 08:05:44.389     
------------------------------------------------------------------------
 total:
 * wall-time:     0 d,  0 h,  0 min, 27.692 sec
 *  cpu-time:     0 d,  0 h,  3 min, 41.429 sec
 * ratio c/w:     7.996 speedup
 SCF:
 * wall-time:     0 d,  0 h,  0 min,  0.275 sec
 *  cpu-time:     0 d,  0 h,  0 min,  2.188 sec
 * ratio c/w:     7.965 speedup
 ANC optimizer:
 * wall-time:     0 d,  0 h,  0 min, 27.357 sec
 *  cpu-time:     0 d,  0 h,  3 min, 38.833 sec
 * ratio c/w:     7.999 speedup

