      -----------------------------------------------------------      
     |                   =====================                   |     
     |                           x T B                           |     
     |                   =====================                   |     
     |                         S. Grimme                         |     
     |          Mulliken Center for Theoretical Chemistry        |     
     |                    University of Bonn                     |     
      -----------------------------------------------------------      

   * xtb version 6.4.1 (unknown) compiled by 'oda6@login1.crc.pitt.edu' on 2021-06-25

   xtb is free software: you can redistribute it and/or modify it under
   the terms of the GNU Lesser General Public License as published by
   the Free Software Foundation, either version 3 of the License, or
   (at your option) any later version.
   
   xtb is distributed in the hope that it will be useful,
   but WITHOUT ANY WARRANTY; without even the implied warranty of
   MERCHANTABILITY or FITNESS FOR A PARTICULAR PURPOSE.  See the
   GNU Lesser General Public License for more details.
   
   Cite this work as:
   * C. Bannwarth, E. Caldeweyher, S. Ehlert, A. Hansen, P. Pracht,
     J. Seibert, S. Spicher, S. Grimme, WIREs Comput. Mol. Sci., 2020, 11,
     e01493. DOI: 10.1002/wcms.1493
   
   for GFN2-xTB:
   * C. Bannwarth, S. Ehlert and S. Grimme., J. Chem. Theory Comput., 2019,
     15, 1652-1671. DOI: 10.1021/acs.jctc.8b01176
   for GFN1-xTB:
   * S. Grimme, C. Bannwarth, P. Shushkov, J. Chem. Theory Comput., 2017,
     13, 1989-2009. DOI: 10.1021/acs.jctc.7b00118
   for GFN0-xTB:
   * P. Pracht, E. Caldeweyher, S. Ehlert, S. Grimme, ChemRxiv, 2019, preprint.
     DOI: 10.26434/chemrxiv.8326202.v1
   for GFN-FF:
   * S. Spicher and S. Grimme, Angew. Chem. Int. Ed., 2020, 59, 15665-15673.
     DOI: 10.1002/anie.202004239
   
   for DFT-D4:
   * E. Caldeweyher, C. Bannwarth and S. Grimme, J. Chem. Phys., 2017,
     147, 034112. DOI: 10.1063/1.4993215
   * E. Caldeweyher, S. Ehlert, A. Hansen, H. Neugebauer, S. Spicher,
     C. Bannwarth and S. Grimme, J. Chem. Phys., 2019, 150, 154122.
     DOI: 10.1063/1.5090222
   * E. Caldeweyher, J.-M. Mewes, S. Ehlert and S. Grimme, Phys. Chem. Chem. Phys.
     2020, 22, 8499-8512. DOI: 10.1039/D0CP00502A
   
   for sTDA-xTB:
   * S. Grimme and C. Bannwarth, J. Chem. Phys., 2016, 145, 054103.
     DOI: 10.1063/1.4959605
   
   in the mass-spec context:
   * V. Asgeirsson, C. Bauer and S. Grimme, Chem. Sci., 2017, 8, 4879.
     DOI: 10.1039/c7sc00601b
   * J. Koopman and S. Grimme, ACS Omega 2019, 4, 12, 15120-15133.
     DOI: 10.1021/acsomega.9b02011
   
   for metadynamics refer to:
   * S. Grimme, J. Chem. Theory Comput., 2019, 155, 2847-2862
     DOI: 10.1021/acs.jctc.9b00143
   
   for SPH calculations refer to:
   * S. Spicher and S. Grimme, J. Chem. Theory Comput., 2021, 17, 1701-1714
     DOI: 10.1021/acs.jctc.0c01306
   
   with help from (in alphabetical order)
   P. Atkinson, C. Bannwarth, F. Bohle, G. Brandenburg, E. Caldeweyher
   M. Checinski, S. Dohm, S. Ehlert, S. Ehrlich, I. Gerasimov, J. Koopman
   C. Lavigne, S. Lehtola, F. März, M. Müller, F. Musil, H. Neugebauer
   J. Pisarek, C. Plett, P. Pracht, J. Seibert, P. Shushkov, S. Spicher
   M. Stahn, M. Steiner, T. Strunk, J. Stückrath, T. Rose, and J. Unsleber
   
 * started run on 2022/02/02 at 01:41:43.205     

           -------------------------------------------------
          |                Calculation Setup                |
           -------------------------------------------------

          program call               : /ihome/ghutchison/oda6/xtb/xtb-641/bin/xtb ../../FF_optimized/60_51_29.mol -opt
          hostname                   : smp-n66
          coordinate file            : ../../FF_optimized/60_51_29.mol
          omp threads                :                     8
          number of atoms            :                   100
          number of electrons        :                   334
          charge                     :                     0
          spin                       :                   0.0
          first test random number   :      0.90686715956950

   ID    Z sym.   atoms
    1    6 C      1-3, 5-7, 9-13, 15, 17-21, 23-26, 30, 31, 33-37, 39, 40,
                  42, 43, 45, 46, 48-54, 56-60, 62-66, 68
    2    8 O      4, 55
    3   16 S      8, 22, 28, 32, 38, 47
    4    7 N      14, 16, 27, 29, 41, 44, 67, 69
    5    9 F      61
    6    1 H      70-100
########################################################################
[WARNING] Please study the warnings concerning your input carefully
-1- prog_main_parseArguments: the use of '-opt' is discouraged, please use '--opt' next time
########################################################################

           -------------------------------------------------
          |                 G F N 2 - x T B                 |
           -------------------------------------------------

        Reference                      10.1021/acs.jctc.8b01176
      * Hamiltonian:
        H0-scaling (s, p, d)           1.850000    2.230000    2.230000
        zeta-weighting                 0.500000
      * Dispersion:
        s8                             2.700000
        a1                             0.520000
        a2                             5.000000
        s9                             5.000000
      * Repulsion:
        kExp                           1.500000    1.000000
        rExp                           1.000000
      * Coulomb:
        alpha                          2.000000
        third order                    shell-resolved
        anisotropic                    true
        a3                             3.000000
        a5                             4.000000
        cn-shift                       1.200000
        cn-exp                         4.000000
        max-rad                        5.000000


          ...................................................
          :                      SETUP                      :
          :.................................................:
          :  # basis functions                 343          :
          :  # atomic orbitals                 337          :
          :  # shells                          175          :
          :  # electrons                       334          :
          :  max. iterations                   250          :
          :  Hamiltonian                  GFN2-xTB          :
          :  restarted?                      false          :
          :  GBSA solvation                  false          :
          :  PC potential                    false          :
          :  electronic temp.          300.0000000     K    :
          :  accuracy                    1.0000000          :
          :  -> integral cutoff          0.2500000E+02      :
          :  -> integral neglect         0.1000000E-07      :
          :  -> SCF convergence          0.1000000E-05 Eh   :
          :  -> wf. convergence          0.1000000E-03 e    :
          :  Broyden damping             0.4000000          :
          ...................................................

 iter      E             dE          RMSdq      gap      omega  full diag
   1   -185.0647903 -0.185065E+03  0.487E+00    1.41       0.0  T
   2   -185.2362735 -0.171483E+00  0.311E+00    1.13       1.0  T
   3   -185.2015395  0.347340E-01  0.201E+00    1.10       1.0  T
   4   -185.3959828 -0.194443E+00  0.834E-01    1.25       1.0  T
   5   -185.4495744 -0.535916E-01  0.255E-01    1.03       1.0  T
   6   -185.4536991 -0.412467E-02  0.127E-01    1.14       1.0  T
   7   -185.4545151 -0.816003E-03  0.529E-02    1.12       1.0  T
   8   -185.4546992 -0.184112E-03  0.212E-02    1.13       1.0  T
   9   -185.4547096 -0.104161E-04  0.115E-02    1.12       1.0  T
  10   -185.4547175 -0.785753E-05  0.507E-03    1.13       2.0  T
  11   -185.4547180 -0.545763E-06  0.288E-03    1.12       3.5  T
  12   -185.4547184 -0.393190E-06  0.153E-03    1.12       6.6  T
  13   -185.4547185 -0.933285E-07  0.784E-04    1.12      12.8  T
  14   -185.4547185 -0.231032E-07  0.356E-04    1.12      28.1  T

   *** convergence criteria satisfied after 14 iterations ***

         #    Occupation            Energy/Eh            Energy/eV
      -------------------------------------------------------------
         1        2.0000           -0.8330296             -22.6679
       ...           ...                  ...                  ...
       161        2.0000           -0.4077670             -11.0959
       162        2.0000           -0.4067123             -11.0672
       163        2.0000           -0.4055218             -11.0348
       164        2.0000           -0.3957401             -10.7686
       165        2.0000           -0.3877637             -10.5516
       166        2.0000           -0.3797407             -10.3333
       167        2.0000           -0.3734313             -10.1616 (HOMO)
       168                         -0.3320986              -9.0369 (LUMO)
       169                         -0.3288308              -8.9479
       170                         -0.3232843              -8.7970
       171                         -0.3139921              -8.5442
       172                         -0.3093674              -8.4183
       ...                                ...                  ...
       337                          1.0726551              29.1884
      -------------------------------------------------------------
                  HL-Gap            0.0413326 Eh            1.1247 eV
             Fermi-level           -0.3527794 Eh           -9.5996 eV

 SCC (total)                   0 d,  0 h,  0 min,  0.252 sec
 SCC setup                      ...        0 min,  0.001 sec (  0.251%)
 Dispersion                     ...        0 min,  0.004 sec (  1.557%)
 classical contributions        ...        0 min,  0.000 sec (  0.051%)
 integral evaluation            ...        0 min,  0.013 sec (  5.277%)
 iterations                     ...        0 min,  0.200 sec ( 79.341%)
 molecular gradient             ...        0 min,  0.033 sec ( 13.103%)
 printout                       ...        0 min,  0.001 sec (  0.384%)

         :::::::::::::::::::::::::::::::::::::::::::::::::::::
         ::                     SUMMARY                     ::
         :::::::::::::::::::::::::::::::::::::::::::::::::::::
         :: total energy            -182.717408479253 Eh    ::
         :: gradient norm              0.292991364408 Eh/a0 ::
         :: HOMO-LUMO gap              1.124717437559 eV    ::
         ::.................................................::
         :: SCC energy              -185.454718519818 Eh    ::
         :: -> isotropic ES            0.125740774562 Eh    ::
         :: -> anisotropic ES          0.013288777005 Eh    ::
         :: -> anisotropic XC          0.121353496559 Eh    ::
         :: -> dispersion             -0.165857653421 Eh    ::
         :: repulsion energy           2.735537890443 Eh    ::
         :: add. restraining           0.000000000000 Eh    ::
         :: total charge              -0.000000000022 e     ::
         :::::::::::::::::::::::::::::::::::::::::::::::::::::

      ----------------------------------------------------------- 
     |                   =====================                   |
     |                        A N C O P T                        |
     |                   =====================                   |
     |               Approximate Normal Coordinate               |
     |                Rational Function Optimizer                |
      ----------------------------------------------------------- 

          ...................................................
          :                      SETUP                      :
          :.................................................:
          :   optimization level            normal          :
          :   max. optcycles                   300          :
          :   ANC micro-cycles                  20          :
          :   degrees of freedom               294          :
          :.................................................:
          :   RF solver                   davidson          :
          :   write xtbopt.log                true          :
          :   linear?                        false          :
          :   energy convergence         0.5000000E-05 Eh   :
          :   grad. convergence          0.1000000E-02 Eh/α :
          :   maximium RF displ.         1.0000000          :
          :   Hlow (freq-cutoff)         0.1000000E-01      :
          :   Hmax (freq-cutoff)         5.0000000          :
          :   S6 in model hess.         20.0000000          :
          ...................................................

generating ANC from model Hessian ...
Using Lindh-Hessian (1995)
 Shifting diagonal of input Hessian by   9.989779101947099E-003
 Lowest  eigenvalues of input Hessian
    0.000000    0.000000    0.000000    0.000000    0.000000    0.000000
    0.010000    0.010013    0.010039    0.010075    0.010147    0.010207
    0.010256    0.010300    0.010567    0.010649    0.010800    0.011019
 Highest eigenvalues
    2.273128    2.320169    2.492842    2.501397    2.557382    2.558123
 

........................................................................
.............................. CYCLE    1 ..............................
........................................................................
   1   -185.4547185 -0.185455E+03  0.170E-04    1.12       0.0  T
   2   -185.4547185  0.184230E-09  0.145E-04    1.12      68.9  T
   3   -185.4547185 -0.174825E-08  0.709E-05    1.12     141.1  T
     SCC iter.                  ...        0 min,  0.045 sec
     gradient                   ...        0 min,  0.032 sec
 * total energy  :  -182.7174085 Eh     change       -0.6363251E-08 Eh
   gradient norm :     0.2929937 Eh/α   predicted     0.0000000E+00 (-100.00%)
   displ. norm   :     0.4497425 α      lambda       -0.9528910E-01
   maximum displ.:     0.1106142 α      in ANC's #161, #195, #133, ...

........................................................................
.............................. CYCLE    2 ..............................
........................................................................
   1   -185.5793148 -0.185579E+03  0.391E-01    1.09       0.0  T
   2   -185.5806212 -0.130642E-02  0.219E-01    1.11       1.0  T
   3   -185.5801744  0.446750E-03  0.122E-01    1.11       1.0  T
   4   -185.5808839 -0.709499E-03  0.528E-02    1.10       1.0  T
   5   -185.5810309 -0.146994E-03  0.245E-02    1.11       1.0  T
   6   -185.5810629 -0.319281E-04  0.113E-02    1.11       1.0  T
   7   -185.5810708 -0.795525E-05  0.456E-03    1.11       2.2  T
   8   -185.5810719 -0.106000E-05  0.228E-03    1.11       4.4  T
   9   -185.5810720 -0.916953E-07  0.110E-03    1.11       9.1  T
  10   -185.5810720 -0.717834E-07  0.392E-04    1.11      25.5  T
  11   -185.5810720 -0.838040E-08  0.184E-04    1.11      54.2  T
     SCC iter.                  ...        0 min,  0.153 sec
     gradient                   ...        0 min,  0.032 sec
 * total energy  :  -182.7858984 Eh     change       -0.6848994E-01 Eh
   gradient norm :     0.1361445 Eh/α   predicted    -0.5732129E-01 ( -16.31%)
   displ. norm   :     0.4279862 α      lambda       -0.3639035E-01
   maximum displ.:     0.0994755 α      in ANC's #63, #71, #89, ...

........................................................................
.............................. CYCLE    3 ..............................
........................................................................
   1   -185.6319885 -0.185632E+03  0.291E-01    1.06       0.0  T
   2   -185.6327786 -0.790118E-03  0.162E-01    1.09       1.0  T
   3   -185.6325058  0.272848E-03  0.977E-02    1.08       1.0  T
   4   -185.6330009 -0.495190E-03  0.400E-02    1.09       1.0  T
   5   -185.6330914 -0.904528E-04  0.194E-02    1.09       1.0  T
   6   -185.6331131 -0.217391E-04  0.870E-03    1.09       1.1  T
   7   -185.6331169 -0.376317E-05  0.372E-03    1.09       2.7  T
   8   -185.6331179 -0.966806E-06  0.188E-03    1.09       5.3  T
   9   -185.6331180 -0.131809E-06  0.928E-04    1.09      10.8  T
  10   -185.6331180 -0.444283E-07  0.360E-04    1.09      27.8  T
     SCC iter.                  ...        0 min,  0.137 sec
     gradient                   ...        0 min,  0.032 sec
 * total energy  :  -182.8077956 Eh     change       -0.2189722E-01 Eh
   gradient norm :     0.0376498 Eh/α   predicted    -0.2152803E-01 (  -1.69%)
   displ. norm   :     0.4356076 α      lambda       -0.7356240E-02
   maximum displ.:     0.1512371 α      in ANC's #34, #20, #63, ...

........................................................................
.............................. CYCLE    4 ..............................
........................................................................
   1   -185.6364325 -0.185636E+03  0.159E-01    1.08       0.0  T
   2   -185.6364871 -0.545829E-04  0.907E-02    1.09       1.0  T
   3   -185.6362319  0.255191E-03  0.547E-02    1.09       1.0  T
   4   -185.6365399 -0.307926E-03  0.128E-02    1.09       1.0  T
   5   -185.6365521 -0.122726E-04  0.668E-03    1.09       1.5  T
   6   -185.6365544 -0.226601E-05  0.301E-03    1.09       3.3  T
   7   -185.6365551 -0.671976E-06  0.133E-03    1.09       7.5  T
   8   -185.6365552 -0.892189E-07  0.696E-04    1.09      14.4  T
   9   -185.6365552 -0.164403E-07  0.368E-04    1.09      27.2  T
     SCC iter.                  ...        0 min,  0.124 sec
     gradient                   ...        0 min,  0.032 sec
 * total energy  :  -182.8127302 Eh     change       -0.4934547E-02 Eh
   gradient norm :     0.0216746 Eh/α   predicted    -0.4376346E-02 ( -11.31%)
   displ. norm   :     0.6134826 α      lambda       -0.6329540E-02
   maximum displ.:     0.1914952 α      in ANC's #34, #20, #12, ...

........................................................................
.............................. CYCLE    5 ..............................
........................................................................
   1   -185.6193519 -0.185619E+03  0.344E-01    1.08       0.0  T
   2   -185.6195312 -0.179349E-03  0.191E-01    1.10       1.0  T
   3   -185.6190057  0.525466E-03  0.690E-02    1.08       1.0  T
   4   -185.6196167 -0.610934E-03  0.171E-02    1.10       1.0  T
   5   -185.6196416 -0.248868E-04  0.950E-03    1.09       1.1  T
   6   -185.6196466 -0.501373E-05  0.375E-03    1.09       2.7  T
   7   -185.6196474 -0.830953E-06  0.144E-03    1.09       6.9  T
   8   -185.6196475 -0.780308E-07  0.864E-04    1.09      11.6  T
   9   -185.6196475 -0.285171E-07  0.425E-04    1.09      23.5  T
     SCC iter.                  ...        0 min,  0.127 sec
     gradient                   ...        0 min,  0.032 sec
 * total energy  :  -182.8137921 Eh     change       -0.1061953E-02 Eh
   gradient norm :     0.0433392 Eh/α   predicted    -0.4355871E-02 ( 310.18%)
   displ. norm   :     0.3924760 α      lambda       -0.6337162E-02
   maximum displ.:     0.1553584 α      in ANC's #8, #20, #22, ...

........................................................................
.............................. CYCLE    6 ..............................
........................................................................
   1   -185.6264527 -0.185626E+03  0.309E-01    1.10       0.0  T
   2   -185.6265729 -0.120164E-03  0.171E-01    1.10       1.0  T
   3   -185.6263138  0.259108E-03  0.465E-02    1.09       1.0  T
   4   -185.6266371 -0.323307E-03  0.926E-03    1.10       1.1  T
   5   -185.6266402 -0.315753E-05  0.511E-03    1.10       2.0  T
   6   -185.6266412 -0.942455E-06  0.213E-03    1.10       4.7  T
   7   -185.6266415 -0.381448E-06  0.742E-04    1.10      13.5  T
   8   -185.6266416 -0.173439E-07  0.449E-04    1.10      22.3  T
     SCC iter.                  ...        0 min,  0.110 sec
     gradient                   ...        0 min,  0.032 sec
 * total energy  :  -182.8162801 Eh     change       -0.2487969E-02 Eh
   gradient norm :     0.0250905 Eh/α   predicted    -0.3656665E-02 (  46.97%)
   displ. norm   :     0.3852568 α      lambda       -0.4005842E-02
   maximum displ.:     0.1456900 α      in ANC's #22, #34, #13, ...

........................................................................
.............................. CYCLE    7 ..............................
........................................................................
   1   -185.6264169 -0.185626E+03  0.314E-01    1.11       0.0  T
   2   -185.6265498 -0.132911E-03  0.174E-01    1.11       1.0  T
   3   -185.6264192  0.130591E-03  0.440E-02    1.10       1.0  T
   4   -185.6266027 -0.183482E-03  0.111E-02    1.11       1.0  T
   5   -185.6266070 -0.426067E-05  0.605E-03    1.11       1.7  T
   6   -185.6266096 -0.268470E-05  0.221E-03    1.11       4.5  T
   7   -185.6266099 -0.266158E-06  0.931E-04    1.11      10.7  T
   8   -185.6266100 -0.448297E-07  0.448E-04    1.11      22.3  T
     SCC iter.                  ...        0 min,  0.108 sec
     gradient                   ...        0 min,  0.031 sec
 * total energy  :  -182.8163666 Eh     change       -0.8646519E-04 Eh
   gradient norm :     0.0315605 Eh/α   predicted    -0.2300201E-02 (2560.26%)
   displ. norm   :     0.2348044 α      lambda       -0.2762427E-02
   maximum displ.:     0.0922055 α      in ANC's #12, #20, #23, ...

........................................................................
.............................. CYCLE    8 ..............................
........................................................................
   1   -185.6291578 -0.185629E+03  0.160E-01    1.10       0.0  T
   2   -185.6291918 -0.340692E-04  0.889E-02    1.11       1.0  T
   3   -185.6291017  0.901145E-04  0.309E-02    1.10       1.0  T
   4   -185.6292118 -0.110082E-03  0.562E-03    1.11       1.8  T
   5   -185.6292137 -0.191685E-05  0.339E-03    1.11       2.9  T
   6   -185.6292143 -0.544744E-06  0.129E-03    1.11       7.7  T
   7   -185.6292144 -0.157809E-06  0.519E-04    1.11      19.3  T
   8   -185.6292144 -0.159141E-07  0.264E-04    1.11      37.9  T
     SCC iter.                  ...        0 min,  0.106 sec
     gradient                   ...        0 min,  0.031 sec
 * total energy  :  -182.8182451 Eh     change       -0.1878528E-02 Eh
   gradient norm :     0.0186370 Eh/α   predicted    -0.1457367E-02 ( -22.42%)
   displ. norm   :     0.3964791 α      lambda       -0.1547940E-02
   maximum displ.:     0.1874238 α      in ANC's #12, #20, #23, ...

........................................................................
.............................. CYCLE    9 ..............................
........................................................................
   1   -185.6173584 -0.185617E+03  0.169E-01    1.09       0.0  T
   2   -185.6173981 -0.397208E-04  0.939E-02    1.10       1.0  T
   3   -185.6171947  0.203367E-03  0.406E-02    1.09       1.0  T
   4   -185.6174264 -0.231651E-03  0.666E-03    1.10       1.5  T
   5   -185.6174279 -0.151099E-05  0.416E-03    1.10       2.4  T
   6   -185.6174289 -0.100403E-05  0.155E-03    1.10       6.5  T
   7   -185.6174290 -0.145042E-06  0.603E-04    1.10      16.6  T
   8   -185.6174290 -0.209427E-07  0.274E-04    1.10      36.5  T
     SCC iter.                  ...        0 min,  0.105 sec
     gradient                   ...        0 min,  0.032 sec
 * total energy  :  -182.8190079 Eh     change       -0.7628055E-03 Eh
   gradient norm :     0.0304851 Eh/α   predicted    -0.8956435E-03 (  17.41%)
   displ. norm   :     0.3495277 α      lambda       -0.1082660E-02
   maximum displ.:     0.1342883 α      in ANC's #20, #8, #13, ...

........................................................................
.............................. CYCLE   10 ..............................
........................................................................
   1   -185.6200496 -0.185620E+03  0.766E-02    1.10       0.0  T
   2   -185.6200587 -0.903870E-05  0.435E-02    1.10       1.0  T
   3   -185.6200136  0.450890E-04  0.214E-02    1.10       1.0  T
   4   -185.6200657 -0.520832E-04  0.424E-03    1.10       2.4  T
   5   -185.6200665 -0.816099E-06  0.245E-03    1.10       4.1  T
   6   -185.6200668 -0.309893E-06  0.968E-04    1.10      10.3  T
   7   -185.6200669 -0.868145E-07  0.430E-04    1.10      23.2  T
     SCC iter.                  ...        0 min,  0.094 sec
     gradient                   ...        0 min,  0.031 sec
 * total energy  :  -182.8198228 Eh     change       -0.8148850E-03 Eh
   gradient norm :     0.0119307 Eh/α   predicted    -0.6074681E-03 ( -25.45%)
   displ. norm   :     0.5474896 α      lambda       -0.1083143E-02
   maximum displ.:     0.2099629 α      in ANC's #8, #12, #20, ...

........................................................................
.............................. CYCLE   11 ..............................
........................................................................
   1   -185.6223384 -0.185622E+03  0.107E-01    1.10       0.0  T
   2   -185.6223541 -0.156640E-04  0.606E-02    1.10       1.0  T
   3   -185.6222652  0.889366E-04  0.275E-02    1.09       1.0  T
   4   -185.6223652 -0.999986E-04  0.629E-03    1.10       1.6  T
   5   -185.6223674 -0.222946E-05  0.343E-03    1.10       2.9  T
   6   -185.6223680 -0.616574E-06  0.141E-03    1.10       7.1  T
   7   -185.6223682 -0.177608E-06  0.552E-04    1.10      18.1  T
   8   -185.6223682 -0.239725E-07  0.238E-04    1.10      41.9  T
     SCC iter.                  ...        0 min,  0.110 sec
     gradient                   ...        0 min,  0.032 sec
 * total energy  :  -182.8206116 Eh     change       -0.7888414E-03 Eh
   gradient norm :     0.0117904 Eh/α   predicted    -0.7039100E-03 ( -10.77%)
   displ. norm   :     0.5894589 α      lambda       -0.9575231E-03
   maximum displ.:     0.2416807 α      in ANC's #8, #12, #20, ...

........................................................................
.............................. CYCLE   12 ..............................
........................................................................
   1   -185.6250760 -0.185625E+03  0.127E-01    1.10       0.0  T
   2   -185.6250981 -0.220785E-04  0.718E-02    1.10       1.0  T
   3   -185.6249633  0.134816E-03  0.342E-02    1.09       1.0  T
   4   -185.6251153 -0.152093E-03  0.647E-03    1.10       1.5  T
   5   -185.6251169 -0.159198E-05  0.392E-03    1.10       2.6  T
   6   -185.6251180 -0.106967E-05  0.146E-03    1.10       6.9  T
   7   -185.6251182 -0.144292E-06  0.603E-04    1.10      16.6  T
   8   -185.6251182 -0.239843E-07  0.262E-04    1.10      38.2  T
     SCC iter.                  ...        0 min,  0.109 sec
     gradient                   ...        0 min,  0.031 sec
 * total energy  :  -182.8210772 Eh     change       -0.4655933E-03 Eh
   gradient norm :     0.0202406 Eh/α   predicted    -0.6451151E-03 (  38.56%)
   displ. norm   :     0.3987039 α      lambda       -0.7393249E-03
   maximum displ.:     0.1798949 α      in ANC's #8, #12, #17, ...

........................................................................
.............................. CYCLE   13 ..............................
........................................................................
   1   -185.6240131 -0.185624E+03  0.101E-01    1.10       0.0  T
   2   -185.6240262 -0.130775E-04  0.564E-02    1.10       1.0  T
   3   -185.6239941  0.321513E-04  0.178E-02    1.10       1.0  T
   4   -185.6240323 -0.382290E-04  0.405E-03    1.10       2.5  T
   5   -185.6240327 -0.448117E-06  0.268E-03    1.10       3.7  T
   6   -185.6240334 -0.621712E-06  0.948E-04    1.10      10.6  T
   7   -185.6240334 -0.623665E-07  0.352E-04    1.10      28.4  T
     SCC iter.                  ...        0 min,  0.096 sec
     gradient                   ...        0 min,  0.032 sec
 * total energy  :  -182.8216168 Eh     change       -0.5395632E-03 Eh
   gradient norm :     0.0094269 Eh/α   predicted    -0.4284276E-03 ( -20.60%)
   displ. norm   :     0.4332046 α      lambda       -0.5355916E-03
   maximum displ.:     0.1986662 α      in ANC's #8, #12, #17, ...

........................................................................
.............................. CYCLE   14 ..............................
........................................................................
   1   -185.6272439 -0.185627E+03  0.912E-02    1.10       0.0  T
   2   -185.6272545 -0.105562E-04  0.516E-02    1.10       1.0  T
   3   -185.6272267  0.277528E-04  0.167E-02    1.10       1.0  T
   4   -185.6272599 -0.332264E-04  0.371E-03    1.10       2.7  T
   5   -185.6272603 -0.366580E-06  0.209E-03    1.10       4.8  T
   6   -185.6272605 -0.211337E-06  0.102E-03    1.10       9.8  T
   7   -185.6272606 -0.868611E-07  0.357E-04    1.10      28.0  T
   8   -185.6272606 -0.700214E-08  0.181E-04    1.10      55.3  T
     SCC iter.                  ...        0 min,  0.110 sec
     gradient                   ...        0 min,  0.031 sec
 * total energy  :  -182.8220006 Eh     change       -0.3837862E-03 Eh
   gradient norm :     0.0118032 Eh/α   predicted    -0.3180540E-03 ( -17.13%)
   displ. norm   :     0.5037587 α      lambda       -0.5112030E-03
   maximum displ.:     0.2317011 α      in ANC's #8, #12, #17, ...

........................................................................
.............................. CYCLE   15 ..............................
........................................................................
   1   -185.6253049 -0.185625E+03  0.897E-02    1.10       0.0  T
   2   -185.6253143 -0.937894E-05  0.514E-02    1.09       1.0  T
   3   -185.6252782  0.360488E-04  0.199E-02    1.10       1.0  T
   4   -185.6253198 -0.416361E-04  0.415E-03    1.10       2.4  T
   5   -185.6253203 -0.460993E-06  0.235E-03    1.09       4.2  T
   6   -185.6253207 -0.367513E-06  0.122E-03    1.10       8.2  T
   7   -185.6253208 -0.143994E-06  0.366E-04    1.09      27.3  T
   8   -185.6253208 -0.451550E-08  0.204E-04    1.09      49.1  T
     SCC iter.                  ...        0 min,  0.111 sec
     gradient                   ...        0 min,  0.032 sec
 * total energy  :  -182.8223327 Eh     change       -0.3321163E-03 Eh
   gradient norm :     0.0113445 Eh/α   predicted    -0.3204697E-03 (  -3.51%)
   displ. norm   :     0.4769704 α      lambda       -0.4684831E-03
   maximum displ.:     0.2121320 α      in ANC's #8, #17, #3, ...

........................................................................
.............................. CYCLE   16 ..............................
........................................................................
   1   -185.6298486 -0.185630E+03  0.901E-02    1.10       0.0  T
   2   -185.6298574 -0.874121E-05  0.514E-02    1.09       1.0  T
   3   -185.6298291  0.282469E-04  0.163E-02    1.10       1.0  T
   4   -185.6298617 -0.326044E-04  0.400E-03    1.10       2.5  T
   5   -185.6298624 -0.655662E-06  0.225E-03    1.10       4.4  T
   6   -185.6298627 -0.308490E-06  0.108E-03    1.10       9.3  T
   7   -185.6298628 -0.966583E-07  0.338E-04    1.10      29.6  T
   8   -185.6298628 -0.577111E-08  0.169E-04    1.10      59.3  T
     SCC iter.                  ...        0 min,  0.111 sec
     gradient                   ...        0 min,  0.032 sec
 * total energy  :  -182.8226329 Eh     change       -0.3002161E-03 Eh
   gradient norm :     0.0111824 Eh/α   predicted    -0.2875341E-03 (  -4.22%)
   displ. norm   :     0.4223255 α      lambda       -0.3660680E-03
   maximum displ.:     0.1803063 α      in ANC's #8, #3, #7, ...

........................................................................
.............................. CYCLE   17 ..............................
........................................................................
   1   -185.6282946 -0.185628E+03  0.790E-02    1.09       0.0  T
   2   -185.6282991 -0.442366E-05  0.455E-02    1.10       1.0  T
   3   -185.6282459  0.531273E-04  0.209E-02    1.09       1.0  T
   4   -185.6283044 -0.584353E-04  0.332E-03    1.10       3.0  T
   5   -185.6283046 -0.284078E-06  0.217E-03    1.09       4.6  T
   6   -185.6283050 -0.324775E-06  0.690E-04    1.10      14.5  T
   7   -185.6283050 -0.321127E-07  0.279E-04    1.09      35.9  T
     SCC iter.                  ...        0 min,  0.099 sec
     gradient                   ...        0 min,  0.032 sec
 * total energy  :  -182.8228996 Eh     change       -0.2666427E-03 Eh
   gradient norm :     0.0087174 Eh/α   predicted    -0.2156809E-03 ( -19.11%)
   displ. norm   :     0.4516201 α      lambda       -0.3926123E-03
   maximum displ.:     0.1805179 α      in ANC's #8, #3, #4, ...

........................................................................
.............................. CYCLE   18 ..............................
........................................................................
   1   -185.6281363 -0.185628E+03  0.817E-02    1.09       0.0  T
   2   -185.6281406 -0.431655E-05  0.473E-02    1.10       1.0  T
   3   -185.6280842  0.563965E-04  0.212E-02    1.09       1.0  T
   4   -185.6281459 -0.617003E-04  0.362E-03    1.10       2.8  T
   5   -185.6281466 -0.672078E-06  0.204E-03    1.10       4.9  T
   6   -185.6281468 -0.183497E-06  0.806E-04    1.10      12.4  T
   7   -185.6281468 -0.514042E-07  0.283E-04    1.10      35.3  T
     SCC iter.                  ...        0 min,  0.100 sec
     gradient                   ...        0 min,  0.032 sec
 * total energy  :  -182.8231949 Eh     change       -0.2953451E-03 Eh
   gradient norm :     0.0076102 Eh/α   predicted    -0.2363461E-03 ( -19.98%)
   displ. norm   :     0.4921323 α      lambda       -0.3342603E-03
   maximum displ.:     0.2041359 α      in ANC's #8, #3, #4, ...

........................................................................
.............................. CYCLE   19 ..............................
........................................................................
   1   -185.6243355 -0.185624E+03  0.872E-02    1.09       0.0  T
   2   -185.6243398 -0.435608E-05  0.504E-02    1.10       1.0  T
   3   -185.6242529  0.869056E-04  0.251E-02    1.09       1.0  T
   4   -185.6243475 -0.945877E-04  0.388E-03    1.10       2.6  T
   5   -185.6243481 -0.653170E-06  0.214E-03    1.10       4.7  T
   6   -185.6243483 -0.166347E-06  0.892E-04    1.10      11.2  T
   7   -185.6243484 -0.545636E-07  0.342E-04    1.10      29.3  T
     SCC iter.                  ...        0 min,  0.096 sec
     gradient                   ...        0 min,  0.031 sec
 * total energy  :  -182.8234479 Eh     change       -0.2530404E-03 Eh
   gradient norm :     0.0082374 Eh/α   predicted    -0.2076087E-03 ( -17.95%)
   displ. norm   :     0.4534700 α      lambda       -0.3502881E-03
   maximum displ.:     0.2070080 α      in ANC's #3, #4, #8, ...

........................................................................
.............................. CYCLE   20 ..............................
........................................................................
   1   -185.6306406 -0.185631E+03  0.857E-02    1.10       0.0  T
   2   -185.6306476 -0.705823E-05  0.490E-02    1.10       1.0  T
   3   -185.6305873  0.602871E-04  0.215E-02    1.09       1.0  T
   4   -185.6306530 -0.656655E-04  0.479E-03    1.10       2.1  T
   5   -185.6306545 -0.146083E-05  0.234E-03    1.10       4.3  T
   6   -185.6306547 -0.229413E-06  0.894E-04    1.10      11.2  T
   7   -185.6306547 -0.416120E-07  0.372E-04    1.10      26.9  T
     SCC iter.                  ...        0 min,  0.098 sec
     gradient                   ...        0 min,  0.032 sec
 * total energy  :  -182.8236522 Eh     change       -0.2042559E-03 Eh
   gradient norm :     0.0100902 Eh/α   predicted    -0.2111604E-03 (   3.38%)
   displ. norm   :     0.5255551 α      lambda       -0.3170900E-03
   maximum displ.:     0.2319400 α      in ANC's #3, #8, #4, ...
 * RMSD in coord.:     0.6300341 α      energy gain  -0.1062437E+00 Eh

generating ANC from model Hessian ...
Using Lindh-Hessian (1995)
 Shifting diagonal of input Hessian by   9.993333162148843E-003
 Lowest  eigenvalues of input Hessian
    0.000000    0.000000    0.000000    0.000000    0.000000    0.000000
    0.010000    0.010029    0.010053    0.010081    0.010170    0.010209
    0.010244    0.010329    0.010611    0.010746    0.010888    0.011146
 Highest eigenvalues
    2.283120    2.294122    2.592648    2.593381    2.652539    2.658423
 

........................................................................
.............................. CYCLE   21 ..............................
........................................................................
   1   -185.6239858 -0.185624E+03  0.875E-02    1.10       0.0  T
   2   -185.6239926 -0.684019E-05  0.503E-02    1.10       1.0  T
   3   -185.6239481  0.445763E-04  0.191E-02    1.09       1.0  T
   4   -185.6239962 -0.481804E-04  0.470E-03    1.10       2.1  T
   5   -185.6239979 -0.170154E-05  0.227E-03    1.10       4.4  T
   6   -185.6239982 -0.245352E-06  0.105E-03    1.10       9.6  T
   7   -185.6239983 -0.777493E-07  0.380E-04    1.10      26.3  T
   8   -185.6239983 -0.815842E-08  0.182E-04    1.10      55.1  T
     SCC iter.                  ...        0 min,  0.109 sec
     gradient                   ...        0 min,  0.032 sec
 * total energy  :  -182.8238546 Eh     change       -0.2024159E-03 Eh
   gradient norm :     0.0078618 Eh/α   predicted     0.0000000E+00 (-100.00%)
   displ. norm   :     0.0862550 α      lambda       -0.1996269E-03
   maximum displ.:     0.0315920 α      in ANC's #2, #12, #14, ...

........................................................................
.............................. CYCLE   22 ..............................
........................................................................
   1   -185.6280014 -0.185628E+03  0.508E-02    1.10       0.0  T
   2   -185.6280046 -0.318018E-05  0.283E-02    1.10       1.0  T
   3   -185.6279940  0.106165E-04  0.944E-03    1.10       1.1  T
   4   -185.6280062 -0.122544E-04  0.207E-03    1.10       4.8  T
   5   -185.6280065 -0.326978E-06  0.101E-03    1.10       9.9  T
   6   -185.6280066 -0.401406E-07  0.457E-04    1.10      21.9  T
   7   -185.6280066 -0.119318E-07  0.185E-04    1.10      54.2  T
     SCC iter.                  ...        0 min,  0.097 sec
     gradient                   ...        0 min,  0.032 sec
 * total energy  :  -182.8239749 Eh     change       -0.1203345E-03 Eh
   gradient norm :     0.0043056 Eh/α   predicted    -0.1025695E-03 ( -14.76%)
   displ. norm   :     0.1651067 α      lambda       -0.2423283E-03
   maximum displ.:     0.0697296 α      in ANC's #2, #35, #14, ...

........................................................................
.............................. CYCLE   23 ..............................
........................................................................
   1   -185.6340275 -0.185634E+03  0.473E-02    1.10       0.0  T
   2   -185.6340303 -0.285297E-05  0.271E-02    1.10       1.0  T
   3   -185.6340078  0.225441E-04  0.138E-02    1.11       1.0  T
   4   -185.6340324 -0.246300E-04  0.315E-03    1.10       3.2  T
   5   -185.6340333 -0.958396E-06  0.127E-03    1.10       7.9  T
   6   -185.6340334 -0.606422E-07  0.567E-04    1.10      17.6  T
   7   -185.6340334 -0.138626E-07  0.244E-04    1.10      41.0  T
     SCC iter.                  ...        0 min,  0.096 sec
     gradient                   ...        0 min,  0.032 sec
 * total energy  :  -182.8240818 Eh     change       -0.1068746E-03 Eh
   gradient norm :     0.0059070 Eh/α   predicted    -0.1244772E-03 (  16.47%)
   displ. norm   :     0.1315664 α      lambda       -0.1381956E-03
   maximum displ.:     0.0594878 α      in ANC's #2, #6, #14, ...

........................................................................
.............................. CYCLE   24 ..............................
........................................................................
   1   -185.6328336 -0.185633E+03  0.461E-02    1.10       0.0  T
   2   -185.6328353 -0.170133E-05  0.258E-02    1.10       1.0  T
   3   -185.6328131  0.222296E-04  0.130E-02    1.11       1.0  T
   4   -185.6328379 -0.248053E-04  0.176E-03    1.10       5.7  T
   5   -185.6328381 -0.161669E-06  0.991E-04    1.10      10.1  T
   6   -185.6328381 -0.342291E-07  0.412E-04    1.10      24.3  T
     SCC iter.                  ...        0 min,  0.084 sec
     gradient                   ...        0 min,  0.031 sec
 * total energy  :  -182.8241864 Eh     change       -0.1045428E-03 Eh
   gradient norm :     0.0044634 Eh/α   predicted    -0.7029391E-04 ( -32.76%)
   displ. norm   :     0.2854550 α      lambda       -0.2157260E-03
   maximum displ.:     0.1322111 α      in ANC's #2, #6, #14, ...

........................................................................
.............................. CYCLE   25 ..............................
........................................................................
   1   -185.6286987 -0.185629E+03  0.576E-02    1.10       0.0  T
   2   -185.6287020 -0.326726E-05  0.327E-02    1.10       1.0  T
   3   -185.6286740  0.279894E-04  0.147E-02    1.10       1.0  T
   4   -185.6287050 -0.310216E-04  0.283E-03    1.10       3.5  T
   5   -185.6287055 -0.454300E-06  0.162E-03    1.10       6.2  T
   6   -185.6287056 -0.108225E-06  0.658E-04    1.10      15.2  T
   7   -185.6287056 -0.325614E-07  0.247E-04    1.10      40.4  T
     SCC iter.                  ...        0 min,  0.096 sec
     gradient                   ...        0 min,  0.032 sec
 * total energy  :  -182.8243300 Eh     change       -0.1436642E-03 Eh
   gradient norm :     0.0056307 Eh/α   predicted    -0.1166522E-03 ( -18.80%)
   displ. norm   :     0.2880638 α      lambda       -0.1532252E-03
   maximum displ.:     0.1395195 α      in ANC's #2, #6, #4, ...

........................................................................
.............................. CYCLE   26 ..............................
........................................................................
   1   -185.6267272 -0.185627E+03  0.620E-02    1.10       0.0  T
   2   -185.6267316 -0.436342E-05  0.349E-02    1.10       1.0  T
   3   -185.6267229  0.867197E-05  0.964E-03    1.10       1.0  T
   4   -185.6267339 -0.109276E-04  0.212E-03    1.10       4.7  T
   5   -185.6267339 -0.709073E-07  0.127E-03    1.10       7.9  T
   6   -185.6267340 -0.950770E-07  0.487E-04    1.10      20.5  T
   7   -185.6267341 -0.218208E-07  0.212E-04    1.10      47.1  T
     SCC iter.                  ...        0 min,  0.097 sec
     gradient                   ...        0 min,  0.032 sec
 * total energy  :  -182.8244304 Eh     change       -0.1003480E-03 Eh
   gradient norm :     0.0069667 Eh/α   predicted    -0.8297187E-04 ( -17.32%)
   displ. norm   :     0.3026168 α      lambda       -0.1772806E-03
   maximum displ.:     0.1541607 α      in ANC's #2, #6, #4, ...

........................................................................
.............................. CYCLE   27 ..............................
........................................................................
   1   -185.6272182 -0.185627E+03  0.473E-02    1.10       0.0  T
   2   -185.6272202 -0.201314E-05  0.271E-02    1.10       1.0  T
   3   -185.6272131  0.709923E-05  0.869E-03    1.10       1.2  T
   4   -185.6272212 -0.816295E-05  0.205E-03    1.10       4.9  T
   5   -185.6272213 -0.113145E-06  0.134E-03    1.10       7.5  T
   6   -185.6272215 -0.148563E-06  0.443E-04    1.10      22.6  T
   7   -185.6272215 -0.163637E-07  0.169E-04    1.10      59.2  T
     SCC iter.                  ...        0 min,  0.096 sec
     gradient                   ...        0 min,  0.032 sec
 * total energy  :  -182.8245669 Eh     change       -0.1365309E-03 Eh
   gradient norm :     0.0058776 Eh/α   predicted    -0.9676396E-04 ( -29.13%)
   displ. norm   :     0.3621926 α      lambda       -0.2403913E-03
   maximum displ.:     0.1972026 α      in ANC's #2, #6, #4, ...

........................................................................
.............................. CYCLE   28 ..............................
........................................................................
   1   -185.6290150 -0.185629E+03  0.610E-02    1.10       0.0  T
   2   -185.6290198 -0.483578E-05  0.347E-02    1.10       1.0  T
   3   -185.6289993  0.205491E-04  0.138E-02    1.10       1.0  T
   4   -185.6290225 -0.231969E-04  0.341E-03    1.10       2.9  T
   5   -185.6290232 -0.756499E-06  0.179E-03    1.10       5.6  T
   6   -185.6290234 -0.191210E-06  0.671E-04    1.10      14.9  T
   7   -185.6290234 -0.274387E-07  0.258E-04    1.10      38.8  T
     SCC iter.                  ...        0 min,  0.097 sec
     gradient                   ...        0 min,  0.033 sec
 * total energy  :  -182.8247435 Eh     change       -0.1765990E-03 Eh
   gradient norm :     0.0044563 Eh/α   predicted    -0.1359696E-03 ( -23.01%)
   displ. norm   :     0.4257831 α      lambda       -0.1756795E-03
   maximum displ.:     0.2340854 α      in ANC's #2, #6, #4, ...

........................................................................
.............................. CYCLE   29 ..............................
........................................................................
   1   -185.6288588 -0.185629E+03  0.639E-02    1.10       0.0  T
   2   -185.6288639 -0.503310E-05  0.365E-02    1.10       1.0  T
   3   -185.6288509  0.129299E-04  0.119E-02    1.10       1.0  T
   4   -185.6288663 -0.154034E-04  0.284E-03    1.10       3.5  T
   5   -185.6288666 -0.277028E-06  0.165E-03    1.10       6.0  T
   6   -185.6288668 -0.160394E-06  0.723E-04    1.10      13.8  T
   7   -185.6288668 -0.396913E-07  0.254E-04    1.10      39.3  T
     SCC iter.                  ...        0 min,  0.097 sec
     gradient                   ...        0 min,  0.031 sec
 * total energy  :  -182.8248843 Eh     change       -0.1408084E-03 Eh
   gradient norm :     0.0043709 Eh/α   predicted    -0.1037689E-03 ( -26.30%)
   displ. norm   :     0.4111049 α      lambda       -0.1659688E-03
   maximum displ.:     0.2394155 α      in ANC's #2, #6, #4, ...

........................................................................
.............................. CYCLE   30 ..............................
........................................................................
   1   -185.6299046 -0.185630E+03  0.602E-02    1.10       0.0  T
   2   -185.6299095 -0.490726E-05  0.343E-02    1.10       1.0  T
   3   -185.6298993  0.102747E-04  0.107E-02    1.10       1.0  T
   4   -185.6299116 -0.122901E-04  0.284E-03    1.10       3.5  T
   5   -185.6299119 -0.358343E-06  0.162E-03    1.10       6.2  T
   6   -185.6299121 -0.140622E-06  0.742E-04    1.10      13.5  T
   7   -185.6299121 -0.410367E-07  0.229E-04    1.10      43.6  T
     SCC iter.                  ...        0 min,  0.099 sec
     gradient                   ...        0 min,  0.032 sec
 * total energy  :  -182.8250182 Eh     change       -0.1338976E-03 Eh
   gradient norm :     0.0040507 Eh/α   predicted    -0.9701044E-04 ( -27.55%)
   displ. norm   :     0.4133087 α      lambda       -0.1523274E-03
   maximum displ.:     0.2492261 α      in ANC's #2, #4, #6, ...

........................................................................
.............................. CYCLE   31 ..............................
........................................................................
   1   -185.6303890 -0.185630E+03  0.562E-02    1.10       0.0  T
   2   -185.6303927 -0.373835E-05  0.322E-02    1.10       1.0  T
   3   -185.6303870  0.578217E-05  0.826E-03    1.10       1.2  T
   4   -185.6303940 -0.705723E-05  0.249E-03    1.10       4.0  T
   5   -185.6303943 -0.298206E-06  0.124E-03    1.10       8.0  T
   6   -185.6303944 -0.611357E-07  0.604E-04    1.10      16.6  T
   7   -185.6303944 -0.275961E-07  0.193E-04    1.10      51.8  T
     SCC iter.                  ...        0 min,  0.098 sec
     gradient                   ...        0 min,  0.031 sec
 * total energy  :  -182.8251421 Eh     change       -0.1238376E-03 Eh
   gradient norm :     0.0032229 Eh/α   predicted    -0.8917510E-04 ( -27.99%)
   displ. norm   :     0.4053909 α      lambda       -0.1465686E-03
   maximum displ.:     0.2522297 α      in ANC's #2, #4, #6, ...

........................................................................
.............................. CYCLE   32 ..............................
........................................................................
   1   -185.6305418 -0.185631E+03  0.593E-02    1.10       0.0  T
   2   -185.6305455 -0.369544E-05  0.338E-02    1.10       1.0  T
   3   -185.6305399  0.562184E-05  0.827E-03    1.10       1.2  T
   4   -185.6305468 -0.693996E-05  0.265E-03    1.10       3.8  T
   5   -185.6305471 -0.287312E-06  0.143E-03    1.10       7.0  T
   6   -185.6305472 -0.121872E-06  0.596E-04    1.10      16.8  T
   7   -185.6305473 -0.269428E-07  0.203E-04    1.10      49.1  T
     SCC iter.                  ...        0 min,  0.098 sec
     gradient                   ...        0 min,  0.032 sec
 * total energy  :  -182.8252603 Eh     change       -0.1182384E-03 Eh
   gradient norm :     0.0043372 Eh/α   predicted    -0.8533107E-04 ( -27.83%)
   displ. norm   :     0.3992530 α      lambda       -0.1492215E-03
   maximum displ.:     0.2536780 α      in ANC's #2, #4, #6, ...

........................................................................
.............................. CYCLE   33 ..............................
........................................................................
   1   -185.6328128 -0.185633E+03  0.522E-02    1.10       0.0  T
   2   -185.6328148 -0.205031E-05  0.300E-02    1.10       1.0  T
   3   -185.6328115  0.332619E-05  0.649E-03    1.10       1.5  T
   4   -185.6328155 -0.402331E-05  0.213E-03    1.10       4.7  T
   5   -185.6328157 -0.123827E-06  0.129E-03    1.10       7.7  T
   6   -185.6328158 -0.125753E-06  0.474E-04    1.10      21.1  T
   7   -185.6328158 -0.159592E-07  0.202E-04    1.10      49.5  T
     SCC iter.                  ...        0 min,  0.098 sec
     gradient                   ...        0 min,  0.032 sec
 * total energy  :  -182.8253769 Eh     change       -0.1165935E-03 Eh
   gradient norm :     0.0053347 Eh/α   predicted    -0.8650852E-04 ( -25.80%)
   displ. norm   :     0.4799861 α      lambda       -0.1695677E-03
   maximum displ.:     0.3021927 α      in ANC's #2, #4, #6, ...

........................................................................
.............................. CYCLE   34 ..............................
........................................................................
   1   -185.6291452 -0.185629E+03  0.714E-02    1.10       0.0  T
   2   -185.6291501 -0.491353E-05  0.406E-02    1.10       1.0  T
   3   -185.6291417  0.845851E-05  0.109E-02    1.10       1.0  T
   4   -185.6291522 -0.105536E-04  0.295E-03    1.10       3.4  T
   5   -185.6291524 -0.182865E-06  0.165E-03    1.10       6.1  T
   6   -185.6291526 -0.182152E-06  0.699E-04    1.10      14.3  T
   7   -185.6291526 -0.407306E-07  0.273E-04    1.10      36.6  T
     SCC iter.                  ...        0 min,  0.098 sec
     gradient                   ...        0 min,  0.032 sec
 * total energy  :  -182.8254917 Eh     change       -0.1147796E-03 Eh
   gradient norm :     0.0065640 Eh/α   predicted    -0.1043182E-03 (  -9.11%)
   displ. norm   :     0.3695529 α      lambda       -0.1892194E-03
   maximum displ.:     0.2346332 α      in ANC's #2, #4, #6, ...

........................................................................
.............................. CYCLE   35 ..............................
........................................................................
   1   -185.6307771 -0.185631E+03  0.640E-02    1.10       0.0  T
   2   -185.6307820 -0.498294E-05  0.362E-02    1.10       1.0  T
   3   -185.6307755  0.652358E-05  0.929E-03    1.10       1.1  T
   4   -185.6307838 -0.830907E-05  0.272E-03    1.10       3.7  T
   5   -185.6307841 -0.270026E-06  0.147E-03    1.10       6.8  T
   6   -185.6307842 -0.976292E-07  0.788E-04    1.10      12.7  T
   7   -185.6307843 -0.660864E-07  0.236E-04    1.10      42.3  T
     SCC iter.                  ...        0 min,  0.098 sec
     gradient                   ...        0 min,  0.032 sec
 * total energy  :  -182.8256187 Eh     change       -0.1270287E-03 Eh
   gradient norm :     0.0077798 Eh/α   predicted    -0.1075348E-03 ( -15.35%)
   displ. norm   :     0.4070844 α      lambda       -0.1850414E-03
   maximum displ.:     0.2626173 α      in ANC's #2, #4, #6, ...

........................................................................
.............................. CYCLE   36 ..............................
........................................................................
   1   -185.6328900 -0.185633E+03  0.590E-02    1.10       0.0  T
   2   -185.6328933 -0.325437E-05  0.337E-02    1.10       1.0  T
   3   -185.6328804  0.128706E-04  0.114E-02    1.10       1.0  T
   4   -185.6328950 -0.145748E-04  0.269E-03    1.10       3.7  T
   5   -185.6328953 -0.290105E-06  0.150E-03    1.10       6.7  T
   6   -185.6328954 -0.116538E-06  0.701E-04    1.10      14.3  T
   7   -185.6328954 -0.382248E-07  0.229E-04    1.10      43.7  T
     SCC iter.                  ...        0 min,  0.097 sec
     gradient                   ...        0 min,  0.032 sec
 * total energy  :  -182.8257481 Eh     change       -0.1293936E-03 Eh
   gradient norm :     0.0057827 Eh/α   predicted    -0.1078572E-03 ( -16.64%)
   displ. norm   :     0.4670346 α      lambda       -0.1516762E-03
   maximum displ.:     0.3105019 α      in ANC's #2, #4, #6, ...

........................................................................
.............................. CYCLE   37 ..............................
........................................................................
   1   -185.6306402 -0.185631E+03  0.669E-02    1.10       0.0  T
   2   -185.6306444 -0.416941E-05  0.381E-02    1.10       1.0  T
   3   -185.6306278  0.166196E-04  0.123E-02    1.10       1.0  T
   4   -185.6306465 -0.187029E-04  0.321E-03    1.10       3.1  T
   5   -185.6306470 -0.506158E-06  0.182E-03    1.10       5.5  T
   6   -185.6306472 -0.200347E-06  0.754E-04    1.10      13.3  T
   7   -185.6306473 -0.513784E-07  0.251E-04    1.10      39.9  T
     SCC iter.                  ...        0 min,  0.097 sec
     gradient                   ...        0 min,  0.032 sec
 * total energy  :  -182.8258695 Eh     change       -0.1213932E-03 Eh
   gradient norm :     0.0049592 Eh/α   predicted    -0.9238437E-04 ( -23.90%)
   displ. norm   :     0.3368499 α      lambda       -0.1281751E-03
   maximum displ.:     0.2313371 α      in ANC's #2, #4, #11, ...

........................................................................
.............................. CYCLE   38 ..............................
........................................................................
   1   -185.6308115 -0.185631E+03  0.496E-02    1.10       0.0  T
   2   -185.6308144 -0.294881E-05  0.281E-02    1.10       1.0  T
   3   -185.6307988  0.156225E-04  0.120E-02    1.10       1.0  T
   4   -185.6308162 -0.173472E-04  0.287E-03    1.10       3.5  T
   5   -185.6308167 -0.583096E-06  0.157E-03    1.10       6.4  T
   6   -185.6308169 -0.146879E-06  0.588E-04    1.10      17.0  T
   7   -185.6308169 -0.226606E-07  0.218E-04    1.10      45.8  T
     SCC iter.                  ...        0 min,  0.097 sec
     gradient                   ...        0 min,  0.032 sec
 * total energy  :  -182.8259695 Eh     change       -0.1000035E-03 Eh
   gradient norm :     0.0035728 Eh/α   predicted    -0.7136412E-04 ( -28.64%)
   displ. norm   :     0.3306440 α      lambda       -0.9477670E-04
   maximum displ.:     0.2323452 α      in ANC's #2, #4, #11, ...

........................................................................
.............................. CYCLE   39 ..............................
........................................................................
   1   -185.6296099 -0.185630E+03  0.467E-02    1.10       0.0  T
   2   -185.6296121 -0.223393E-05  0.267E-02    1.10       1.0  T
   3   -185.6295956  0.164667E-04  0.120E-02    1.10       1.0  T
   4   -185.6296137 -0.180751E-04  0.271E-03    1.10       3.7  T
   5   -185.6296143 -0.546891E-06  0.146E-03    1.10       6.8  T
   6   -185.6296144 -0.121834E-06  0.527E-04    1.10      19.0  T
   7   -185.6296144 -0.157225E-07  0.200E-04    1.10      49.9  T
     SCC iter.                  ...        0 min,  0.097 sec
     gradient                   ...        0 min,  0.032 sec
 * total energy  :  -182.8260471 Eh     change       -0.7758580E-04 Eh
   gradient norm :     0.0031974 Eh/α   predicted    -0.5257196E-04 ( -32.24%)
   displ. norm   :     0.2517879 α      lambda       -0.7164064E-04
   maximum displ.:     0.1843848 α      in ANC's #2, #4, #11, ...

........................................................................
.............................. CYCLE   40 ..............................
........................................................................
   1   -185.6306600 -0.185631E+03  0.343E-02    1.10       0.0  T
   2   -185.6306612 -0.117335E-05  0.196E-02    1.10       1.0  T
   3   -185.6306531  0.804985E-05  0.857E-03    1.10       1.2  T
   4   -185.6306620 -0.888792E-05  0.194E-03    1.10       5.1  T
   5   -185.6306622 -0.258011E-06  0.109E-03    1.10       9.2  T
   6   -185.6306623 -0.717436E-07  0.371E-04    1.10      27.0  T
   7   -185.6306623 -0.881388E-08  0.147E-04    1.10      67.9  T
     SCC iter.                  ...        0 min,  0.097 sec
     gradient                   ...        0 min,  0.032 sec
 * total energy  :  -182.8261057 Eh     change       -0.5867425E-04 Eh
   gradient norm :     0.0024279 Eh/α   predicted    -0.3809164E-04 ( -35.08%)
   displ. norm   :     0.2283785 α      lambda       -0.5780444E-04
   maximum displ.:     0.1704754 α      in ANC's #2, #4, #6, ...

........................................................................
.............................. CYCLE   41 ..............................
........................................................................
   1   -185.6304881 -0.185630E+03  0.310E-02    1.10       0.0  T
   2   -185.6304890 -0.887553E-06  0.177E-02    1.10       1.0  T
   3   -185.6304854  0.363175E-05  0.590E-03    1.10       1.7  T
   4   -185.6304894 -0.404005E-05  0.154E-03    1.10       6.5  T
   5   -185.6304896 -0.139197E-06  0.902E-04    1.10      11.1  T
   6   -185.6304896 -0.563742E-07  0.285E-04    1.10      35.0  T
     SCC iter.                  ...        0 min,  0.083 sec
     gradient                   ...        0 min,  0.031 sec
 * total energy  :  -182.8261546 Eh     change       -0.4882790E-04 Eh
   gradient norm :     0.0023904 Eh/α   predicted    -0.3041037E-04 ( -37.72%)
   displ. norm   :     0.1743788 α      lambda       -0.4591552E-04
   maximum displ.:     0.1350456 α      in ANC's #2, #4, #7, ...

........................................................................
.............................. CYCLE   42 ..............................
........................................................................
   1   -185.6315629 -0.185632E+03  0.228E-02    1.10       0.0  T
   2   -185.6315634 -0.497383E-06  0.131E-02    1.10       1.0  T
   3   -185.6315615  0.189814E-05  0.431E-03    1.10       2.3  T
   4   -185.6315637 -0.215073E-05  0.105E-03    1.10       9.6  T
   5   -185.6315637 -0.537389E-07  0.580E-04    1.10      17.2  T
   6   -185.6315637 -0.203692E-07  0.238E-04    1.10      42.0  T
     SCC iter.                  ...        0 min,  0.081 sec
     gradient                   ...        0 min,  0.031 sec
 * total energy  :  -182.8261946 Eh     change       -0.4008142E-04 Eh
   gradient norm :     0.0021495 Eh/α   predicted    -0.2365667E-04 ( -40.98%)
   displ. norm   :     0.1671891 α      lambda       -0.4383011E-04
   maximum displ.:     0.1304815 α      in ANC's #2, #4, #14, ...
 * RMSD in coord.:     0.6219495 α      energy gain  -0.2542453E-02 Eh

generating ANC from model Hessian ...
Using Lindh-Hessian (1995)
 Shifting diagonal of input Hessian by   9.994785887995556E-003
 Lowest  eigenvalues of input Hessian
    0.000000    0.000000    0.000000    0.000000    0.000000    0.000000
    0.010000    0.010027    0.010059    0.010072    0.010148    0.010208
    0.010257    0.010404    0.010652    0.010771    0.010955    0.011202
 Highest eigenvalues
    2.289271    2.293030    2.591232    2.597882    2.655177    2.659669
 

........................................................................
.............................. CYCLE   43 ..............................
........................................................................
   1   -185.6320317 -0.185632E+03  0.213E-02    1.10       0.0  T
   2   -185.6320321 -0.440693E-06  0.122E-02    1.10       1.0  T
   3   -185.6320302  0.188023E-05  0.428E-03    1.10       2.3  T
   4   -185.6320324 -0.211510E-05  0.972E-04    1.10      10.3  T
   5   -185.6320324 -0.530819E-07  0.547E-04    1.10      18.3  T
   6   -185.6320324 -0.194213E-07  0.238E-04    1.10      42.1  T
     SCC iter.                  ...        0 min,  0.078 sec
     gradient                   ...        0 min,  0.031 sec
 * total energy  :  -182.8262336 Eh     change       -0.3896374E-04 Eh
   gradient norm :     0.0019339 Eh/α   predicted     0.0000000E+00 (-100.00%)
   displ. norm   :     0.0497772 α      lambda       -0.1245534E-04
   maximum displ.:     0.0407047 α      in ANC's #2, #10, #11, ...

........................................................................
.............................. CYCLE   44 ..............................
........................................................................
   1   -185.6320157 -0.185632E+03  0.903E-03    1.10       0.0  T
   2   -185.6320158 -0.111930E-06  0.515E-03    1.10       1.9  T
   3   -185.6320151  0.670766E-06  0.260E-03    1.10       3.8  T
   4   -185.6320159 -0.744943E-06  0.623E-04    1.10      16.0  T
   5   -185.6320159 -0.338417E-07  0.308E-04    1.10      32.4  T
     SCC iter.                  ...        0 min,  0.069 sec
     gradient                   ...        0 min,  0.031 sec
 * total energy  :  -182.8262551 Eh     change       -0.2144934E-04 Eh
   gradient norm :     0.0009494 Eh/α   predicted    -0.8186697E-05 ( -61.83%)
   displ. norm   :     0.1211702 α      lambda       -0.3147313E-04
   maximum displ.:     0.0900360 α      in ANC's #2, #10, #35, ...

........................................................................
.............................. CYCLE   45 ..............................
........................................................................
   1   -185.6317352 -0.185632E+03  0.196E-02    1.10       0.0  T
   2   -185.6317355 -0.381422E-06  0.113E-02    1.10       1.0  T
   3   -185.6317302  0.534188E-05  0.667E-03    1.10       1.5  T
   4   -185.6317361 -0.587174E-05  0.138E-03    1.10       7.3  T
   5   -185.6317362 -0.166831E-06  0.627E-04    1.10      15.9  T
   6   -185.6317362 -0.173787E-07  0.241E-04    1.10      41.5  T
     SCC iter.                  ...        0 min,  0.083 sec
     gradient                   ...        0 min,  0.032 sec
 * total energy  :  -182.8262901 Eh     change       -0.3508327E-04 Eh
   gradient norm :     0.0015250 Eh/α   predicted    -0.1583940E-04 ( -54.85%)
   displ. norm   :     0.1632544 α      lambda       -0.3473012E-04
   maximum displ.:     0.1194442 α      in ANC's #2, #10, #6, ...

........................................................................
.............................. CYCLE   46 ..............................
........................................................................
   1   -185.6313565 -0.185631E+03  0.304E-02    1.10       0.0  T
   2   -185.6313577 -0.119580E-05  0.171E-02    1.10       1.0  T
   3   -185.6313552  0.246824E-05  0.558E-03    1.10       1.8  T
   4   -185.6313583 -0.307880E-05  0.122E-03    1.10       8.2  T
   5   -185.6313583 -0.505278E-07  0.744E-04    1.10      13.4  T
   6   -185.6313583 -0.328265E-07  0.294E-04    1.10      34.0  T
     SCC iter.                  ...        0 min,  0.083 sec
     gradient                   ...        0 min,  0.031 sec
 * total energy  :  -182.8263195 Eh     change       -0.2935256E-04 Eh
   gradient norm :     0.0028828 Eh/α   predicted    -0.1758188E-04 ( -40.10%)
   displ. norm   :     0.0904027 α      lambda       -0.3226370E-04
   maximum displ.:     0.0661903 α      in ANC's #2, #10, #6, ...

........................................................................
.............................. CYCLE   47 ..............................
........................................................................
   1   -185.6314569 -0.185631E+03  0.184E-02    1.10       0.0  T
   2   -185.6314573 -0.395787E-06  0.103E-02    1.10       1.0  T
   3   -185.6314564  0.932193E-06  0.339E-03    1.10       3.0  T
   4   -185.6314575 -0.112821E-05  0.692E-04    1.10      14.5  T
   5   -185.6314575 -0.151395E-07  0.457E-04    1.10      21.9  T
   6   -185.6314576 -0.152672E-07  0.139E-04    1.10      71.8  T
     SCC iter.                  ...        0 min,  0.083 sec
     gradient                   ...        0 min,  0.031 sec
 * total energy  :  -182.8263429 Eh     change       -0.2336837E-04 Eh
   gradient norm :     0.0026983 Eh/α   predicted    -0.1627247E-04 ( -30.37%)
   displ. norm   :     0.0964702 α      lambda       -0.3345940E-04
   maximum displ.:     0.0718430 α      in ANC's #2, #10, #6, ...

........................................................................
.............................. CYCLE   48 ..............................
........................................................................
   1   -185.6318336 -0.185632E+03  0.160E-02    1.10       0.0  T
   2   -185.6318339 -0.275182E-06  0.902E-03    1.10       1.1  T
   3   -185.6318330  0.931889E-06  0.300E-03    1.10       3.3  T
   4   -185.6318341 -0.108047E-05  0.676E-04    1.10      14.8  T
   5   -185.6318341 -0.171412E-07  0.396E-04    1.10      25.3  T
   6   -185.6318341 -0.924683E-08  0.154E-04    1.10      65.1  T
     SCC iter.                  ...        0 min,  0.084 sec
     gradient                   ...        0 min,  0.032 sec
 * total energy  :  -182.8263711 Eh     change       -0.2820013E-04 Eh
   gradient norm :     0.0022957 Eh/α   predicted    -0.1688744E-04 ( -40.12%)
   displ. norm   :     0.1252279 α      lambda       -0.3917343E-04
   maximum displ.:     0.0939028 α      in ANC's #2, #10, #6, ...

........................................................................
.............................. CYCLE   49 ..............................
........................................................................
   1   -185.6322367 -0.185632E+03  0.163E-02    1.10       0.0  T
   2   -185.6322370 -0.332698E-06  0.925E-03    1.10       1.1  T
   3   -185.6322362  0.872182E-06  0.311E-03    1.10       3.2  T
   4   -185.6322372 -0.100001E-05  0.863E-04    1.10      11.6  T
   5   -185.6322372 -0.447522E-07  0.485E-04    1.10      20.6  T
   6   -185.6322372 -0.144077E-07  0.196E-04    1.10      50.9  T
     SCC iter.                  ...        0 min,  0.084 sec
     gradient                   ...        0 min,  0.032 sec
 * total energy  :  -182.8264043 Eh     change       -0.3320773E-04 Eh
   gradient norm :     0.0012731 Eh/α   predicted    -0.1989565E-04 ( -40.09%)
   displ. norm   :     0.2174384 α      lambda       -0.3926588E-04
   maximum displ.:     0.1628262 α      in ANC's #2, #10, #6, ...

........................................................................
.............................. CYCLE   50 ..............................
........................................................................
   1   -185.6324700 -0.185632E+03  0.274E-02    1.10       0.0  T
   2   -185.6324710 -0.989295E-06  0.156E-02    1.10       1.0  T
   3   -185.6324676  0.337244E-05  0.584E-03    1.10       1.7  T
   4   -185.6324714 -0.377101E-05  0.163E-03    1.10       6.1  T
   5   -185.6324716 -0.194657E-06  0.855E-04    1.10      11.7  T
   6   -185.6324717 -0.424780E-07  0.321E-04    1.10      31.1  T
     SCC iter.                  ...        0 min,  0.084 sec
     gradient                   ...        0 min,  0.032 sec
 * total energy  :  -182.8264495 Eh     change       -0.4522821E-04 Eh
   gradient norm :     0.0020862 Eh/α   predicted    -0.2004593E-04 ( -55.68%)
   displ. norm   :     0.1256683 α      lambda       -0.3228615E-04
   maximum displ.:     0.0943236 α      in ANC's #2, #10, #6, ...

........................................................................
.............................. CYCLE   51 ..............................
........................................................................
   1   -185.6324785 -0.185632E+03  0.188E-02    1.10       0.0  T
   2   -185.6324789 -0.380530E-06  0.106E-02    1.10       1.0  T
   3   -185.6324775  0.137308E-05  0.361E-03    1.10       2.8  T
   4   -185.6324790 -0.156780E-05  0.882E-04    1.10      11.3  T
   5   -185.6324791 -0.450302E-07  0.503E-04    1.10      19.9  T
   6   -185.6324791 -0.149128E-07  0.173E-04    1.10      57.7  T
     SCC iter.                  ...        0 min,  0.083 sec
     gradient                   ...        0 min,  0.032 sec
 * total energy  :  -182.8264760 Eh     change       -0.2649540E-04 Eh
   gradient norm :     0.0022952 Eh/α   predicted    -0.1639885E-04 ( -38.11%)
   displ. norm   :     0.1219860 α      lambda       -0.3069642E-04
   maximum displ.:     0.0921091 α      in ANC's #2, #6, #10, ...

........................................................................
.............................. CYCLE   52 ..............................
........................................................................
   1   -185.6323597 -0.185632E+03  0.152E-02    1.10       0.0  T
   2   -185.6323599 -0.198689E-06  0.860E-03    1.10       1.2  T
   3   -185.6323588  0.110618E-05  0.325E-03    1.10       3.1  T
   4   -185.6323600 -0.124833E-05  0.697E-04    1.10      14.4  T
   5   -185.6323600 -0.155241E-07  0.417E-04    1.10      24.0  T
   6   -185.6323600 -0.108939E-07  0.124E-04    1.10      80.9  T
     SCC iter.                  ...        0 min,  0.083 sec
     gradient                   ...        0 min,  0.032 sec
 * total energy  :  -182.8265043 Eh     change       -0.2830050E-04 Eh
   gradient norm :     0.0020129 Eh/α   predicted    -0.1557707E-04 ( -44.96%)
   displ. norm   :     0.1443080 α      lambda       -0.3722763E-04
   maximum displ.:     0.1084183 α      in ANC's #2, #6, #1, ...

........................................................................
.............................. CYCLE   53 ..............................
........................................................................
   1   -185.6321717 -0.185632E+03  0.173E-02    1.10       0.0  T
   2   -185.6321720 -0.236722E-06  0.977E-03    1.10       1.0  T
   3   -185.6321704  0.156497E-05  0.375E-03    1.10       2.7  T
   4   -185.6321721 -0.174971E-05  0.822E-04    1.10      12.2  T
   5   -185.6321722 -0.205114E-07  0.488E-04    1.10      20.5  T
   6   -185.6321722 -0.150037E-07  0.144E-04    1.10      69.3  T
     SCC iter.                  ...        0 min,  0.083 sec
     gradient                   ...        0 min,  0.032 sec
 * total energy  :  -182.8265380 Eh     change       -0.3372821E-04 Eh
   gradient norm :     0.0013120 Eh/α   predicted    -0.1900334E-04 ( -43.66%)
   displ. norm   :     0.2590550 α      lambda       -0.4066424E-04
   maximum displ.:     0.1936962 α      in ANC's #2, #6, #1, ...

........................................................................
.............................. CYCLE   54 ..............................
........................................................................
   1   -185.6318348 -0.185632E+03  0.294E-02    1.10       0.0  T
   2   -185.6318354 -0.644041E-06  0.167E-02    1.10       1.0  T
   3   -185.6318286  0.684523E-05  0.757E-03    1.10       1.3  T
   4   -185.6318361 -0.755425E-05  0.149E-03    1.10       6.7  T
   5   -185.6318362 -0.733283E-07  0.866E-04    1.10      11.6  T
   6   -185.6318362 -0.431570E-07  0.292E-04    1.10      34.3  T
     SCC iter.                  ...        0 min,  0.085 sec
     gradient                   ...        0 min,  0.032 sec
 * total energy  :  -182.8265892 Eh     change       -0.5114318E-04 Eh
   gradient norm :     0.0013289 Eh/α   predicted    -0.2093933E-04 ( -59.06%)
   displ. norm   :     0.2357900 α      lambda       -0.3338014E-04
   maximum displ.:     0.1766466 α      in ANC's #2, #6, #1, ...

........................................................................
.............................. CYCLE   55 ..............................
........................................................................
   1   -185.6316433 -0.185632E+03  0.263E-02    1.10       0.0  T
   2   -185.6316439 -0.600064E-06  0.149E-02    1.10       1.0  T
   3   -185.6316411  0.286606E-05  0.524E-03    1.10       1.9  T
   4   -185.6316443 -0.319589E-05  0.138E-03    1.10       7.3  T
   5   -185.6316444 -0.793663E-07  0.813E-04    1.10      12.3  T
   6   -185.6316444 -0.440777E-07  0.227E-04    1.10      44.1  T
     SCC iter.                  ...        0 min,  0.083 sec
     gradient                   ...        0 min,  0.031 sec
 * total energy  :  -182.8266300 Eh     change       -0.4083142E-04 Eh
   gradient norm :     0.0020023 Eh/α   predicted    -0.1710468E-04 ( -58.11%)
   displ. norm   :     0.1399119 α      lambda       -0.3089613E-04
   maximum displ.:     0.1044051 α      in ANC's #2, #3, #1, ...

........................................................................
.............................. CYCLE   56 ..............................
........................................................................
   1   -185.6319559 -0.185632E+03  0.160E-02    1.10       0.0  T
   2   -185.6319561 -0.225858E-06  0.902E-03    1.10       1.1  T
   3   -185.6319548  0.138514E-05  0.346E-03    1.10       2.9  T
   4   -185.6319563 -0.155138E-05  0.778E-04    1.10      12.9  T
   5   -185.6319563 -0.185649E-07  0.444E-04    1.10      22.5  T
   6   -185.6319563 -0.125611E-07  0.143E-04    1.10      70.1  T
     SCC iter.                  ...        0 min,  0.083 sec
     gradient                   ...        0 min,  0.031 sec
 * total energy  :  -182.8266586 Eh     change       -0.2862027E-04 Eh
   gradient norm :     0.0018469 Eh/α   predicted    -0.1575272E-04 ( -44.96%)
   displ. norm   :     0.2410722 α      lambda       -0.3546365E-04
   maximum displ.:     0.1787681 α      in ANC's #2, #3, #1, ...

........................................................................
.............................. CYCLE   57 ..............................
........................................................................
   1   -185.6323310 -0.185632E+03  0.257E-02    1.10       0.0  T
   2   -185.6323316 -0.613110E-06  0.145E-02    1.10       1.0  T
   3   -185.6323300  0.161957E-05  0.413E-03    1.10       2.4  T
   4   -185.6323319 -0.188213E-05  0.128E-03    1.10       7.8  T
   5   -185.6323319 -0.460129E-07  0.761E-04    1.10      13.1  T
   6   -185.6323320 -0.517104E-07  0.207E-04    1.10      48.2  T
     SCC iter.                  ...        0 min,  0.085 sec
     gradient                   ...        0 min,  0.032 sec
 * total energy  :  -182.8267063 Eh     change       -0.4764977E-04 Eh
   gradient norm :     0.0013253 Eh/α   predicted    -0.1819142E-04 ( -61.82%)
   displ. norm   :     0.2493173 α      lambda       -0.3395701E-04
   maximum displ.:     0.1851202 α      in ANC's #2, #3, #1, ...

........................................................................
.............................. CYCLE   58 ..............................
........................................................................
   1   -185.6326683 -0.185633E+03  0.244E-02    1.10       0.0  T
   2   -185.6326689 -0.534944E-06  0.137E-02    1.10       1.0  T
   3   -185.6326683  0.611176E-06  0.301E-03    1.10       3.3  T
   4   -185.6326690 -0.770604E-06  0.122E-03    1.10       8.2  T
   5   -185.6326691 -0.361861E-07  0.670E-04    1.10      14.9  T
   6   -185.6326691 -0.500730E-07  0.190E-04    1.10      52.5  T
     SCC iter.                  ...        0 min,  0.083 sec
     gradient                   ...        0 min,  0.032 sec
 * total energy  :  -182.8267526 Eh     change       -0.4633153E-04 Eh
   gradient norm :     0.0010066 Eh/α   predicted    -0.1744816E-04 ( -62.34%)
   displ. norm   :     0.2367102 α      lambda       -0.2977544E-04
   maximum displ.:     0.1765561 α      in ANC's #2, #3, #4, ...

........................................................................
.............................. CYCLE   59 ..............................
........................................................................
   1   -185.6326428 -0.185633E+03  0.227E-02    1.10       0.0  T
   2   -185.6326432 -0.447802E-06  0.128E-02    1.10       1.0  T
   3   -185.6326420  0.117050E-05  0.372E-03    1.10       2.7  T
   4   -185.6326434 -0.135160E-05  0.118E-03    1.10       8.4  T
   5   -185.6326434 -0.263805E-07  0.765E-04    1.10      13.1  T
   6   -185.6326435 -0.568462E-07  0.176E-04    1.10      57.0  T
     SCC iter.                  ...        0 min,  0.084 sec
     gradient                   ...        0 min,  0.032 sec
 * total energy  :  -182.8267931 Eh     change       -0.4052242E-04 Eh
   gradient norm :     0.0010125 Eh/α   predicted    -0.1526248E-04 ( -62.34%)
   displ. norm   :     0.2052668 α      lambda       -0.2489673E-04
   maximum displ.:     0.1540354 α      in ANC's #2, #3, #4, ...

........................................................................
.............................. CYCLE   60 ..............................
........................................................................
   1   -185.6327924 -0.185633E+03  0.203E-02    1.10       0.0  T
   2   -185.6327927 -0.380946E-06  0.114E-02    1.10       1.0  T
   3   -185.6327914  0.136101E-05  0.365E-03    1.10       2.7  T
   4   -185.6327929 -0.153360E-05  0.111E-03    1.10       9.0  T
   5   -185.6327930 -0.461078E-07  0.627E-04    1.10      16.0  T
   6   -185.6327930 -0.286924E-07  0.170E-04    1.10      58.7  T
     SCC iter.                  ...        0 min,  0.083 sec
     gradient                   ...        0 min,  0.031 sec
 * total energy  :  -182.8268269 Eh     change       -0.3375137E-04 Eh
   gradient norm :     0.0011554 Eh/α   predicted    -0.1268561E-04 ( -62.41%)
   displ. norm   :     0.1780608 α      lambda       -0.2090203E-04
   maximum displ.:     0.1344919 α      in ANC's #2, #3, #4, ...

........................................................................
.............................. CYCLE   61 ..............................
........................................................................
   1   -185.6329277 -0.185633E+03  0.160E-02    1.10       0.0  T
   2   -185.6329279 -0.219417E-06  0.901E-03    1.10       1.1  T
   3   -185.6329272  0.709612E-06  0.276E-03    1.10       3.6  T
   4   -185.6329280 -0.788609E-06  0.912E-04    1.10      11.0  T
   5   -185.6329280 -0.330179E-07  0.532E-04    1.10      18.8  T
[...]
    51   6 C        3.752    -0.112    22.702     6.795
    52   6 C        2.928    -0.012    28.306     8.725
    53   6 C        3.012    -0.037    28.903     8.819
    54   6 C        2.872     0.226    23.252     7.905
    55   8 O        0.856    -0.365    20.985     6.142
    56   6 C        3.041    -0.024    28.568     8.767
    57   6 C        2.921    -0.028    28.689     8.783
    58   6 C        2.965     0.012    27.749     8.640
    59   6 C        3.758    -0.108    22.620     6.781
    60   6 C        2.794     0.167    24.392     8.090
    61   9 F        0.788    -0.211    11.347     3.979
    62   6 C        2.910    -0.049    29.211     8.862
    63   6 C        3.044     0.004    27.882     8.660
    64   6 C        3.021     0.034    27.222     8.558
    65   6 C        2.948     0.005    27.908     8.665
    66   6 C        1.930     0.120    28.132     8.565
    67   7 N        0.911    -0.235    26.160     7.397
    68   6 C        1.936     0.125    28.031     8.550
    69   7 N        0.911    -0.246    26.408     7.432
    70   1 H        0.925     0.079     1.989     2.205
    71   1 H        0.926     0.066     2.127     2.281
    72   1 H        0.925     0.068     2.106     2.269
    73   1 H        0.925     0.066     2.125     2.280
    74   1 H        0.925     0.082     1.957     2.188
    75   1 H        0.924     0.059     2.212     2.326
    76   1 H        0.925     0.050     2.318     2.381
    77   1 H        0.925     0.045     2.388     2.416
    78   1 H        0.925     0.041     2.434     2.440
    79   1 H        0.925     0.048     2.340     2.392
    80   1 H        0.924     0.055     2.261     2.351
    81   1 H        0.924     0.050     2.318     2.381
    82   1 H        0.925     0.048     2.347     2.396
    83   1 H        0.925     0.050     2.314     2.379
    84   1 H        0.925     0.045     2.383     2.414
    85   1 H        0.924     0.057     2.235     2.338
    86   1 H        0.925     0.061     2.184     2.311
    87   1 H        0.925     0.054     2.266     2.354
    88   1 H        0.925     0.048     2.343     2.394
    89   1 H        0.925     0.054     2.275     2.359
    90   1 H        0.925     0.061     2.183     2.310
    91   1 H        0.924     0.055     2.260     2.351
    92   1 H        0.925     0.050     2.318     2.381
    93   1 H        0.925     0.058     2.224     2.332
    94   1 H        0.925     0.054     2.272     2.357
    95   1 H        0.925     0.079     1.986     2.204
    96   1 H        0.926     0.069     2.098     2.265
    97   1 H        0.925     0.054     2.268     2.355
    98   1 H        0.925     0.068     2.110     2.272
    99   1 H        0.925     0.067     2.117     2.275
   100   1 H        0.926     0.076     2.019     2.222

 Mol. C6AA /au·bohr⁶  :     189922.979535
 Mol. C8AA /au·bohr⁸  :    5434498.690133
 Mol. α(0) /au        :        692.492011


Wiberg/Mayer (AO) data.
largest (>0.10) Wiberg bond orders for each atom

 ---------------------------------------------------------------------------
     #   Z sym  total        # sym  WBO       # sym  WBO       # sym  WBO
 ---------------------------------------------------------------------------
     1   6 C    3.946 --     2 C    1.564    17 C    1.233    70 H    0.943
     2   6 C    3.955 --     1 C    1.564    11 C    1.129     3 C    1.008
     3   6 C    3.930 --     4 O    1.758     5 C    1.038     2 C    1.008
     4   8 O    2.050 --     3 C    1.758
     5   6 C    3.972 --     9 C    1.548     6 C    1.146     3 C    1.038
     6   6 C    3.981 --     7 C    1.572     5 C    1.146    11 C    1.094
     7   6 C    3.935 --     6 C    1.572     8 S    1.189    71 H    0.965
     8  16 S    2.618 --     7 C    1.189     9 C    1.158
     9   6 C    3.951 --     5 C    1.548     8 S    1.158    10 C    1.050
    10   6 C    3.990 --     9 C    1.050    74 H    0.973    73 H    0.963
                            72 H    0.960
    11   6 C    3.976 --    12 C    1.471     2 C    1.129     6 C    1.094
    12   6 C    3.971 --    11 C    1.471    15 C    1.103    13 C    1.102
    13   6 C    3.947 --    14 N    2.767    12 C    1.102
    14   7 N    2.975 --    13 C    2.767
    15   6 C    3.946 --    16 N    2.761    12 C    1.103
    16   7 N    2.976 --    15 C    2.761
    17   6 C    3.921 --    18 C    1.412     1 C    1.233    47 S    1.070
    18   6 C    3.968 --    17 C    1.412    21 C    1.306    19 C    1.013
    19   6 C    3.993 --    18 C    1.013    20 C    0.994    76 H    0.972
                            75 H    0.965
    20   6 C    3.990 --    19 C    0.994    78 H    0.988    77 H    0.988
                            79 H    0.984
    21   6 C    3.929 --    46 C    1.322    18 C    1.306    22 S    1.094
    22  16 S    2.525 --    23 C    1.121    21 C    1.094
    23   6 C    3.920 --    45 C    1.303    24 C    1.266    22 S    1.121
    24   6 C    3.954 --    43 C    1.275    23 C    1.266    25 C    1.172
    25   6 C    3.973 --    29 N    1.430    24 C    1.172    26 C    1.162
                            28 S    0.101
    26   6 C    3.972 --    27 N    1.430    30 C    1.172    25 C    1.162
                            28 S    0.102
    27   7 N    3.075 --    26 C    1.430    28 S    1.393    29 N    0.148
    28  16 S    3.108 --    29 N    1.393    27 N    1.393    26 C    0.102
                            25 C    0.101
    29   7 N    3.076 --    25 C    1.430    28 S    1.393    27 N    0.148
    30   6 C    3.954 --    42 C    1.277    31 C    1.265    26 C    1.172
    31   6 C    3.917 --    40 C    1.303    30 C    1.265    32 S    1.122
    32  16 S    2.525 --    31 C    1.122    33 C    1.091
    33   6 C    3.928 --    34 C    1.317    39 C    1.314    32 S    1.091
    34   6 C    3.966 --    37 C    1.391    33 C    1.317    35 C    1.018
    35   6 C    3.993 --    34 C    1.018    36 C    0.991    80 H    0.971
                            81 H    0.962
    36   6 C    3.988 --    35 C    0.991    83 H    0.987    84 H    0.987
                            82 H    0.984
    37   6 C    3.923 --    34 C    1.391    52 C    1.257    38 S    1.069
    38  16 S    2.548 --    39 C    1.125    37 C    1.069
    39   6 C    3.937 --    33 C    1.314    40 C    1.265    38 S    1.125
    40   6 C    3.938 --    31 C    1.303    39 C    1.265    41 N    1.143
    41   7 N    3.524 --    42 C    1.158    40 C    1.143    50 C    0.973
    42   6 C    3.931 --    30 C    1.277    43 C    1.234    41 N    1.158
    43   6 C    3.930 --    24 C    1.275    42 C    1.234    44 N    1.160
    44   7 N    3.534 --    43 C    1.160    45 C    1.146    48 C    0.978
    45   6 C    3.937 --    23 C    1.303    46 C    1.261    44 N    1.146
    46   6 C    3.937 --    21 C    1.322    45 C    1.261    47 S    1.122
    47  16 S    2.544 --    46 C    1.122    17 C    1.070
    48   6 C    3.965 --    49 C    1.005    44 N    0.978    85 H    0.968
                            86 H    0.967
    49   6 C    3.988 --    48 C    1.005    88 H    0.987    89 H    0.983
                            87 H    0.983
    50   6 C    3.963 --    51 C    1.006    41 N    0.973    91 H    0.969
                            90 H    0.967
    51   6 C    3.987 --    50 C    1.006    92 H    0.987    94 H    0.983
                            93 H    0.982
    52   6 C    3.947 --    53 C    1.541    37 C    1.257    95 H    0.940
    53   6 C    3.952 --    52 C    1.541    64 C    1.136    54 C    1.016
    54   6 C    3.925 --    55 O    1.774    53 C    1.016    56 C    1.016
    55   8 O    2.051 --    54 C    1.774
    56   6 C    3.973 --    57 C    1.419    63 C    1.293    54 C    1.016
    57   6 C    3.982 --    56 C    1.419    58 C    1.399    96 H    0.963
    58   6 C    3.969 --    57 C    1.399    60 C    1.348    59 C    1.034
    59   6 C    3.990 --    58 C    1.034    97 H    0.985    98 H    0.964
                            99 H    0.964
    60   6 C    3.879 --    62 C    1.399    58 C    1.348    61 F    0.971
    61   9 F    1.104 --    60 C    0.971
    62   6 C    3.976 --    63 C    1.399    60 C    1.399   100 H    0.959
    63   6 C    3.981 --    62 C    1.399    56 C    1.293    64 C    1.080
    64   6 C    3.973 --    65 C    1.481    53 C    1.136    63 C    1.080
    65   6 C    3.969 --    64 C    1.481    66 C    1.101    68 C    1.097
    66   6 C    3.946 --    67 N    2.766    65 C    1.101
    67   7 N    2.969 --    66 C    2.766
    68   6 C    3.947 --    69 N    2.764    65 C    1.097
    69   7 N    2.976 --    68 C    2.764
    70   1 H    0.991 --     1 C    0.943
    71   1 H    0.995 --     7 C    0.965
    72   1 H    0.994 --    10 C    0.960
    73   1 H    0.994 --    10 C    0.963
    74   1 H    0.993 --    10 C    0.973
    75   1 H    0.995 --    19 C    0.965
    76   1 H    0.997 --    19 C    0.972
    77   1 H    0.998 --    20 C    0.988
    78   1 H    0.998 --    20 C    0.988
    79   1 H    0.996 --    20 C    0.984
    80   1 H    0.996 --    35 C    0.971
    81   1 H    0.996 --    35 C    0.962
    82   1 H    0.996 --    36 C    0.984
    83   1 H    0.997 --    36 C    0.987
    84   1 H    0.998 --    36 C    0.987
    85   1 H    0.995 --    48 C    0.968
    86   1 H    0.995 --    48 C    0.967
    87   1 H    0.997 --    49 C    0.983
    88   1 H    0.998 --    49 C    0.987
    89   1 H    0.997 --    49 C    0.983
    90   1 H    0.995 --    50 C    0.967
    91   1 H    0.995 --    50 C    0.969
    92   1 H    0.997 --    51 C    0.987
    93   1 H    0.996 --    51 C    0.982
    94   1 H    0.997 --    51 C    0.983
    95   1 H    0.991 --    52 C    0.940
    96   1 H    0.994 --    57 C    0.963
    97   1 H    0.997 --    59 C    0.985
    98   1 H    0.993 --    59 C    0.964
    99   1 H    0.993 --    59 C    0.964
   100   1 H    0.993 --    62 C    0.959
 ---------------------------------------------------------------------------

Topologies differ in bond orders
Writing corrected topology to xtbtopo.mol

molecular dipole:
                 x           y           z       tot (Debye)
 q only:       -0.514       1.003       2.634
   full:       -1.080       1.022       2.887       8.253
molecular quadrupole (traceless):
                xx          xy          yy          xz          yz          zz
 q only:       15.819      13.305      -7.035     -11.573     -21.210      -8.784
  q+dip:       11.794      -2.303      -2.600      -7.605     -26.766      -9.195
   full:        5.274      -5.692      -4.722     -10.223     -23.341      -0.551

           -------------------------------------------------
          |                Geometry Summary                 |
           -------------------------------------------------

      molecular mass/u    :     1011.2439932
   center of mass at/Å    :        0.2321461      -0.2321430       0.1395137
  moments of inertia/u·Å² :        0.1416247E+05   0.4039515E+05   0.5228888E+05
rotational constants/cm⁻¹ :        0.1190303E-02   0.4173182E-03   0.3223942E-03

 * 96 selected distances

     #   Z          #   Z                                           value/Å
     1   6 C        2   6 C                                       1.3617597
     3   6 C        4   8 O                                       1.2116693
     5   6 C        6   6 C                                       1.4352108
     6   6 C        7   6 C                                       1.3580939
     7   6 C        8  16 S                                       1.7278318
     5   6 C        9   6 C                                       1.3604652
     8  16 S        9   6 C                                       1.7470967
     9   6 C       10   6 C                                       1.4797697
     6   6 C       11   6 C                                       1.4489375
    11   6 C       12   6 C                                       1.3718336
    13   6 C       14   7 N                                       1.1480066
    15   6 C       16   7 N                                       1.1485240
     1   6 C       17   6 C                                       1.4141651
    17   6 C       18   6 C                                       1.3877414
    18   6 C       19   6 C                                       1.4930327
    19   6 C       20   6 C                                       1.5310760
    18   6 C       21   6 C                                       1.3988817
    21   6 C       22  16 S                                       1.7474466
    22  16 S       23   6 C                                       1.7279465
    23   6 C       24   6 C                                       1.4048872
    24   6 C       25   6 C                                       1.4140220
    25   6 C       26   6 C                                       1.4396968
    26   6 C       27   7 N                                       1.3233569
    27   7 N       28  16 S                                       1.6177892
    25   6 C       29   7 N                                       1.3233450
    28  16 S       29   7 N                                       1.6176683
    26   6 C       30   6 C                                       1.4140782
    30   6 C       31   6 C                                       1.4051580
    31   6 C       32  16 S                                       1.7279802
    32  16 S       33   6 C                                       1.7493448 (max)
    33   6 C       34   6 C                                       1.3966710
    34   6 C       35   6 C                                       1.4909489
    35   6 C       36   6 C                                       1.5310662
    34   6 C       37   6 C                                       1.3922803
    33   6 C       39   6 C                                       1.4018695
    38  16 S       39   6 C                                       1.7213872
    31   6 C       40   6 C                                       1.4026219
    39   6 C       40   6 C                                       1.3941741
    40   6 C       41   7 N                                       1.3734312
    30   6 C       42   6 C                                       1.4204318
    41   7 N       42   6 C                                       1.3830276
    24   6 C       43   6 C                                       1.4204057
    42   6 C       43   6 C                                       1.4102156
    43   6 C       44   7 N                                       1.3814781
    23   6 C       45   6 C                                       1.4028992
    44   7 N       45   6 C                                       1.3721960
    21   6 C       46   6 C                                       1.4006398
    45   6 C       46   6 C                                       1.3955232
    46   6 C       47  16 S                                       1.7227523
    44   7 N       48   6 C                                       1.4489698
    48   6 C       49   6 C                                       1.5285282
    41   7 N       50   6 C                                       1.4522217
    50   6 C       51   6 C                                       1.5285374
    37   6 C       52   6 C                                       1.4085133
    52   6 C       53   6 C                                       1.3638477
    54   6 C       55   8 O                                       1.2103494
    56   6 C       57   6 C                                       1.3810844
    57   6 C       58   6 C                                       1.3907175
    58   6 C       60   6 C                                       1.3965416
    60   6 C       62   6 C                                       1.3854274
    56   6 C       63   6 C                                       1.4066128
    62   6 C       63   6 C                                       1.3845597
    64   6 C       65   6 C                                       1.3710250
    66   6 C       67   7 N                                       1.1480447
    68   6 C       69   7 N                                       1.1482968
     1   6 C       70   1 H                                       1.0856077
     7   6 C       71   1 H                                       1.0716399 (min)
    10   6 C       72   1 H                                       1.0898412
    10   6 C       73   1 H                                       1.0894762
    10   6 C       74   1 H                                       1.0876616
    19   6 C       75   1 H                                       1.0916540
    19   6 C       76   1 H                                       1.0897310
    20   6 C       77   1 H                                       1.0874264
    20   6 C       78   1 H                                       1.0878034
    20   6 C       79   1 H                                       1.0865829
    35   6 C       80   1 H                                       1.0916554
    35   6 C       81   1 H                                       1.0919651
    36   6 C       82   1 H                                       1.0866796
    36   6 C       83   1 H                                       1.0869623
    36   6 C       84   1 H                                       1.0873564
    48   6 C       85   1 H                                       1.0949601
    48   6 C       86   1 H                                       1.0884678
    49   6 C       87   1 H                                       1.0863625
    49   6 C       88   1 H                                       1.0880048
    49   6 C       89   1 H                                       1.0862308
    50   6 C       90   1 H                                       1.0878562
    50   6 C       91   1 H                                       1.0947271
    51   6 C       92   1 H                                       1.0877990
    51   6 C       93   1 H                                       1.0863636
    51   6 C       94   1 H                                       1.0865391
    52   6 C       95   1 H                                       1.0860847
    57   6 C       96   1 H                                       1.0793441
    59   6 C       97   1 H                                       1.0859372
    59   6 C       98   1 H                                       1.0894989
    59   6 C       99   1 H                                       1.0895841
    62   6 C      100   1 H                                       1.0778726

 * 6 distinct bonds (by element types)

   Z      Z             #   av. dist./Å        max./Å        min./Å
   1 H    6 C          31     1.0873444     1.0949601     1.0716399
   6 C    6 C          41     1.4176574     1.5310760     1.3580939
   6 C    7 N          12     1.3042415     1.4522217     1.1480066
   6 C    8 O           2     1.2110093     1.2116693     1.2103494
   6 C   16 S           8     1.7339733     1.7493448     1.7213872
   7 N   16 S           2     1.6177287     1.6177892     1.6176683


optimized geometry written to: xtbopt.mol


           -------------------------------------------------
          | TOTAL ENERGY             -182.827661963971 Eh   |
          | GRADIENT NORM               0.000340570928 Eh/α |
          | HOMO-LUMO GAP               1.108859170078 eV   |
           -------------------------------------------------

------------------------------------------------------------------------
 * finished run on 2022/02/02 at 01:41:56.876     
------------------------------------------------------------------------
 total:
 * wall-time:     0 d,  0 h,  0 min, 13.671 sec
 *  cpu-time:     0 d,  0 h,  1 min, 49.228 sec
 * ratio c/w:     7.990 speedup
 SCF:
 * wall-time:     0 d,  0 h,  0 min,  0.254 sec
 *  cpu-time:     0 d,  0 h,  0 min,  2.016 sec
 * ratio c/w:     7.945 speedup
 ANC optimizer:
 * wall-time:     0 d,  0 h,  0 min, 13.344 sec
 *  cpu-time:     0 d,  0 h,  1 min, 46.717 sec
 * ratio c/w:     7.997 speedup

