      -----------------------------------------------------------      
     |                   =====================                   |     
     |                           x T B                           |     
     |                   =====================                   |     
     |                         S. Grimme                         |     
     |          Mulliken Center for Theoretical Chemistry        |     
     |                    University of Bonn                     |     
      -----------------------------------------------------------      

   * xtb version 6.4.1 (unknown) compiled by 'oda6@login1.crc.pitt.edu' on 2021-06-25

   xtb is free software: you can redistribute it and/or modify it under
   the terms of the GNU Lesser General Public License as published by
   the Free Software Foundation, either version 3 of the License, or
   (at your option) any later version.
   
   xtb is distributed in the hope that it will be useful,
   but WITHOUT ANY WARRANTY; without even the implied warranty of
   MERCHANTABILITY or FITNESS FOR A PARTICULAR PURPOSE.  See the
   GNU Lesser General Public License for more details.
   
   Cite this work as:
   * C. Bannwarth, E. Caldeweyher, S. Ehlert, A. Hansen, P. Pracht,
     J. Seibert, S. Spicher, S. Grimme, WIREs Comput. Mol. Sci., 2020, 11,
     e01493. DOI: 10.1002/wcms.1493
   
   for GFN2-xTB:
   * C. Bannwarth, S. Ehlert and S. Grimme., J. Chem. Theory Comput., 2019,
     15, 1652-1671. DOI: 10.1021/acs.jctc.8b01176
   for GFN1-xTB:
   * S. Grimme, C. Bannwarth, P. Shushkov, J. Chem. Theory Comput., 2017,
     13, 1989-2009. DOI: 10.1021/acs.jctc.7b00118
   for GFN0-xTB:
   * P. Pracht, E. Caldeweyher, S. Ehlert, S. Grimme, ChemRxiv, 2019, preprint.
     DOI: 10.26434/chemrxiv.8326202.v1
   for GFN-FF:
   * S. Spicher and S. Grimme, Angew. Chem. Int. Ed., 2020, 59, 15665-15673.
     DOI: 10.1002/anie.202004239
   
   for DFT-D4:
   * E. Caldeweyher, C. Bannwarth and S. Grimme, J. Chem. Phys., 2017,
     147, 034112. DOI: 10.1063/1.4993215
   * E. Caldeweyher, S. Ehlert, A. Hansen, H. Neugebauer, S. Spicher,
     C. Bannwarth and S. Grimme, J. Chem. Phys., 2019, 150, 154122.
     DOI: 10.1063/1.5090222
   * E. Caldeweyher, J.-M. Mewes, S. Ehlert and S. Grimme, Phys. Chem. Chem. Phys.
     2020, 22, 8499-8512. DOI: 10.1039/D0CP00502A
   
   for sTDA-xTB:
   * S. Grimme and C. Bannwarth, J. Chem. Phys., 2016, 145, 054103.
     DOI: 10.1063/1.4959605
   
   in the mass-spec context:
   * V. Asgeirsson, C. Bauer and S. Grimme, Chem. Sci., 2017, 8, 4879.
     DOI: 10.1039/c7sc00601b
   * J. Koopman and S. Grimme, ACS Omega 2019, 4, 12, 15120-15133.
     DOI: 10.1021/acsomega.9b02011
   
   for metadynamics refer to:
   * S. Grimme, J. Chem. Theory Comput., 2019, 155, 2847-2862
     DOI: 10.1021/acs.jctc.9b00143
   
   for SPH calculations refer to:
   * S. Spicher and S. Grimme, J. Chem. Theory Comput., 2021, 17, 1701-1714
     DOI: 10.1021/acs.jctc.0c01306
   
   with help from (in alphabetical order)
   P. Atkinson, C. Bannwarth, F. Bohle, G. Brandenburg, E. Caldeweyher
   M. Checinski, S. Dohm, S. Ehlert, S. Ehrlich, I. Gerasimov, J. Koopman
   C. Lavigne, S. Lehtola, F. März, M. Müller, F. Musil, H. Neugebauer
   J. Pisarek, C. Plett, P. Pracht, J. Seibert, P. Shushkov, S. Spicher
   M. Stahn, M. Steiner, T. Strunk, J. Stückrath, T. Rose, and J. Unsleber
   
 * started run on 2022/02/02 at 01:17:46.296     

           -------------------------------------------------
          |                Calculation Setup                |
           -------------------------------------------------

          program call               : /ihome/ghutchison/oda6/xtb/xtb-641/bin/xtb ../../FF_optimized/64_73_9.mol -opt
          hostname                   : smp-n66
          coordinate file            : ../../FF_optimized/64_73_9.mol
          omp threads                :                     8
          number of atoms            :                    96
          number of electrons        :                   350
          charge                     :                     0
          spin                       :                   0.0
          first test random number   :      0.10084316067941

   ID    Z sym.   atoms
    1    6 C      1-3, 5-7, 9, 11-15, 17, 19-21, 23-27, 29-31, 33-36, 38-42,
                  44, 45, 48-50, 52-55, 57-62, 64-70, 72
    2    8 O      4, 56
    3   17 Cl     8, 28, 43
    4    9 F      10, 63
    5    7 N      16, 18, 71, 73
    6   16 S      22, 32, 37, 46, 47, 51
    7    1 H      74-96
########################################################################
[WARNING] Please study the warnings concerning your input carefully
-1- prog_main_parseArguments: the use of '-opt' is discouraged, please use '--opt' next time
########################################################################

           -------------------------------------------------
          |                 G F N 2 - x T B                 |
           -------------------------------------------------

        Reference                      10.1021/acs.jctc.8b01176
      * Hamiltonian:
        H0-scaling (s, p, d)           1.850000    2.230000    2.230000
        zeta-weighting                 0.500000
      * Dispersion:
        s8                             2.700000
        a1                             0.520000
        a2                             5.000000
        s9                             5.000000
      * Repulsion:
        kExp                           1.500000    1.000000
        rExp                           1.000000
      * Coulomb:
        alpha                          2.000000
        third order                    shell-resolved
        anisotropic                    true
        a3                             3.000000
        a5                             4.000000
        cn-shift                       1.200000
        cn-exp                         4.000000
        max-rad                        5.000000


          ...................................................
          :                      SETUP                      :
          :.................................................:
          :  # basis functions                 369          :
          :  # atomic orbitals                 360          :
          :  # shells                          178          :
          :  # electrons                       350          :
          :  max. iterations                   250          :
          :  Hamiltonian                  GFN2-xTB          :
          :  restarted?                      false          :
          :  GBSA solvation                  false          :
          :  PC potential                    false          :
          :  electronic temp.          300.0000000     K    :
          :  accuracy                    1.0000000          :
          :  -> integral cutoff          0.2500000E+02      :
          :  -> integral neglect         0.1000000E-07      :
          :  -> SCF convergence          0.1000000E-05 Eh   :
          :  -> wf. convergence          0.1000000E-03 e    :
          :  Broyden damping             0.4000000          :
          ...................................................

 iter      E             dE          RMSdq      gap      omega  full diag
   1   -196.3691453 -0.196369E+03  0.529E+00    1.35       0.0  T
   2   -196.4347628 -0.656175E-01  0.329E+00    1.08       1.0  T
   3   -196.1985875  0.236175E+00  0.239E+00    0.63       1.0  T
   4   -196.5915020 -0.392914E+00  0.697E-01    0.80       1.0  T
   5   -196.6235982 -0.320962E-01  0.226E-01    0.70       1.0  T
   6   -196.6245871 -0.988919E-03  0.113E-01    0.79       1.0  T
   7   -196.6252678 -0.680705E-03  0.624E-02    0.76       1.0  T
   8   -196.6254206 -0.152764E-03  0.415E-02    0.78       1.0  T
   9   -196.6254616 -0.409900E-04  0.313E-02    0.77       1.0  T
  10   -196.6254924 -0.307745E-04  0.223E-02    0.77       1.0  T
  11   -196.6255082 -0.158206E-04  0.148E-02    0.77       1.0  T
  12   -196.6255192 -0.109916E-04  0.735E-03    0.77       1.4  T
  13   -196.6255212 -0.201805E-05  0.359E-03    0.77       2.8  T
  14   -196.6255219 -0.665611E-06  0.160E-03    0.77       6.4  T
  15   -196.6255220 -0.109686E-06  0.858E-04    0.77      11.9  T
  16   -196.6255220 -0.234005E-07  0.487E-04    0.77      21.0  T

   *** convergence criteria satisfied after 16 iterations ***

         #    Occupation            Energy/Eh            Energy/eV
      -------------------------------------------------------------
         1        2.0000           -1.0805501             -29.4033
       ...           ...                  ...                  ...
       169        2.0000           -0.4109417             -11.1823
       170        2.0000           -0.4096847             -11.1481
       171        2.0000           -0.4053017             -11.0288
       172        2.0000           -0.3988617             -10.8536
       173        2.0000           -0.3968867             -10.7998
       174        2.0000           -0.3928740             -10.6906
       175        2.0000           -0.3767861             -10.2529 (HOMO)
       176        0.0000           -0.3484859              -9.4828 (LUMO)
       177        0.0000           -0.3469922              -9.4421
       178                         -0.3410543              -9.2806
       179                         -0.3335464              -9.0763
       180                         -0.3085667              -8.3965
       ...                                ...                  ...
       360                          1.0568315              28.7578
      -------------------------------------------------------------
                  HL-Gap            0.0283002 Eh            0.7701 eV
             Fermi-level           -0.3627258 Eh           -9.8703 eV

 SCC (total)                   0 d,  0 h,  0 min,  0.296 sec
 SCC setup                      ...        0 min,  0.001 sec (  0.209%)
 Dispersion                     ...        0 min,  0.003 sec (  1.169%)
 classical contributions        ...        0 min,  0.000 sec (  0.036%)
 integral evaluation            ...        0 min,  0.016 sec (  5.304%)
 iterations                     ...        0 min,  0.242 sec ( 81.614%)
 molecular gradient             ...        0 min,  0.033 sec ( 11.279%)
 printout                       ...        0 min,  0.001 sec (  0.358%)

         :::::::::::::::::::::::::::::::::::::::::::::::::::::
         ::                     SUMMARY                     ::
         :::::::::::::::::::::::::::::::::::::::::::::::::::::
         :: total energy            -193.843615848986 Eh    ::
         :: gradient norm              0.271229444484 Eh/a0 ::
         :: HOMO-LUMO gap              0.770087422098 eV    ::
         ::.................................................::
         :: SCC energy              -196.625521997424 Eh    ::
         :: -> isotropic ES            0.125131076933 Eh    ::
         :: -> anisotropic ES          0.000003799784 Eh    ::
         :: -> anisotropic XC          0.112736021193 Eh    ::
         :: -> dispersion             -0.164540654655 Eh    ::
         :: repulsion energy           2.781245503482 Eh    ::
         :: add. restraining           0.000000000000 Eh    ::
         :: total charge              -0.000000000419 e     ::
         :::::::::::::::::::::::::::::::::::::::::::::::::::::

      ----------------------------------------------------------- 
     |                   =====================                   |
     |                        A N C O P T                        |
     |                   =====================                   |
     |               Approximate Normal Coordinate               |
     |                Rational Function Optimizer                |
      ----------------------------------------------------------- 

          ...................................................
          :                      SETUP                      :
          :.................................................:
          :   optimization level            normal          :
          :   max. optcycles                   288          :
          :   ANC micro-cycles                  20          :
          :   degrees of freedom               282          :
          :.................................................:
          :   RF solver                   davidson          :
          :   write xtbopt.log                true          :
          :   linear?                        false          :
          :   energy convergence         0.5000000E-05 Eh   :
          :   grad. convergence          0.1000000E-02 Eh/α :
          :   maximium RF displ.         1.0000000          :
          :   Hlow (freq-cutoff)         0.1000000E-01      :
          :   Hmax (freq-cutoff)         5.0000000          :
          :   S6 in model hess.         20.0000000          :
          ...................................................

generating ANC from model Hessian ...
Using Lindh-Hessian (1995)
 Shifting diagonal of input Hessian by   1.008051676575008E-002
 Lowest  eigenvalues of input Hessian
    0.010000    0.000000    0.000000    0.000000    0.000000    0.000000
    0.000000    0.010099    0.010115    0.010138    0.010148    0.010196
    0.010208    0.010247    0.010316    0.010343    0.010397    0.010606
 Highest eigenvalues
    2.163649    2.170783    2.482121    2.499214    2.542984    2.546096
 

........................................................................
.............................. CYCLE    1 ..............................
........................................................................
   1   -196.6255220 -0.196626E+03  0.260E-04    0.77       0.0  T
   2   -196.6255220  0.145860E-09  0.218E-04    0.77      46.8  T
   3   -196.6255220 -0.251751E-08  0.152E-04    0.77      67.2  T
     SCC iter.                  ...        0 min,  0.047 sec
     gradient                   ...        0 min,  0.032 sec
 * total energy  :  -193.8436159 Eh     change       -0.8581083E-08 Eh
   gradient norm :     0.2712280 Eh/α   predicted     0.0000000E+00 (-100.00%)
   displ. norm   :     0.3953095 α      lambda       -0.7169507E-01
   maximum displ.:     0.0956559 α      in ANC's #176, #97, #175, ...

........................................................................
.............................. CYCLE    2 ..............................
........................................................................
   1   -196.7351194 -0.196735E+03  0.312E-01    0.81       0.0  T
   2   -196.7361665 -0.104709E-02  0.189E-01    0.85       1.0  T
   3   -196.7360218  0.144713E-03  0.102E-01    0.84       1.0  T
   4   -196.7364004 -0.378621E-03  0.427E-02    0.83       1.0  T
   5   -196.7365113 -0.110882E-03  0.176E-02    0.84       1.0  T
   6   -196.7365265 -0.152102E-04  0.891E-03    0.84       1.1  T
   7   -196.7365295 -0.308229E-05  0.575E-03    0.84       1.8  T
   8   -196.7365304 -0.823595E-06  0.437E-03    0.84       2.3  T
   9   -196.7365309 -0.515767E-06  0.302E-03    0.84       3.4  T
  10   -196.7365313 -0.405320E-06  0.168E-03    0.84       6.1  T
  11   -196.7365314 -0.107949E-06  0.103E-03    0.84       9.9  T
  12   -196.7365314 -0.302356E-07  0.608E-04    0.84      16.8  T
  13   -196.7365314 -0.133878E-07  0.338E-04    0.84      30.2  T
     SCC iter.                  ...        0 min,  0.189 sec
     gradient                   ...        0 min,  0.032 sec
 * total energy  :  -193.8943283 Eh     change       -0.5071248E-01 Eh
   gradient norm :     0.1254160 Eh/α   predicted    -0.4147965E-01 ( -18.21%)
   displ. norm   :     0.3876144 α      lambda       -0.2727768E-01
   maximum displ.:     0.0904780 α      in ANC's #97, #40, #39, ...

........................................................................
.............................. CYCLE    3 ..............................
........................................................................
   1   -196.7817279 -0.196782E+03  0.262E-01    0.84       0.0  T
   2   -196.7825368 -0.808892E-03  0.152E-01    0.90       1.0  T
   3   -196.7824840  0.528315E-04  0.904E-02    0.86       1.0  T
   4   -196.7827531 -0.269066E-03  0.378E-02    0.88       1.0  T
   5   -196.7828383 -0.852322E-04  0.158E-02    0.87       1.0  T
   6   -196.7828478 -0.952319E-05  0.894E-03    0.88       1.1  T
   7   -196.7828512 -0.336079E-05  0.598E-03    0.88       1.7  T
   8   -196.7828521 -0.944975E-06  0.455E-03    0.88       2.2  T
   9   -196.7828528 -0.637407E-06  0.308E-03    0.88       3.3  T
  10   -196.7828532 -0.451377E-06  0.158E-03    0.88       6.4  T
  11   -196.7828533 -0.107765E-06  0.878E-04    0.88      11.6  T
  12   -196.7828533 -0.163721E-07  0.548E-04    0.88      18.6  T
     SCC iter.                  ...        0 min,  0.172 sec
     gradient                   ...        0 min,  0.032 sec
 * total energy  :  -193.9102385 Eh     change       -0.1591016E-01 Eh
   gradient norm :     0.0379646 Eh/α   predicted    -0.1568801E-01 (  -1.40%)
   displ. norm   :     0.4920400 α      lambda       -0.7389104E-02
   maximum displ.:     0.2265409 α      in ANC's #26, #28, #23, ...

........................................................................
.............................. CYCLE    4 ..............................
........................................................................
   1   -196.7745760 -0.196775E+03  0.346E-01    0.88       0.0  T
   2   -196.7747798 -0.203784E-03  0.194E-01    0.91       1.0  T
   3   -196.7735181  0.126166E-02  0.125E-01    0.86       1.0  T
   4   -196.7749863 -0.146819E-02  0.217E-02    0.90       1.0  T
   5   -196.7750225 -0.362403E-04  0.104E-02    0.89       1.0  T
   6   -196.7750268 -0.427842E-05  0.546E-03    0.90       1.9  T
   7   -196.7750280 -0.117166E-05  0.277E-03    0.90       3.7  T
   8   -196.7750282 -0.173865E-06  0.215E-03    0.90       4.7  T
   9   -196.7750283 -0.117510E-06  0.155E-03    0.90       6.6  T
  10   -196.7750284 -0.886242E-07  0.102E-03    0.90      10.0  T
  11   -196.7750284 -0.432333E-07  0.603E-04    0.90      16.9  T
  12   -196.7750284 -0.175736E-07  0.247E-04    0.90      41.4  T
     SCC iter.                  ...        0 min,  0.183 sec
     gradient                   ...        0 min,  0.032 sec
 * total energy  :  -193.9103330 Eh     change       -0.9454034E-04 Eh
   gradient norm :     0.0699827 Eh/α   predicted    -0.4589028E-02 (4754.04%)
   displ. norm   :     0.4344548 α      lambda       -0.1167671E-01
   maximum displ.:     0.2565880 α      in ANC's #10, #24, #39, ...

........................................................................
.............................. CYCLE    5 ..............................
........................................................................
   1   -196.8039690 -0.196804E+03  0.321E-01    0.89       0.0  T
   2   -196.8041731 -0.204018E-03  0.180E-01    0.92       1.0  T
   3   -196.8034813  0.691775E-03  0.956E-02    0.88       1.0  T
   4   -196.8043224 -0.841089E-03  0.152E-02    0.91       1.0  T
   5   -196.8043369 -0.145620E-04  0.820E-03    0.91       1.2  T
   6   -196.8043404 -0.351034E-05  0.360E-03    0.91       2.8  T
   7   -196.8043410 -0.569479E-06  0.157E-03    0.91       6.5  T
   8   -196.8043411 -0.554210E-07  0.120E-03    0.91       8.5  T
   9   -196.8043411 -0.344536E-07  0.921E-04    0.91      11.1  T
  10   -196.8043411 -0.320618E-07  0.567E-04    0.91      18.0  T
     SCC iter.                  ...        0 min,  0.145 sec
     gradient                   ...        0 min,  0.032 sec
 * total energy  :  -193.9153463 Eh     change       -0.5013279E-02 Eh
   gradient norm :     0.0365725 Eh/α   predicted    -0.6940360E-02 (  38.44%)
   displ. norm   :     0.3125844 α      lambda       -0.2722866E-02
   maximum displ.:     0.1161596 α      in ANC's #10, #21, #15, ...

........................................................................
.............................. CYCLE    6 ..............................
........................................................................
   1   -196.7974607 -0.196797E+03  0.155E-01    0.90       0.0  T
   2   -196.7974856 -0.249368E-04  0.888E-02    0.91       1.0  T
   3   -196.7971566  0.329027E-03  0.556E-02    0.89       1.0  T
   4   -196.7975271 -0.370448E-03  0.770E-03    0.91       1.3  T
   5   -196.7975295 -0.247994E-05  0.450E-03    0.91       2.3  T
   6   -196.7975305 -0.101069E-05  0.184E-03    0.91       5.5  T
   7   -196.7975307 -0.127492E-06  0.101E-03    0.91      10.1  T
   8   -196.7975307 -0.337502E-07  0.649E-04    0.91      15.7  T
   9   -196.7975307 -0.984497E-08  0.468E-04    0.91      21.8  T
     SCC iter.                  ...        0 min,  0.132 sec
     gradient                   ...        0 min,  0.032 sec
 * total energy  :  -193.9170932 Eh     change       -0.1746868E-02 Eh
   gradient norm :     0.0168163 Eh/α   predicted    -0.1494475E-02 ( -14.45%)
   displ. norm   :     0.5734222 α      lambda       -0.3179283E-02
   maximum displ.:     0.2005193 α      in ANC's #10, #23, #34, ...

........................................................................
.............................. CYCLE    7 ..............................
........................................................................
   1   -196.7870173 -0.196787E+03  0.299E-01    0.89       0.0  T
   2   -196.7870911 -0.737630E-04  0.170E-01    0.92       1.0  T
   3   -196.7858476  0.124350E-02  0.106E-01    0.88       1.0  T
   4   -196.7872404 -0.139284E-02  0.127E-02    0.91       1.0  T
   5   -196.7872460 -0.556431E-05  0.743E-03    0.91       1.4  T
   6   -196.7872487 -0.276428E-05  0.283E-03    0.91       3.6  T
   7   -196.7872491 -0.312980E-06  0.162E-03    0.91       6.3  T
   8   -196.7872492 -0.108359E-06  0.975E-04    0.91      10.5  T
   9   -196.7872492 -0.169612E-07  0.732E-04    0.91      13.9  T
     SCC iter.                  ...        0 min,  0.136 sec
     gradient                   ...        0 min,  0.032 sec
 * total energy  :  -193.9177537 Eh     change       -0.6605184E-03 Eh
   gradient norm :     0.0444737 Eh/α   predicted    -0.2112338E-02 ( 219.80%)
   displ. norm   :     0.3931321 α      lambda       -0.3943606E-02
   maximum displ.:     0.1172055 α      in ANC's #21, #33, #15, ...

........................................................................
.............................. CYCLE    8 ..............................
........................................................................
   1   -196.8044750 -0.196804E+03  0.228E-01    0.91       0.0  T
   2   -196.8045312 -0.561195E-04  0.128E-01    0.93       1.0  T
   3   -196.8040757  0.455442E-03  0.666E-02    0.90       1.0  T
   4   -196.8045935 -0.517810E-03  0.981E-03    0.92       1.0  T
   5   -196.8045987 -0.512423E-05  0.559E-03    0.92       1.8  T
   6   -196.8046002 -0.150682E-05  0.199E-03    0.92       5.1  T
   7   -196.8046004 -0.260600E-06  0.843E-04    0.92      12.1  T
   8   -196.8046005 -0.245760E-07  0.520E-04    0.92      19.6  T
     SCC iter.                  ...        0 min,  0.119 sec
     gradient                   ...        0 min,  0.032 sec
 * total energy  :  -193.9197463 Eh     change       -0.1992570E-02 Eh
   gradient norm :     0.0175417 Eh/α   predicted    -0.2276556E-02 (  14.25%)
   displ. norm   :     0.3436166 α      lambda       -0.1293897E-02
   maximum displ.:     0.1304795 α      in ANC's #15, #23, #10, ...

........................................................................
.............................. CYCLE    9 ..............................
........................................................................
   1   -196.8023676 -0.196802E+03  0.158E-01    0.91       0.0  T
   2   -196.8023989 -0.312890E-04  0.886E-02    0.93       1.0  T
   3   -196.8021492  0.249782E-03  0.481E-02    0.91       1.0  T
   4   -196.8024330 -0.283884E-03  0.709E-03    0.92       1.4  T
   5   -196.8024351 -0.203753E-05  0.437E-03    0.92       2.3  T
   6   -196.8024360 -0.968125E-06  0.151E-03    0.92       6.8  T
   7   -196.8024362 -0.123904E-06  0.642E-04    0.92      15.9  T
   8   -196.8024362 -0.909301E-08  0.392E-04    0.92      26.0  T
     SCC iter.                  ...        0 min,  0.120 sec
     gradient                   ...        0 min,  0.032 sec
 * total energy  :  -193.9203723 Eh     change       -0.6260625E-03 Eh
   gradient norm :     0.0275038 Eh/α   predicted    -0.7233366E-03 (  15.54%)
   displ. norm   :     0.4948487 α      lambda       -0.2331283E-02
   maximum displ.:     0.1961966 α      in ANC's #15, #5, #23, ...

........................................................................
.............................. CYCLE   10 ..............................
........................................................................
   1   -196.8152998 -0.196815E+03  0.194E-01    0.91       0.0  T
   2   -196.8153460 -0.462037E-04  0.110E-01    0.92       1.0  T
   3   -196.8150512  0.294853E-03  0.581E-02    0.92       1.0  T
   4   -196.8153925 -0.341343E-03  0.940E-03    0.92       1.1  T
   5   -196.8153966 -0.411796E-05  0.527E-03    0.92       1.9  T
   6   -196.8153979 -0.123288E-05  0.212E-03    0.92       4.8  T
   7   -196.8153981 -0.249339E-06  0.101E-03    0.92      10.1  T
   8   -196.8153981 -0.220640E-07  0.631E-04    0.92      16.2  T
   9   -196.8153981 -0.144694E-07  0.417E-04    0.92      24.5  T
     SCC iter.                  ...        0 min,  0.134 sec
     gradient                   ...        0 min,  0.032 sec
 * total energy  :  -193.9212742 Eh     change       -0.9018972E-03 Eh
   gradient norm :     0.0287053 Eh/α   predicted    -0.1451081E-02 (  60.89%)
   displ. norm   :     0.3888201 α      lambda       -0.1702993E-02
   maximum displ.:     0.1561179 α      in ANC's #15, #5, #10, ...

........................................................................
.............................. CYCLE   11 ..............................
........................................................................
   1   -196.8230516 -0.196823E+03  0.145E-01    0.92       0.0  T
   2   -196.8230844 -0.328018E-04  0.821E-02    0.93       1.0  T
   3   -196.8229107  0.173710E-03  0.423E-02    0.92       1.0  T
   4   -196.8231082 -0.197488E-03  0.690E-03    0.93       1.5  T
   5   -196.8231102 -0.201085E-05  0.422E-03    0.93       2.4  T
   6   -196.8231114 -0.115591E-05  0.166E-03    0.93       6.1  T
   7   -196.8231115 -0.861312E-07  0.811E-04    0.93      12.6  T
   8   -196.8231115 -0.242388E-07  0.517E-04    0.93      19.7  T
     SCC iter.                  ...        0 min,  0.119 sec
     gradient                   ...        0 min,  0.032 sec
 * total energy  :  -193.9217213 Eh     change       -0.4471048E-03 Eh
   gradient norm :     0.0391655 Eh/α   predicted    -0.9802303E-03 ( 119.24%)
   displ. norm   :     0.4142749 α      lambda       -0.1991330E-02
   maximum displ.:     0.1601875 α      in ANC's #15, #10, #5, ...

........................................................................
.............................. CYCLE   12 ..............................
........................................................................
   1   -196.8070956 -0.196807E+03  0.174E-01    0.92       0.0  T
   2   -196.8071125 -0.168346E-04  0.102E-01    0.94       1.0  T
   3   -196.8064974  0.615107E-03  0.809E-02    0.91       1.0  T
   4   -196.8072151 -0.717719E-03  0.877E-03    0.93       1.2  T
   5   -196.8072180 -0.290421E-05  0.542E-03    0.93       1.9  T
   6   -196.8072197 -0.173263E-05  0.198E-03    0.93       5.1  T
   7   -196.8072198 -0.130868E-06  0.114E-03    0.93       9.0  T
   8   -196.8072199 -0.696699E-07  0.633E-04    0.93      16.1  T
   9   -196.8072199 -0.986250E-08  0.465E-04    0.93      22.0  T
     SCC iter.                  ...        0 min,  0.133 sec
     gradient                   ...        0 min,  0.032 sec
 * total energy  :  -193.9223450 Eh     change       -0.6236436E-03 Eh
   gradient norm :     0.0283703 Eh/α   predicted    -0.1166547E-02 (  87.05%)
   displ. norm   :     0.2324786 α      lambda       -0.1171822E-02
   maximum displ.:     0.1023447 α      in ANC's #5, #8, #15, ...

........................................................................
.............................. CYCLE   13 ..............................
........................................................................
   1   -196.8107200 -0.196811E+03  0.898E-02    0.93       0.0  T
   2   -196.8107324 -0.124590E-04  0.518E-02    0.92       1.0  T
   3   -196.8106558  0.766080E-04  0.308E-02    0.93       1.0  T
   4   -196.8107455 -0.897013E-04  0.527E-03    0.92       1.9  T
   5   -196.8107474 -0.186214E-05  0.252E-03    0.93       4.0  T
   6   -196.8107476 -0.273661E-06  0.124E-03    0.92       8.2  T
   7   -196.8107477 -0.701623E-07  0.583E-04    0.93      17.5  T
   8   -196.8107477 -0.134713E-07  0.391E-04    0.93      26.1  T
     SCC iter.                  ...        0 min,  0.117 sec
     gradient                   ...        0 min,  0.032 sec
 * total energy  :  -193.9230247 Eh     change       -0.6797430E-03 Eh
   gradient norm :     0.0196342 Eh/α   predicted    -0.6175789E-03 (  -9.15%)
   displ. norm   :     0.4199648 α      lambda       -0.9549143E-03
   maximum displ.:     0.2017828 α      in ANC's #5, #15, #8, ...

........................................................................
.............................. CYCLE   14 ..............................
........................................................................
   1   -196.8195921 -0.196820E+03  0.103E-01    0.92       0.0  T
   2   -196.8196053 -0.132310E-04  0.592E-02    0.93       1.0  T
   3   -196.8195289  0.763743E-04  0.319E-02    0.93       1.0  T
   4   -196.8196169 -0.879483E-04  0.577E-03    0.92       1.8  T
   5   -196.8196188 -0.188042E-05  0.300E-03    0.93       3.4  T
   6   -196.8196192 -0.412714E-06  0.155E-03    0.93       6.6  T
   7   -196.8196193 -0.112299E-06  0.842E-04    0.93      12.1  T
   8   -196.8196193 -0.172585E-07  0.616E-04    0.93      16.6  T
     SCC iter.                  ...        0 min,  0.117 sec
     gradient                   ...        0 min,  0.032 sec
 * total energy  :  -193.9235764 Eh     change       -0.5516994E-03 Eh
   gradient norm :     0.0121008 Eh/α   predicted    -0.5616688E-03 (   1.81%)
   displ. norm   :     0.5761484 α      lambda       -0.8713651E-03
   maximum displ.:     0.2779935 α      in ANC's #5, #15, #8, ...

........................................................................
.............................. CYCLE   15 ..............................
........................................................................
   1   -196.8137617 -0.196814E+03  0.136E-01    0.92       0.0  T
   2   -196.8137765 -0.148336E-04  0.772E-02    0.93       1.0  T
   3   -196.8136396  0.136946E-03  0.340E-02    0.91       1.0  T
   4   -196.8137927 -0.153162E-03  0.556E-03    0.93       1.8  T
   5   -196.8137932 -0.518440E-06  0.355E-03    0.93       2.9  T
   6   -196.8137938 -0.593392E-06  0.114E-03    0.93       8.9  T
   7   -196.8137939 -0.685889E-07  0.608E-04    0.93      16.8  T
   8   -196.8137939 -0.835419E-08  0.430E-04    0.93      23.8  T
     SCC iter.                  ...        0 min,  0.117 sec
     gradient                   ...        0 min,  0.032 sec
 * total energy  :  -193.9243428 Eh     change       -0.7663634E-03 Eh
   gradient norm :     0.0133901 Eh/α   predicted    -0.5803088E-03 ( -24.28%)
   displ. norm   :     0.7224718 α      lambda       -0.1370796E-02
   maximum displ.:     0.3914548 α      in ANC's #5, #8, #15, ...

........................................................................
.............................. CYCLE   16 ..............................
........................................................................
   1   -196.8173641 -0.196817E+03  0.145E-01    0.94       0.0  T
   2   -196.8173937 -0.295691E-04  0.827E-02    0.93       1.0  T
   3   -196.8172430  0.150656E-03  0.391E-02    0.93       1.0  T
   4   -196.8174139 -0.170925E-03  0.767E-03    0.93       1.3  T
   5   -196.8174164 -0.246927E-05  0.468E-03    0.93       2.2  T
   6   -196.8174177 -0.127373E-05  0.186E-03    0.93       5.5  T
   7   -196.8174178 -0.124342E-06  0.114E-03    0.93       9.0  T
   8   -196.8174178 -0.286710E-07  0.852E-04    0.93      12.0  T
   9   -196.8174178 -0.185152E-07  0.641E-04    0.93      15.9  T
     SCC iter.                  ...        0 min,  0.131 sec
     gradient                   ...        0 min,  0.032 sec
 * total energy  :  -193.9251881 Eh     change       -0.8453460E-03 Eh
   gradient norm :     0.0196906 Eh/α   predicted    -0.1043159E-02 (  23.40%)
   displ. norm   :     0.6935097 α      lambda       -0.1029525E-02
   maximum displ.:     0.3630426 α      in ANC's #5, #15, #8, ...

........................................................................
.............................. CYCLE   17 ..............................
........................................................................
   1   -196.8056597 -0.196806E+03  0.153E-01    0.92       0.0  T
   2   -196.8056796 -0.199696E-04  0.871E-02    0.93       1.0  T
   3   -196.8054735  0.206126E-03  0.425E-02    0.92       1.0  T
   4   -196.8057023 -0.228799E-03  0.692E-03    0.93       1.5  T
   5   -196.8057041 -0.177995E-05  0.434E-03    0.93       2.4  T
   6   -196.8057050 -0.950383E-06  0.158E-03    0.93       6.4  T
   7   -196.8057051 -0.930934E-07  0.918E-04    0.93      11.1  T
   8   -196.8057052 -0.278643E-07  0.657E-04    0.93      15.5  T
     SCC iter.                  ...        0 min,  0.118 sec
     gradient                   ...        0 min,  0.032 sec
 * total energy  :  -193.9259591 Eh     change       -0.7709835E-03 Eh
   gradient norm :     0.0141580 Eh/α   predicted    -0.7623429E-03 (  -1.12%)
   displ. norm   :     0.6245765 α      lambda       -0.8549790E-03
   maximum displ.:     0.3618937 α      in ANC's #5, #8, #15, ...

........................................................................
.............................. CYCLE   18 ..............................
........................................................................
   1   -196.8068987 -0.196807E+03  0.100E-01    0.93       0.0  T
   2   -196.8069071 -0.835473E-05  0.576E-02    0.93       1.0  T
   3   -196.8068442  0.628570E-04  0.249E-02    0.93       1.0  T
   4   -196.8069142 -0.699282E-04  0.479E-03    0.93       2.1  T
   5   -196.8069152 -0.102565E-05  0.270E-03    0.93       3.8  T
   6   -196.8069156 -0.437444E-06  0.117E-03    0.93       8.7  T
   7   -196.8069157 -0.631264E-07  0.615E-04    0.93      16.6  T
   8   -196.8069157 -0.173007E-07  0.369E-04    0.93      27.7  T
     SCC iter.                  ...        0 min,  0.115 sec
     gradient                   ...        0 min,  0.031 sec
 * total energy  :  -193.9266700 Eh     change       -0.7108383E-03 Eh
   gradient norm :     0.0133875 Eh/α   predicted    -0.5942558E-03 ( -16.40%)
   displ. norm   :     0.7218910 α      lambda       -0.9912100E-03
   maximum displ.:     0.4344767 α      in ANC's #5, #8, #3, ...

........................................................................
.............................. CYCLE   19 ..............................
........................................................................
   1   -196.8113375 -0.196811E+03  0.118E-01    0.93       0.0  T
   2   -196.8113503 -0.127656E-04  0.669E-02    0.93       1.0  T
   3   -196.8112770  0.733005E-04  0.262E-02    0.93       1.0  T
   4   -196.8113583 -0.813217E-04  0.593E-03    0.93       1.7  T
   5   -196.8113604 -0.208850E-05  0.327E-03    0.93       3.1  T
   6   -196.8113610 -0.618275E-06  0.132E-03    0.93       7.7  T
   7   -196.8113611 -0.711689E-07  0.661E-04    0.93      15.4  T
   8   -196.8113611 -0.180137E-07  0.422E-04    0.93      24.2  T
     SCC iter.                  ...        0 min,  0.123 sec
     gradient                   ...        0 min,  0.032 sec
 * total energy  :  -193.9274763 Eh     change       -0.8063510E-03 Eh
   gradient norm :     0.0110736 Eh/α   predicted    -0.7538827E-03 (  -6.51%)
   displ. norm   :     0.7394379 α      lambda       -0.1011959E-02
   maximum displ.:     0.4580058 α      in ANC's #5, #8, #3, ...

........................................................................
.............................. CYCLE   20 ..............................
........................................................................
   1   -196.8206416 -0.196821E+03  0.101E-01    0.94       0.0  T
   2   -196.8206533 -0.116663E-04  0.581E-02    0.93       1.0  T
   3   -196.8205989  0.543997E-04  0.240E-02    0.94       1.0  T
   4   -196.8206584 -0.595604E-04  0.614E-03    0.93       1.7  T
   5   -196.8206612 -0.275545E-05  0.312E-03    0.94       3.3  T
   6   -196.8206618 -0.582280E-06  0.140E-03    0.93       7.3  T
   7   -196.8206619 -0.912042E-07  0.775E-04    0.93      13.2  T
   8   -196.8206619 -0.153865E-07  0.577E-04    0.93      17.7  T
     SCC iter.                  ...        0 min,  0.116 sec
     gradient                   ...        0 min,  0.032 sec
 * total energy  :  -193.9282378 Eh     change       -0.7615063E-03 Eh
   gradient norm :     0.0166360 Eh/α   predicted    -0.7826369E-03 (   2.77%)
   displ. norm   :     0.8210441 α      lambda       -0.9923503E-03
   maximum displ.:     0.4953409 α      in ANC's #5, #8, #3, ...
 * RMSD in coord.:     0.8160993 α      energy gain  -0.8462197E-01 Eh

generating ANC from model Hessian ...
Using Lindh-Hessian (1995)
 Shifting diagonal of input Hessian by   1.000069050057169E-002
 Lowest  eigenvalues of input Hessian
    0.010000    0.000000    0.000000    0.000000    0.000000    0.000000
    0.000000    0.010021    0.010063    0.010064    0.010098    0.010145
    0.010173    0.010234    0.010362    0.010513    0.010748    0.010835
 Highest eigenvalues
    2.273331    2.277414    2.603920    2.606154    2.643706    2.649525
 

........................................................................
.............................. CYCLE   21 ..............................
........................................................................
   1   -196.8088800 -0.196809E+03  0.148E-01    0.93       0.0  T
   2   -196.8089004 -0.204144E-04  0.838E-02    0.94       1.0  T
   3   -196.8087297  0.170747E-03  0.388E-02    0.92       1.0  T
   4   -196.8089197 -0.190078E-03  0.637E-03    0.94       1.6  T
   5   -196.8089209 -0.119921E-05  0.410E-03    0.93       2.5  T
   6   -196.8089219 -0.978963E-06  0.152E-03    0.93       6.7  T
   7   -196.8089220 -0.865750E-07  0.827E-04    0.93      12.3  T
   8   -196.8089220 -0.295784E-07  0.512E-04    0.93      19.9  T
     SCC iter.                  ...        0 min,  0.118 sec
     gradient                   ...        0 min,  0.032 sec
 * total energy  :  -193.9289578 Eh     change       -0.7199467E-03 Eh
   gradient norm :     0.0181074 Eh/α   predicted     0.0000000E+00 (-100.00%)
   displ. norm   :     0.1619708 α      lambda       -0.6258934E-03
   maximum displ.:     0.0655084 α      in ANC's #4, #11, #24, ...

........................................................................
.............................. CYCLE   22 ..............................
........................................................................
   1   -196.8153298 -0.196815E+03  0.141E-01    0.93       0.0  T
   2   -196.8153515 -0.217996E-04  0.776E-02    0.94       1.0  T
   3   -196.8153141  0.374275E-04  0.198E-02    0.93       1.0  T
   4   -196.8153624 -0.482789E-04  0.380E-03    0.93       2.7  T
   5   -196.8153628 -0.442485E-06  0.222E-03    0.93       4.6  T
   6   -196.8153631 -0.224499E-06  0.944E-04    0.93      10.8  T
   7   -196.8153631 -0.547587E-07  0.461E-04    0.93      22.1  T
     SCC iter.                  ...        0 min,  0.104 sec
     gradient                   ...        0 min,  0.032 sec
 * total energy  :  -193.9290867 Eh     change       -0.1289355E-03 Eh
   gradient norm :     0.0103864 Eh/α   predicted    -0.3212190E-03 ( 149.13%)
   displ. norm   :     0.2001544 α      lambda       -0.8267249E-03
   maximum displ.:     0.0973554 α      in ANC's #4, #5, #24, ...

........................................................................
.............................. CYCLE   23 ..............................
........................................................................
   1   -196.8274520 -0.196827E+03  0.871E-02    0.93       0.0  T
   2   -196.8274646 -0.126228E-04  0.485E-02    0.94       1.0  T
   3   -196.8274424  0.221884E-04  0.179E-02    0.93       1.0  T
   4   -196.8274696 -0.272115E-04  0.405E-03    0.94       2.5  T
   5   -196.8274706 -0.966113E-06  0.228E-03    0.94       4.5  T
   6   -196.8274709 -0.285848E-06  0.115E-03    0.94       8.8  T
   7   -196.8274709 -0.695758E-07  0.623E-04    0.94      16.4  T
   8   -196.8274709 -0.881147E-08  0.450E-04    0.94      22.7  T
     SCC iter.                  ...        0 min,  0.119 sec
     gradient                   ...        0 min,  0.032 sec
 * total energy  :  -193.9293657 Eh     change       -0.2789571E-03 Eh
   gradient norm :     0.0207741 Eh/α   predicted    -0.4299371E-03 (  54.12%)
   displ. norm   :     0.1268291 α      lambda       -0.4080199E-03
   maximum displ.:     0.0695992 α      in ANC's #4, #5, #11, ...

........................................................................
.............................. CYCLE   24 ..............................
........................................................................
   1   -196.8221839 -0.196822E+03  0.595E-02    0.93       0.0  T
   2   -196.8221875 -0.360459E-05  0.331E-02    0.93       1.0  T
   3   -196.8221838  0.375545E-05  0.723E-03    0.93       1.4  T
   4   -196.8221891 -0.530153E-05  0.167E-03    0.93       6.1  T
   5   -196.8221891 -0.708559E-07  0.106E-03    0.93       9.7  T
   6   -196.8221892 -0.721239E-07  0.449E-04    0.93      22.7  T
   7   -196.8221892 -0.106662E-07  0.242E-04    0.93      42.2  T
     SCC iter.                  ...        0 min,  0.104 sec
     gradient                   ...        0 min,  0.032 sec
 * total energy  :  -193.9296269 Eh     change       -0.2612695E-03 Eh
   gradient norm :     0.0078564 Eh/α   predicted    -0.2072923E-03 ( -20.66%)
   displ. norm   :     0.2744266 α      lambda       -0.4799710E-03
   maximum displ.:     0.1505598 α      in ANC's #4, #5, #9, ...

........................................................................
.............................. CYCLE   25 ..............................
........................................................................
   1   -196.8137102 -0.196814E+03  0.691E-02    0.93       0.0  T
   2   -196.8137156 -0.544361E-05  0.388E-02    0.93       1.0  T
   3   -196.8136858  0.297931E-04  0.174E-02    0.93       1.0  T
   4   -196.8137194 -0.336004E-04  0.283E-03    0.93       3.6  T
   5   -196.8137196 -0.219105E-06  0.196E-03    0.93       5.2  T
   6   -196.8137199 -0.273592E-06  0.727E-04    0.93      14.0  T
   7   -196.8137199 -0.146249E-07  0.400E-04    0.93      25.5  T
     SCC iter.                  ...        0 min,  0.104 sec
     gradient                   ...        0 min,  0.032 sec
 * total energy  :  -193.9298775 Eh     change       -0.2505265E-03 Eh
   gradient norm :     0.0156825 Eh/α   predicted    -0.2580617E-03 (   3.01%)
   displ. norm   :     0.3866380 α      lambda       -0.5137530E-03
   maximum displ.:     0.2209503 α      in ANC's #4, #5, #3, ...

........................................................................
.............................. CYCLE   26 ..............................
........................................................................
   1   -196.8121139 -0.196812E+03  0.948E-02    0.93       0.0  T
   2   -196.8121229 -0.893677E-05  0.528E-02    0.93       1.0  T
   3   -196.8121056  0.172594E-04  0.135E-02    0.93       1.0  T
   4   -196.8121270 -0.213718E-04  0.359E-03    0.93       2.8  T
   5   -196.8121274 -0.417478E-06  0.228E-03    0.93       4.5  T
   6   -196.8121277 -0.294902E-06  0.848E-04    0.93      12.0  T
   7   -196.8121277 -0.335839E-07  0.466E-04    0.93      21.9  T
     SCC iter.                  ...        0 min,  0.105 sec
     gradient                   ...        0 min,  0.032 sec
 * total energy  :  -193.9301453 Eh     change       -0.2678555E-03 Eh
   gradient norm :     0.0179897 Eh/α   predicted    -0.2952877E-03 (  10.24%)
   displ. norm   :     0.5003408 α      lambda       -0.8156244E-03
   maximum displ.:     0.2707749 α      in ANC's #4, #5, #9, ...

........................................................................
.............................. CYCLE   27 ..............................
........................................................................
   1   -196.8160670 -0.196816E+03  0.107E-01    0.93       0.0  T
   2   -196.8160804 -0.133606E-04  0.600E-02    0.93       1.0  T
   3   -196.8160624  0.179877E-04  0.149E-02    0.93       1.0  T
   4   -196.8160855 -0.230755E-04  0.444E-03    0.93       2.3  T
   5   -196.8160862 -0.743067E-06  0.285E-03    0.93       3.6  T
   6   -196.8160867 -0.491834E-06  0.112E-03    0.93       9.1  T
   7   -196.8160868 -0.783831E-07  0.572E-04    0.93      17.8  T
   8   -196.8160868 -0.686552E-08  0.394E-04    0.93      25.9  T
     SCC iter.                  ...        0 min,  0.118 sec
     gradient                   ...        0 min,  0.032 sec
 * total energy  :  -193.9306530 Eh     change       -0.5077199E-03 Eh
   gradient norm :     0.0097431 Eh/α   predicted    -0.5099112E-03 (   0.43%)
   displ. norm   :     0.4912313 α      lambda       -0.5869615E-03
   maximum displ.:     0.2842695 α      in ANC's #4, #5, #9, ...

........................................................................
.............................. CYCLE   28 ..............................
........................................................................
   1   -196.8199934 -0.196820E+03  0.734E-02    0.93       0.0  T
   2   -196.8199978 -0.447235E-05  0.417E-02    0.93       1.0  T
   3   -196.8199810  0.168445E-04  0.130E-02    0.93       1.0  T
   4   -196.8200000 -0.189935E-04  0.350E-03    0.93       2.9  T
   5   -196.8200005 -0.559751E-06  0.220E-03    0.93       4.6  T
   6   -196.8200008 -0.261949E-06  0.878E-04    0.93      11.6  T
   7   -196.8200009 -0.447294E-07  0.456E-04    0.93      22.4  T
     SCC iter.                  ...        0 min,  0.106 sec
     gradient                   ...        0 min,  0.032 sec
 * total energy  :  -193.9311617 Eh     change       -0.5086972E-03 Eh
   gradient norm :     0.0099146 Eh/α   predicted    -0.3643038E-03 ( -28.38%)
   displ. norm   :     0.6671124 α      lambda       -0.7911646E-03
   maximum displ.:     0.3957309 α      in ANC's #4, #5, #3, ...

........................................................................
.............................. CYCLE   29 ..............................
........................................................................
   1   -196.8230485 -0.196823E+03  0.106E-01    0.93       0.0  T
   2   -196.8230591 -0.106092E-04  0.602E-02    0.93       1.0  T
   3   -196.8230144  0.447727E-04  0.210E-02    0.93       1.0  T
   4   -196.8230650 -0.506023E-04  0.470E-03    0.93       2.2  T
   5   -196.8230660 -0.104926E-05  0.281E-03    0.93       3.6  T
   6   -196.8230664 -0.430749E-06  0.118E-03    0.93       8.6  T
   7   -196.8230665 -0.597930E-07  0.596E-04    0.93      17.1  T
   8   -196.8230665 -0.102112E-07  0.406E-04    0.93      25.1  T
     SCC iter.                  ...        0 min,  0.119 sec
     gradient                   ...        0 min,  0.032 sec
 * total energy  :  -193.9317939 Eh     change       -0.6321960E-03 Eh
   gradient norm :     0.0059094 Eh/α   predicted    -0.5716409E-03 (  -9.58%)
   displ. norm   :     0.7351675 α      lambda       -0.8137978E-03
   maximum displ.:     0.4372133 α      in ANC's #4, #5, #3, ...

........................................................................
.............................. CYCLE   30 ..............................
........................................................................
   1   -196.8244341 -0.196824E+03  0.103E-01    0.93       0.0  T
   2   -196.8244435 -0.940474E-05  0.585E-02    0.93       1.0  T
   3   -196.8244022  0.413420E-04  0.204E-02    0.93       1.0  T
   4   -196.8244480 -0.457995E-04  0.522E-03    0.93       2.0  T
   5   -196.8244499 -0.186880E-05  0.277E-03    0.93       3.7  T
   6   -196.8244503 -0.385064E-06  0.125E-03    0.93       8.2  T
   7   -196.8244503 -0.710514E-07  0.660E-04    0.93      15.5  T
   8   -196.8244503 -0.119779E-07  0.454E-04    0.93      22.5  T
     SCC iter.                  ...        0 min,  0.119 sec
     gradient                   ...        0 min,  0.032 sec
 * total energy  :  -193.9324830 Eh     change       -0.6891065E-03 Eh
   gradient norm :     0.0083248 Eh/α   predicted    -0.6268306E-03 (  -9.04%)
   displ. norm   :     0.7624679 α      lambda       -0.7946401E-03
   maximum displ.:     0.4485613 α      in ANC's #4, #5, #3, ...

........................................................................
.............................. CYCLE   31 ..............................
........................................................................
   1   -196.8218811 -0.196822E+03  0.958E-02    0.93       0.0  T
   2   -196.8218884 -0.732263E-05  0.550E-02    0.93       1.0  T
   3   -196.8218328  0.556216E-04  0.230E-02    0.93       1.0  T
   4   -196.8218937 -0.608791E-04  0.514E-03    0.93       2.0  T
   5   -196.8218955 -0.183443E-05  0.264E-03    0.93       3.9  T
   6   -196.8218959 -0.326448E-06  0.124E-03    0.93       8.2  T
   7   -196.8218959 -0.724604E-07  0.640E-04    0.93      15.9  T
   8   -196.8218959 -0.996673E-08  0.425E-04    0.93      24.0  T
     SCC iter.                  ...        0 min,  0.119 sec
     gradient                   ...        0 min,  0.032 sec
 * total energy  :  -193.9332470 Eh     change       -0.7639739E-03 Eh
   gradient norm :     0.0081261 Eh/α   predicted    -0.6283171E-03 ( -17.76%)
   displ. norm   :     0.8123886 α      lambda       -0.1017846E-02
   maximum displ.:     0.4796497 α      in ANC's #4, #5, #3, ...

........................................................................
.............................. CYCLE   32 ..............................
........................................................................
   1   -196.8232081 -0.196823E+03  0.114E-01    0.94       0.0  T
   2   -196.8232220 -0.138950E-04  0.654E-02    0.94       1.0  T
   3   -196.8231227  0.993355E-04  0.311E-02    0.94       1.0  T
   4   -196.8232333 -0.110609E-03  0.643E-03    0.93       1.6  T
   5   -196.8232363 -0.303250E-05  0.312E-03    0.94       3.3  T
   6   -196.8232368 -0.427854E-06  0.162E-03    0.93       6.3  T
   7   -196.8232369 -0.135928E-06  0.753E-04    0.94      13.5  T
   8   -196.8232369 -0.140451E-07  0.513E-04    0.93      19.9  T
     SCC iter.                  ...        0 min,  0.117 sec
     gradient                   ...        0 min,  0.032 sec
 * total energy  :  -193.9341707 Eh     change       -0.9237399E-03 Eh
   gradient norm :     0.0087142 Eh/α   predicted    -0.8448113E-03 (  -8.54%)
   displ. norm   :     0.8909425 α      lambda       -0.1006596E-02
   maximum displ.:     0.5254029 α      in ANC's #4, #5, #3, ...

........................................................................
.............................. CYCLE   33 ..............................
........................................................................
   1   -196.8175148 -0.196818E+03  0.119E-01    0.94       0.0  T
   2   -196.8175286 -0.137679E-04  0.681E-02    0.94       1.0  T
   3   -196.8174489  0.797014E-04  0.289E-02    0.94       1.0  T
   4   -196.8175381 -0.892192E-04  0.626E-03    0.94       1.6  T
   5   -196.8175409 -0.285393E-05  0.306E-03    0.94       3.3  T
   6   -196.8175413 -0.362723E-06  0.164E-03    0.94       6.2  T
   7   -196.8175415 -0.162711E-06  0.736E-04    0.94      13.9  T
   8   -196.8175415 -0.123320E-07  0.486E-04    0.94      21.0  T
     SCC iter.                  ...        0 min,  0.118 sec
     gradient                   ...        0 min,  0.032 sec
 * total energy  :  -193.9351099 Eh     change       -0.9391147E-03 Eh
   gradient norm :     0.0116004 Eh/α   predicted    -0.9028189E-03 (  -3.86%)
   displ. norm   :     0.8457634 α      lambda       -0.1070017E-02
   maximum displ.:     0.5008595 α      in ANC's #4, #5, #3, ...

........................................................................
.............................. CYCLE   34 ..............................
........................................................................
   1   -196.8190408 -0.196819E+03  0.122E-01    0.95       0.0  T
   2   -196.8190597 -0.188393E-04  0.701E-02    0.94       1.0  T
   3   -196.8189467  0.112997E-03  0.343E-02    0.94       1.0  T
   4   -196.8190730 -0.126310E-03  0.728E-03    0.94       1.4  T
   5   -196.8190775 -0.449490E-05  0.339E-03    0.94       3.0  T
   6   -196.8190780 -0.534746E-06  0.193E-03    0.94       5.3  T
   7   -196.8190782 -0.239798E-06  0.856E-04    0.94      11.9  T
   8   -196.8190783 -0.189106E-07  0.611E-04    0.94      16.7  T
     SCC iter.                  ...        0 min,  0.119 sec
     gradient                   ...        0 min,  0.032 sec
 * total energy  :  -193.9360744 Eh     change       -0.9645506E-03 Eh
   gradient norm :     0.0111752 Eh/α   predicted    -0.9177258E-03 (  -4.85%)
   displ. norm   :     0.8676052 α      lambda       -0.1053718E-02
   maximum displ.:     0.5210693 α      in ANC's #4, #5, #3, ...

........................................................................
.............................. CYCLE   35 ..............................
........................................................................
   1   -196.8172478 -0.196817E+03  0.117E-01    0.95       0.0  T
   2   -196.8172596 -0.118237E-04  0.671E-02    0.94       1.0  T
   3   -196.8171676  0.919732E-04  0.311E-02    0.95       1.0  T
   4   -196.8172687 -0.101018E-03  0.662E-03    0.94       1.5  T
   5   -196.8172725 -0.387561E-05  0.329E-03    0.94       3.1  T
   6   -196.8172731 -0.588072E-06  0.160E-03    0.94       6.4  T
   7   -196.8172733 -0.150181E-06  0.721E-04    0.94      14.2  T
   8   -196.8172733 -0.739072E-08  0.484E-04    0.94      21.1  T
     SCC iter.                  ...        0 min,  0.119 sec
     gradient                   ...        0 min,  0.032 sec
 * total energy  :  -193.9370591 Eh     change       -0.9846913E-03 Eh
   gradient norm :     0.0121570 Eh/α   predicted    -0.9234641E-03 (  -6.22%)
   displ. norm   :     0.7637007 α      lambda       -0.1311985E-02
   maximum displ.:     0.4520997 α      in ANC's #4, #5, #3, ...

........................................................................
.............................. CYCLE   36 ..............................
........................................................................
   1   -196.8313187 -0.196831E+03  0.134E-01    0.95       0.0  T
   2   -196.8313562 -0.374932E-04  0.784E-02    0.95       1.0  T
   3   -196.8310935  0.262722E-03  0.532E-02    0.95       1.0  T
   4   -196.8313959 -0.302455E-03  0.104E-02    0.95       1.0  T
   5   -196.8314065 -0.105668E-04  0.474E-03    0.95       2.2  T
   6   -196.8314081 -0.163482E-05  0.228E-03    0.95       4.5  T
   7   -196.8314084 -0.293954E-06  0.100E-03    0.95      10.2  T
   8   -196.8314085 -0.389952E-07  0.656E-04    0.95      15.5  T
   9   -196.8314085 -0.169401E-07  0.427E-04    0.95      23.9  T
     SCC iter.                  ...        0 min,  0.134 sec
     gradient                   ...        0 min,  0.032 sec
 * total energy  :  -193.9378940 Eh     change       -0.8349255E-03 Eh
   gradient norm :     0.0192772 Eh/α   predicted    -0.1038611E-02 (  24.40%)
   displ. norm   :     0.8258711 α      lambda       -0.1220832E-02
   maximum displ.:     0.5028166 α      in ANC's #4, #5, #3, ...

........................................................................
.............................. CYCLE   37 ..............................
........................................................................
   1   -196.8185102 -0.196819E+03  0.119E-01    0.95       0.0  T
   2   -196.8185320 -0.218700E-04  0.689E-02    0.95       1.0  T
   3   -196.8184656  0.664520E-04  0.295E-02    0.95       1.0  T
   4   -196.8185415 -0.758757E-04  0.648E-03    0.95       1.6  T
   5   -196.8185443 -0.289590E-05  0.347E-03    0.95       2.9  T
   6   -196.8185449 -0.548378E-06  0.179E-03    0.95       5.7  T
   7   -196.8185451 -0.199251E-06  0.850E-04    0.95      12.0  T
   8   -196.8185451 -0.188651E-07  0.538E-04    0.95      19.0  T
     SCC iter.                  ...        0 min,  0.117 sec
     gradient                   ...        0 min,  0.032 sec
 * total energy  :  -193.9388729 Eh     change       -0.9788990E-03 Eh
   gradient norm :     0.0135299 Eh/α   predicted    -0.1026768E-02 (   4.89%)
   displ. norm   :     0.7788551 α      lambda       -0.9202028E-03
   maximum displ.:     0.4912807 α      in ANC's #4, #5, #3, ...

........................................................................
.............................. CYCLE   38 ..............................
........................................................................
   1   -196.8131666 -0.196813E+03  0.103E-01    0.95       0.0  T
   2   -196.8131723 -0.567713E-05  0.595E-02    0.95       1.0  T
   3   -196.8130474  0.124884E-03  0.332E-02    0.95       1.0  T
   4   -196.8131843 -0.136889E-03  0.515E-03    0.95       2.0  T
   5   -196.8131858 -0.149565E-05  0.316E-03    0.95       3.2  T
   6   -196.8131863 -0.534585E-06  0.141E-03    0.95       7.3  T
   7   -196.8131864 -0.938020E-07  0.781E-04    0.95      13.1  T
   8   -196.8131864 -0.153038E-07  0.554E-04    0.95      18.4  T
     SCC iter.                  ...        0 min,  0.119 sec
     gradient                   ...        0 min,  0.032 sec
 * total energy  :  -193.9396865 Eh     change       -0.8135728E-03 Eh
   gradient norm :     0.0134996 Eh/α   predicted    -0.7392150E-03 (  -9.14%)
   displ. norm   :     0.6554914 α      lambda       -0.1244755E-02
   maximum displ.:     0.4203542 α      in ANC's #4, #5, #3, ...

........................................................................
.............................. CYCLE   39 ..............................
........................................................................
   1   -196.8225527 -0.196823E+03  0.116E-01    0.95       0.0  T
   2   -196.8225602 -0.744561E-05  0.672E-02    0.94       1.0  T
   3   -196.8222927  0.267445E-03  0.476E-02    0.96       1.0  T
   4   -196.8225935 -0.300818E-03  0.797E-03    0.94       1.3  T
   5   -196.8225976 -0.406332E-05  0.434E-03    0.95       2.4  T
   6   -196.8225985 -0.926541E-06  0.211E-03    0.94       4.8  T
   7   -196.8225986 -0.116824E-06  0.146E-03    0.95       7.0  T
   8   -196.8225987 -0.550274E-07  0.111E-03    0.95       9.2  T
   9   -196.8225987 -0.334508E-07  0.824E-04    0.95      12.4  T
  10   -196.8225988 -0.322206E-07  0.466E-04    0.95      21.9  T
     SCC iter.                  ...        0 min,  0.148 sec
     gradient                   ...        0 min,  0.032 sec
 * total energy  :  -193.9405367 Eh     change       -0.8502367E-03 Eh
   gradient norm :     0.0176481 Eh/α   predicted    -0.8898053E-03 (   4.65%)
   displ. norm   :     0.7579614 α      lambda       -0.1009926E-02
   maximum displ.:     0.4889043 α      in ANC's #4, #5, #3, ...

........................................................................
.............................. CYCLE   40 ..............................
........................................................................
   1   -196.8230932 -0.196823E+03  0.962E-02    0.95       0.0  T
   2   -196.8231036 -0.104554E-04  0.563E-02    0.94       1.0  T
   3   -196.8229527  0.150930E-03  0.365E-02    0.95       1.0  T
   4   -196.8231195 -0.166863E-03  0.569E-03    0.94       1.8  T
   5   -196.8231222 -0.266091E-05  0.303E-03    0.94       3.4  T
   6   -196.8231228 -0.621038E-06  0.145E-03    0.94       7.1  T
   7   -196.8231229 -0.971826E-07  0.721E-04    0.94      14.2  T
   8   -196.8231229 -0.221007E-07  0.449E-04    0.94      22.7  T
     SCC iter.                  ...        0 min,  0.125 sec
     gradient                   ...        0 min,  0.032 sec
 * total energy  :  -193.9413645 Eh     change       -0.8277934E-03 Eh
   gradient norm :     0.0104325 Eh/α   predicted    -0.7950748E-03 (  -3.95%)
   displ. norm   :     0.7969018 α      lambda       -0.9056352E-03
   maximum displ.:     0.5128667 α      in ANC's #4, #5, #3, ...

........................................................................
.............................. CYCLE   41 ..............................
........................................................................
   1   -196.8261038 -0.196826E+03  0.108E-01    0.95       0.0  T
   2   -196.8261108 -0.698315E-05  0.623E-02    0.94       1.0  T
   3   -196.8259791  0.131669E-03  0.338E-02    0.95       1.0  T
   4   -196.8261236 -0.144463E-03  0.536E-03    0.94       1.9  T
   5   -196.8261251 -0.154915E-05  0.327E-03    0.94       3.1  T
   6   -196.8261258 -0.623717E-06  0.129E-03    0.94       7.9  T
   7   -196.8261258 -0.680475E-07  0.732E-04    0.94      13.9  T
   8   -196.8261258 -0.175298E-07  0.496E-04    0.94      20.6  T
     SCC iter.                  ...        0 min,  0.118 sec
     gradient                   ...        0 min,  0.032 sec
 * total energy  :  -193.9421328 Eh     change       -0.7682803E-03 Eh
   gradient norm :     0.0082565 Eh/α   predicted    -0.7403865E-03 (  -3.63%)
   displ. norm   :     0.7283923 α      lambda       -0.9469206E-03
   maximum displ.:     0.4712937 α      in ANC's #4, #5, #3, ...

........................................................................
.............................. CYCLE   42 ..............................
........................................................................
   1   -196.8390217 -0.196839E+03  0.958E-02    0.95       0.0  T
   2   -196.8390546 -0.329173E-04  0.580E-02    0.94       1.0  T
   3   -196.8388891  0.165523E-03  0.421E-02    0.95       1.0  T
   4   -196.8390893 -0.200229E-03  0.941E-03    0.94       1.1  T
   5   -196.8390982 -0.893351E-05  0.395E-03    0.95       2.6  T
   6   -196.8390995 -0.125310E-05  0.198E-03    0.95       5.2  T
   7   -196.8390997 -0.180558E-06  0.112E-03    0.95       9.1  T
   8   -196.8390997 -0.411062E-07  0.775E-04    0.95      13.2  T
   9   -196.8390997 -0.178831E-07  0.569E-04    0.95      18.0  T
     SCC iter.                  ...        0 min,  0.133 sec
     gradient                   ...        0 min,  0.031 sec
 * total energy  :  -193.9427302 Eh     change       -0.5973643E-03 Eh
   gradient norm :     0.0185750 Eh/α   predicted    -0.7246675E-03 (  21.31%)
   displ. norm   :     0.7525764 α      lambda       -0.1041908E-02
   maximum displ.:     0.4895037 α      in ANC's #4, #5, #3, ...
 * RMSD in coord.:     1.3336679 α      energy gain  -0.1449235E-01 Eh

generating ANC from model Hessian ...
Using Lindh-Hessian (1995)
 Shifting diagonal of input Hessian by   1.003275750014990E-002
 Lowest  eigenvalues of input Hessian
    0.010000    0.000000    0.000000    0.000000    0.000000    0.000000
    0.000000    0.010039    0.010054    0.010102    0.010124    0.010175
    0.010250    0.010376    0.010424    0.010574    0.010626    0.010782
 Highest eigenvalues
    2.268709    2.281233    2.609473    2.614414    2.651714    2.662607
 

........................................................................
.............................. CYCLE   43 ..............................
........................................................................
   1   -196.8354436 -0.196835E+03  0.988E-02    0.95       0.0  T
   2   -196.8354804 -0.367751E-04  0.593E-02    0.94       1.0  T
   3   -196.8353836  0.968399E-04  0.303E-02    0.95       1.0  T
   4   -196.8354896 -0.105997E-03  0.964E-03    0.94       1.1  T
   5   -196.8354990 -0.944124E-05  0.336E-03    0.94       3.0  T
   6   -196.8354994 -0.402372E-06  0.207E-03    0.94       4.9  T
   7   -196.8354996 -0.152740E-06  0.133E-03    0.94       7.7  T
   8   -196.8354996 -0.690056E-07  0.919E-04    0.94      11.1  T
   9   -196.8354997 -0.233297E-07  0.651E-04    0.94      15.7  T
     SCC iter.                  ...        0 min,  0.132 sec
     gradient                   ...        0 min,  0.031 sec
 * total energy  :  -193.9434319 Eh     change       -0.7017593E-03 Eh
   gradient norm :     0.0139264 Eh/α   predicted     0.0000000E+00 (-100.00%)
   displ. norm   :     0.1174881 α      lambda       -0.3726925E-03
   maximum displ.:     0.0472830 α      in ANC's #5, #4, #20, ...

........................................................................
.............................. CYCLE   44 ..............................
........................................................................
   1   -196.8332985 -0.196833E+03  0.551E-02    0.94       0.0  T
   2   -196.8333026 -0.410480E-05  0.312E-02    0.94       1.0  T
   3   -196.8332764  0.261295E-04  0.156E-02    0.94       1.0  T
   4   -196.8333060 -0.295101E-04  0.258E-03    0.94       4.0  T
   5   -196.8333063 -0.373935E-06  0.140E-03    0.94       7.3  T
   6   -196.8333064 -0.707405E-07  0.716E-04    0.94      14.3  T
   7   -196.8333064 -0.238285E-07  0.413E-04    0.94      24.7  T
     SCC iter.                  ...        0 min,  0.105 sec
     gradient                   ...        0 min,  0.032 sec
 * total energy  :  -193.9436400 Eh     change       -0.2080644E-03 Eh
   gradient norm :     0.0057608 Eh/α   predicted    -0.1889263E-03 (  -9.20%)
   displ. norm   :     0.2917759 α      lambda       -0.6231452E-03
   maximum displ.:     0.1159603 α      in ANC's #5, #1, #10, ...

........................................................................
.............................. CYCLE   45 ..............................
........................................................................
   1   -196.8291562 -0.196829E+03  0.135E-01    0.94       0.0  T
   2   -196.8291782 -0.219558E-04  0.758E-02    0.95       1.0  T
   3   -196.8290770  0.101160E-03  0.308E-02    0.94       1.0  T
   4   -196.8291928 -0.115748E-03  0.567E-03    0.95       1.8  T
   5   -196.8291945 -0.169257E-05  0.307E-03    0.95       3.3  T
   6   -196.8291948 -0.292367E-06  0.159E-03    0.95       6.4  T
   7   -196.8291949 -0.120427E-06  0.985E-04    0.95      10.4  T
   8   -196.8291949 -0.292923E-07  0.742E-04    0.95      13.7  T
     SCC iter.                  ...        0 min,  0.118 sec
     gradient                   ...        0 min,  0.032 sec
 * total energy  :  -193.9435863 Eh     change        0.5368032E-04 Eh
   gradient norm :     0.0246113 Eh/α   predicted    -0.3381096E-03 (-729.86%)
   displ. norm   :     0.1228525 α      lambda       -0.7273179E-03
   maximum displ.:     0.0483254 α      in ANC's #9, #4, #8, ...

........................................................................
.............................. CYCLE   46 ..............................
........................................................................
   1   -196.8319125 -0.196832E+03  0.107E-01    0.95       0.0  T
   2   -196.8319255 -0.129502E-04  0.592E-02    0.95       1.0  T
   3   -196.8319166  0.886858E-05  0.111E-02    0.95       1.0  T
   4   -196.8319310 -0.143535E-04  0.242E-03    0.95       4.2  T
   5   -196.8319311 -0.115785E-06  0.134E-03    0.95       7.6  T
   6   -196.8319312 -0.787753E-07  0.547E-04    0.95      18.6  T
   7   -196.8319312 -0.151977E-07  0.269E-04    0.95      38.0  T
     SCC iter.                  ...        0 min,  0.104 sec
     gradient                   ...        0 min,  0.032 sec
 * total energy  :  -193.9439520 Eh     change       -0.3657110E-03 Eh
   gradient norm :     0.0100426 Eh/α   predicted    -0.3691477E-03 (   0.94%)
   displ. norm   :     0.1787768 α      lambda       -0.5913054E-03
   maximum displ.:     0.0696063 α      in ANC's #5, #4, #1, ...

........................................................................
.............................. CYCLE   47 ..............................
........................................................................
   1   -196.8326884 -0.196833E+03  0.128E-01    0.95       0.0  T
   2   -196.8327068 -0.184100E-04  0.711E-02    0.95       1.0  T
   3   -196.8326647  0.421530E-04  0.209E-02    0.95       1.0  T
   4   -196.8327167 -0.520203E-04  0.384E-03    0.95       2.7  T
   5   -196.8327173 -0.626517E-06  0.219E-03    0.95       4.7  T
   6   -196.8327175 -0.149127E-06  0.105E-03    0.95       9.7  T
   7   -196.8327176 -0.682242E-07  0.509E-04    0.95      20.1  T
   8   -196.8327176 -0.109343E-07  0.362E-04    0.95      28.2  T
     SCC iter.                  ...        0 min,  0.119 sec
     gradient                   ...        0 min,  0.032 sec
 * total energy  :  -193.9439151 Eh     change        0.3692405E-04 Eh
   gradient norm :     0.0139460 Eh/α   predicted    -0.3051024E-03 (-926.30%)
   displ. norm   :     0.1957561 α      lambda       -0.6786797E-03
   maximum displ.:     0.0979309 α      in ANC's #10, #5, #8, ...

........................................................................
.............................. CYCLE   48 ..............................
........................................................................
   1   -196.8330831 -0.196833E+03  0.108E-01    0.95       0.0  T
   2   -196.8330955 -0.124030E-04  0.599E-02    0.95       1.0  T
   3   -196.8330913  0.422903E-05  0.972E-03    0.95       1.1  T
   4   -196.8331007 -0.945554E-05  0.256E-03    0.95       4.0  T
   5   -196.8331008 -0.359639E-07  0.139E-03    0.95       7.3  T
   6   -196.8331010 -0.184566E-06  0.407E-04    0.95      25.1  T
   7   -196.8331010 -0.834856E-08  0.234E-04    0.95      43.6  T
     SCC iter.                  ...        0 min,  0.104 sec
     gradient                   ...        0 min,  0.032 sec
 * total energy  :  -193.9441913 Eh     change       -0.2762300E-03 Eh
   gradient norm :     0.0107222 Eh/α   predicted    -0.3523437E-03 (  27.55%)
   displ. norm   :     0.3048491 α      lambda       -0.8060164E-03
   maximum displ.:     0.1283373 α      in ANC's #5, #1, #4, ...

........................................................................
.............................. CYCLE   49 ..............................
........................................................................
   1   -196.8295505 -0.196830E+03  0.154E-01    0.95       0.0  T
   2   -196.8295758 -0.253404E-04  0.855E-02    0.95       1.0  T
   3   -196.8295351  0.407704E-04  0.224E-02    0.95       1.0  T
   4   -196.8295885 -0.534245E-04  0.442E-03    0.95       2.3  T
   5   -196.8295890 -0.485182E-06  0.273E-03    0.95       3.7  T
   6   -196.8295894 -0.440959E-06  0.102E-03    0.95      10.1  T
   7   -196.8295895 -0.668494E-07  0.528E-04    0.95      19.3  T
   8   -196.8295895 -0.539669E-08  0.398E-04    0.95      25.7  T
     SCC iter.                  ...        0 min,  0.119 sec
     gradient                   ...        0 min,  0.032 sec
 * total energy  :  -193.9442839 Eh     change       -0.9260916E-04 Eh
   gradient norm :     0.0149558 Eh/α   predicted    -0.4404619E-03 ( 375.61%)
   displ. norm   :     0.1838525 α      lambda       -0.5611014E-03
   maximum displ.:     0.0817055 α      in ANC's #5, #4, #1, ...

........................................................................
.............................. CYCLE   50 ..............................
........................................................................
   1   -196.8324448 -0.196832E+03  0.729E-02    0.95       0.0  T
   2   -196.8324505 -0.566023E-05  0.407E-02    0.95       1.0  T
   3   -196.8324361  0.144031E-04  0.122E-02    0.95       1.0  T
   4   -196.8324536 -0.174922E-04  0.227E-03    0.95       4.5  T
   5   -196.8324538 -0.205743E-06  0.133E-03    0.95       7.7  T
   6   -196.8324538 -0.725004E-07  0.576E-04    0.95      17.7  T
   7   -196.8324539 -0.234717E-07  0.253E-04    0.95      40.4  T
     SCC iter.                  ...        0 min,  0.106 sec
     gradient                   ...        0 min,  0.032 sec
 * total energy  :  -193.9446725 Eh     change       -0.3885613E-03 Eh
   gradient norm :     0.0054722 Eh/α   predicted    -0.2900306E-03 ( -25.36%)
   displ. norm   :     0.4107482 α      lambda       -0.3817691E-03
   maximum displ.:     0.1920149 α      in ANC's #5, #4, #1, ...

........................................................................
.............................. CYCLE   51 ..............................
........................................................................
   1   -196.8321744 -0.196832E+03  0.674E-02    0.95       0.0  T
   2   -196.8321774 -0.299580E-05  0.386E-02    0.95       1.0  T
   3   -196.8321644  0.129267E-04  0.111E-02    0.95       1.0  T
   4   -196.8321790 -0.146165E-04  0.267E-03    0.95       3.8  T
   5   -196.8321793 -0.280151E-06  0.166E-03    0.95       6.2  T
   6   -196.8321795 -0.158210E-06  0.635E-04    0.95      16.1  T
   7   -196.8321795 -0.244999E-07  0.334E-04    0.95      30.6  T
     SCC iter.                  ...        0 min,  0.105 sec
     gradient                   ...        0 min,  0.032 sec
 * total energy  :  -193.9449838 Eh     change       -0.3113102E-03 Eh
   gradient norm :     0.0047503 Eh/α   predicted    -0.2230856E-03 ( -28.34%)
   displ. norm   :     0.6053822 α      lambda       -0.4541212E-03
   maximum displ.:     0.2861908 α      in ANC's #5, #4, #1, ...

........................................................................
.............................. CYCLE   52 ..............................
........................................................................
   1   -196.8326808 -0.196833E+03  0.872E-02    0.95       0.0  T
   2   -196.8326848 -0.401895E-05  0.502E-02    0.95       1.0  T
   3   -196.8326628  0.220019E-04  0.140E-02    0.95       1.0  T
   4   -196.8326872 -0.243984E-04  0.343E-03    0.95       3.0  T
   5   -196.8326877 -0.456088E-06  0.219E-03    0.95       4.7  T
   6   -196.8326880 -0.317371E-06  0.767E-04    0.95      13.3  T
   7   -196.8326880 -0.271918E-07  0.448E-04    0.95      22.8  T
     SCC iter.                  ...        0 min,  0.105 sec
     gradient                   ...        0 min,  0.032 sec
 * total energy  :  -193.9453721 Eh     change       -0.3882828E-03 Eh
   gradient norm :     0.0071852 Eh/α   predicted    -0.3102771E-03 ( -20.09%)
   displ. norm   :     0.7059192 α      lambda       -0.5611627E-03
   maximum displ.:     0.3398910 α      in ANC's #5, #1, #4, ...

........................................................................
.............................. CYCLE   53 ..............................
........................................................................
   1   -196.8334694 -0.196833E+03  0.107E-01    0.96       0.0  T
   2   -196.8334772 -0.776839E-05  0.612E-02    0.95       1.0  T
   3   -196.8334495  0.277095E-04  0.163E-02    0.96       1.0  T
   4   -196.8334815 -0.319683E-04  0.401E-03    0.95       2.5  T
   5   -196.8334818 -0.344261E-06  0.277E-03    0.95       3.7  T
   6   -196.8334824 -0.580726E-06  0.920E-04    0.95      11.1  T
   7   -196.8334824 -0.322927E-07  0.574E-04    0.95      17.8  T
     SCC iter.                  ...        0 min,  0.107 sec
     gradient                   ...        0 min,  0.032 sec
 * total energy  :  -193.9458416 Eh     change       -0.4695052E-03 Eh
   gradient norm :     0.0080057 Eh/α   predicted    -0.4203985E-03 ( -10.46%)
   displ. norm   :     0.7100270 α      lambda       -0.6131602E-03
   maximum displ.:     0.3522306 α      in ANC's #5, #1, #4, ...

........................................................................
.............................. CYCLE   54 ..............................
........................................................................
   1   -196.8349456 -0.196835E+03  0.102E-01    0.96       0.0  T
   2   -196.8349525 -0.697214E-05  0.582E-02    0.95       1.0  T
   3   -196.8349272  0.253347E-04  0.165E-02    0.96       1.0  T
   4   -196.8349570 -0.297589E-04  0.372E-03    0.95       2.7  T
   5   -196.8349569  0.239932E-07  0.263E-03    0.96       3.9  T
   6   -196.8349575 -0.597443E-06  0.911E-04    0.95      11.2  T
   7   -196.8349576 -0.222980E-07  0.659E-04    0.95      15.5  T
     SCC iter.                  ...        0 min,  0.103 sec
     gradient                   ...        0 min,  0.031 sec
 * total energy  :  -193.9463697 Eh     change       -0.5280940E-03 Eh
   gradient norm :     0.0064213 Eh/α   predicted    -0.4611256E-03 ( -12.68%)
   displ. norm   :     0.7830412 α      lambda       -0.5586250E-03
   maximum displ.:     0.3921482 α      in ANC's #5, #4, #1, ...

........................................................................
.............................. CYCLE   55 ..............................
........................................................................
   1   -196.8344694 -0.196834E+03  0.100E-01    0.96       0.0  T
   2   -196.8344751 -0.570843E-05  0.579E-02    0.96       1.0  T
   3   -196.8344531  0.219998E-04  0.155E-02    0.96       1.0  T
   4   -196.8344784 -0.253793E-04  0.347E-03    0.96       2.9  T
   5   -196.8344784  0.256796E-07  0.247E-03    0.96       4.1  T
   6   -196.8344790 -0.577210E-06  0.819E-04    0.96      12.5  T
   7   -196.8344790 -0.323464E-07  0.470E-04    0.96      21.7  T
     SCC iter.                  ...        0 min,  0.103 sec
     gradient                   ...        0 min,  0.031 sec
 * total energy  :  -193.9468606 Eh     change       -0.4909404E-03 Eh
   gradient norm :     0.0044308 Eh/α   predicted    -0.4505610E-03 (  -8.22%)
   displ. norm   :     0.7834586 α      lambda       -0.4915410E-03
   maximum displ.:     0.4031422 α      in ANC's #5, #4, #1, ...

........................................................................
.............................. CYCLE   56 ..............................
........................................................................
   1   -196.8348586 -0.196835E+03  0.105E-01    0.96       0.0  T
   2   -196.8348663 -0.765371E-05  0.599E-02    0.96       1.0  T
   3   -196.8348483  0.179898E-04  0.145E-02    0.96       1.0  T
   4   -196.8348703 -0.219861E-04  0.359E-03    0.96       2.8  T
   5   -196.8348701  0.184270E-06  0.268E-03    0.96       3.8  T
   6   -196.8348708 -0.718081E-06  0.833E-04    0.96      12.2  T
   7   -196.8348709 -0.314352E-07  0.507E-04    0.96      20.1  T
     SCC iter.                  ...        0 min,  0.099 sec
     gradient                   ...        0 min,  0.031 sec
 * total energy  :  -193.9472984 Eh     change       -0.4377412E-03 Eh
   gradient norm :     0.0052956 Eh/α   predicted    -0.3966139E-03 (  -9.40%)
   displ. norm   :     0.7844963 α      lambda       -0.4463865E-03
   maximum displ.:     0.4079092 α      in ANC's #5, #4, #1, ...

........................................................................
.............................. CYCLE   57 ..............................
........................................................................
   1   -196.8354674 -0.196835E+03  0.924E-02    0.96       0.0  T
   2   -196.8354721 -0.469390E-05  0.533E-02    0.96       1.0  T
   3   -196.8354500  0.221106E-04  0.151E-02    0.96       1.0  T
[...]
    38   6 C        3.013     0.015    27.649     8.625
    39   6 C        3.823    -0.052    21.482     6.596
    40   6 C        3.755    -0.103    22.523     6.767
    41   6 C        3.102     0.079    26.107     8.373
    42   6 C        3.128    -0.057    29.209     8.849
    43  17 Cl       0.946    -0.166   104.367    15.629
    44   6 C        3.111    -0.005    27.990     8.667
    45   6 C        3.144     0.003    27.694     8.610
    46  16 S        2.351     0.063   138.521    19.809
    47  16 S        2.199    -0.025   142.083    20.062
    48   6 C        3.193     0.027    26.892     8.456
    49   6 C        3.055    -0.046    29.090     8.845
    50   6 C        2.998     0.032    27.274     8.567
    51  16 S        2.365     0.002   140.974    19.984
    52   6 C        3.138     0.018    27.377     8.563
    53   6 C        2.961    -0.011    28.294     8.725
    54   6 C        3.000    -0.031    28.756     8.797
    55   6 C        2.861     0.228    23.228     7.900
    56   8 O        0.856    -0.374    21.161     6.167
    57   6 C        3.035    -0.020    28.472     8.752
    58   6 C        2.913    -0.016    28.413     8.741
    59   6 C        2.987     0.014    27.686     8.631
    60   6 C        2.922    -0.029    28.729     8.790
    61   6 C        2.913    -0.042    29.044     8.837
    62   6 C        2.782     0.177    24.198     8.057
    63   9 F        0.787    -0.213    11.374     3.984
    64   6 C        2.917    -0.053    29.306     8.877
    65   6 C        2.990     0.021    27.519     8.605
    66   6 C        2.915    -0.031    28.771     8.796
    67   6 C        3.022     0.006    27.868     8.659
    68   6 C        3.015     0.030    27.321     8.574
    69   6 C        2.947     0.006    27.888     8.661
    70   6 C        1.944     0.121    28.103     8.561
    71   7 N        0.911    -0.234    26.129     7.393
    72   6 C        1.946     0.124    28.042     8.552
    73   7 N        0.911    -0.230    26.039     7.380
    74   1 H        0.925     0.075     2.034     2.230
    75   1 H        0.926     0.093     1.847     2.125
    76   1 H        0.926     0.093     1.851     2.127
    77   1 H        0.926     0.067     2.119     2.276
    78   1 H        0.926     0.063     2.166     2.301
    79   1 H        0.924     0.060     2.194     2.316
    80   1 H        0.924     0.059     2.212     2.326
    81   1 H        0.925     0.045     2.386     2.416
    82   1 H        0.925     0.048     2.342     2.393
    83   1 H        0.925     0.044     2.394     2.420
    84   1 H        0.924     0.058     2.228     2.334
    85   1 H        0.924     0.051     2.312     2.378
    86   1 H        0.925     0.055     2.259     2.350
    87   1 H        0.925     0.043     2.414     2.429
    88   1 H        0.925     0.042     2.425     2.435
    89   1 H        0.926     0.058     2.226     2.333
    90   1 H        0.926     0.109     1.708     2.044
    91   1 H        0.925     0.071     2.074     2.252
    92   1 H        0.926     0.065     2.143     2.289
    93   1 H        0.926     0.057     2.229     2.335
    94   1 H        0.926     0.068     2.108     2.270
    95   1 H        0.926     0.072     2.069     2.249
    96   1 H        0.926     0.062     2.174     2.306

 Mol. C6AA /au·bohr⁶  :     214555.149903
 Mol. C8AA /au·bohr⁸  :    6478499.463310
 Mol. α(0) /au        :        743.579356


Wiberg/Mayer (AO) data.
largest (>0.10) Wiberg bond orders for each atom

 ---------------------------------------------------------------------------
     #   Z sym  total        # sym  WBO       # sym  WBO       # sym  WBO
 ---------------------------------------------------------------------------
     1   6 C    3.947 --     2 C    1.509    19 C    1.289    74 H    0.938
     2   6 C    3.959 --     1 C    1.509    13 C    1.130     3 C    1.063
     3   6 C    3.922 --     4 O    1.717     2 C    1.063     5 C    1.021
     4   8 O    2.132 --     3 C    1.717    46 S    0.135
     5   6 C    3.975 --     6 C    1.421    12 C    1.291     3 C    1.021
     6   6 C    3.975 --     5 C    1.421     7 C    1.385    75 H    0.959
     7   6 C    3.915 --     6 C    1.385     9 C    1.334     8 Cl   1.019
     8  17 Cl   1.169 --     7 C    1.019
     9   6 C    3.888 --    11 C    1.393     7 C    1.334    10 F    0.992
    10   9 F    1.132 --     9 C    0.992
    11   6 C    3.972 --    12 C    1.396     9 C    1.393    76 H    0.953
    12   6 C    3.981 --    11 C    1.396     5 C    1.291    13 C    1.086
    13   6 C    3.974 --    14 C    1.499     2 C    1.130    12 C    1.086
    14   6 C    3.944 --    13 C    1.499    15 C    1.095    17 C    1.091
    15   6 C    3.947 --    16 N    2.760    14 C    1.095
    16   7 N    2.970 --    15 C    2.760
    17   6 C    3.947 --    18 N    2.772    14 C    1.091
    18   7 N    2.974 --    17 C    2.772
    19   6 C    3.940 --    20 C    1.372     1 C    1.289    46 S    1.108
    20   6 C    3.961 --    21 C    1.382    19 C    1.372    77 H    0.961
                            46 S    0.106
    21   6 C    3.937 --    20 C    1.382    45 C    1.310    22 S    1.082
    22  16 S    2.474 --    23 C    1.088    21 C    1.082
    23   6 C    3.942 --    24 C    1.376    44 C    1.249    22 S    1.088
    24   6 C    3.962 --    23 C    1.376    33 C    1.281    25 C    1.070
    25   6 C    3.949 --    26 C    1.556    32 S    1.130    24 C    1.070
                            29 C    0.101
    26   6 C    3.973 --    25 C    1.556    27 C    1.255    78 H    0.960
    27   6 C    3.906 --    29 C    1.537    26 C    1.255    28 Cl   0.970
    28  17 Cl   1.113 --    27 C    0.970
    29   6 C    3.938 --    27 C    1.537    32 S    1.160    30 C    1.028
                            25 C    0.101
    30   6 C    3.991 --    29 C    1.028    31 C    0.995    80 H    0.968
                            79 H    0.965
    31   6 C    3.992 --    30 C    0.995    81 H    0.988    83 H    0.987
                            82 H    0.985
    32  16 S    2.614 --    29 C    1.160    25 C    1.130
    33   6 C    3.959 --    24 C    1.281    34 C    1.240    52 C    1.212
    34   6 C    3.944 --    35 C    1.388    33 C    1.240    47 S    1.096
    35   6 C    3.956 --    34 C    1.388    44 C    1.281    36 C    1.051
    36   6 C    3.948 --    42 C    1.563    37 S    1.134    35 C    1.051
                            38 C    0.104
    37  16 S    2.602 --    38 C    1.161    36 C    1.134
    38   6 C    3.943 --    41 C    1.541    37 S    1.161    39 C    1.027
                            36 C    0.104
    39   6 C    3.993 --    38 C    1.027    40 C    0.993    85 H    0.971
                            84 H    0.965
    40   6 C    3.992 --    39 C    0.993    88 H    0.988    87 H    0.985
                            86 H    0.984
    41   6 C    3.907 --    38 C    1.541    42 C    1.250    43 Cl   0.972
    42   6 C    3.980 --    36 C    1.563    41 C    1.250    89 H    0.962
    43  17 Cl   1.115 --    41 C    0.972
    44   6 C    3.962 --    35 C    1.281    23 C    1.249    45 C    1.206
    45   6 C    3.937 --    21 C    1.310    44 C    1.206    46 S    1.191
    46  16 S    2.801 --    45 C    1.191    19 C    1.108     4 O    0.135
                            20 C    0.106
    47  16 S    2.492 --    34 C    1.096    48 C    1.090
    48   6 C    3.937 --    49 C    1.347    52 C    1.327    47 S    1.090
    49   6 C    3.950 --    50 C    1.423    48 C    1.347    90 H    0.938
    50   6 C    3.930 --    49 C    1.423    53 C    1.252    51 S    1.086
    51  16 S    2.616 --    52 C    1.170    50 C    1.086
    52   6 C    3.925 --    48 C    1.327    33 C    1.212    51 S    1.170
    53   6 C    3.952 --    54 C    1.547    50 C    1.252    91 H    0.941
    54   6 C    3.957 --    53 C    1.547    68 C    1.126    55 C    1.030
    55   6 C    3.923 --    56 O    1.755    54 C    1.030    57 C    1.027
    56   8 O    2.051 --    55 C    1.755
    57   6 C    3.978 --    58 C    1.518    67 C    1.202    55 C    1.027
    58   6 C    3.980 --    57 C    1.518    59 C    1.275    92 H    0.963
    59   6 C    3.980 --    60 C    1.285    58 C    1.275    65 C    1.239
    60   6 C    3.981 --    61 C    1.549    59 C    1.285    93 H    0.966
                            64 C    0.111
    61   6 C    3.975 --    60 C    1.549    62 C    1.289    94 H    0.966
    62   6 C    3.881 --    64 C    1.491    61 C    1.289    63 F    0.970
    63   9 F    1.100 --    62 C    0.970
    64   6 C    3.977 --    62 C    1.491    65 C    1.289    95 H    0.963
                            60 C    0.111
    65   6 C    3.984 --    64 C    1.289    66 C    1.275    59 C    1.239
    66   6 C    3.972 --    67 C    1.500    65 C    1.275    96 H    0.957
    67   6 C    3.984 --    66 C    1.500    57 C    1.202    68 C    1.090
    68   6 C    3.975 --    69 C    1.496    54 C    1.126    67 C    1.090
    69   6 C    3.936 --    68 C    1.496    70 C    1.095    72 C    1.093
    70   6 C    3.946 --    71 N    2.757    69 C    1.095
    71   7 N    2.968 --    70 C    2.757
    72   6 C    3.946 --    73 N    2.767    69 C    1.093
    73   7 N    2.974 --    72 C    2.767
    74   1 H    0.993 --     1 C    0.938
    75   1 H    0.991 --     6 C    0.959
    76   1 H    0.991 --    11 C    0.953
    77   1 H    0.995 --    20 C    0.961
    78   1 H    0.996 --    26 C    0.960
    79   1 H    0.995 --    30 C    0.965
    80   1 H    0.996 --    30 C    0.968
    81   1 H    0.998 --    31 C    0.988
    82   1 H    0.997 --    31 C    0.985
    83   1 H    0.998 --    31 C    0.987
    84   1 H    0.996 --    39 C    0.965
    85   1 H    0.997 --    39 C    0.971
    86   1 H    0.997 --    40 C    0.984
    87   1 H    0.997 --    40 C    0.985
    88   1 H    0.998 --    40 C    0.988
    89   1 H    0.996 --    42 C    0.962
    90   1 H    0.988 --    49 C    0.938
    91   1 H    0.994 --    53 C    0.941
    92   1 H    0.995 --    58 C    0.963
    93   1 H    0.996 --    60 C    0.966
    94   1 H    0.995 --    61 C    0.966
    95   1 H    0.994 --    64 C    0.963
    96   1 H    0.995 --    66 C    0.957
 ---------------------------------------------------------------------------

Topologies differ in bond orders
Writing corrected topology to xtbtopo.mol

molecular dipole:
                 x           y           z       tot (Debye)
 q only:        0.525       1.809      -0.341
   full:        0.411       1.911       0.859       5.428
molecular quadrupole (traceless):
                xx          xy          yy          xz          yz          zz
 q only:      -56.035     -28.304      31.069      70.705      12.296      24.966
  q+dip:      -56.316     -40.673      31.534      63.495      21.193      24.782
   full:      -59.691     -45.354      29.989      71.223      13.100      29.703

           -------------------------------------------------
          |                Geometry Summary                 |
           -------------------------------------------------

      molecular mass/u    :     1120.5538139
   center of mass at/Å    :       -0.5426098      -0.0424237       0.2801799
  moments of inertia/u·Å² :        0.1252723E+05   0.6068605E+05   0.7159809E+05
rotational constants/cm⁻¹ :        0.1345679E-02   0.2777843E-03   0.2354481E-03

 * 91 selected distances

     #   Z          #   Z                                           value/Å
     1   6 C        2   6 C                                       1.3711927
     3   6 C        4   8 O                                       1.2168540
     5   6 C        6   6 C                                       1.3800775
     6   6 C        7   6 C                                       1.3896982
     7   6 C        8  17 Cl                                      1.7184858
     7   6 C        9   6 C                                       1.3975703
     9   6 C       10   9 F                                       1.3372624
     9   6 C       11   6 C                                       1.3864924
     5   6 C       12   6 C                                       1.4054735
    11   6 C       12   6 C                                       1.3864144
    13   6 C       14   6 C                                       1.3693497
    15   6 C       16   7 N                                       1.1484196
    17   6 C       18   7 N                                       1.1472475
     1   6 C       19   6 C                                       1.4048101
    19   6 C       20   6 C                                       1.3969509
    20   6 C       21   6 C                                       1.3846327
    21   6 C       22  16 S                                       1.7426092
    22  16 S       23   6 C                                       1.7556374
    23   6 C       24   6 C                                       1.3888871
    25   6 C       26   6 C                                       1.3637047
    26   6 C       27   6 C                                       1.4120771
    27   6 C       28  17 Cl                                      1.7201551
    27   6 C       29   6 C                                       1.3650571
    29   6 C       30   6 C                                       1.4879011
    30   6 C       31   6 C                                       1.5306787
    25   6 C       32  16 S                                       1.7393400
    29   6 C       32  16 S                                       1.7285961
    24   6 C       33   6 C                                       1.4070543
    33   6 C       34   6 C                                       1.4218242
    34   6 C       35   6 C                                       1.3842836
    36   6 C       37  16 S                                       1.7364387
    37  16 S       38   6 C                                       1.7289085
    38   6 C       39   6 C                                       1.4876583
    39   6 C       40   6 C                                       1.5319849
    38   6 C       41   6 C                                       1.3639104
    36   6 C       42   6 C                                       1.3624171
    41   6 C       42   6 C                                       1.4117291
    41   6 C       43  17 Cl                                      1.7157177
    23   6 C       44   6 C                                       1.4163478
    35   6 C       44   6 C                                       1.4030126
    21   6 C       45   6 C                                       1.3989068
    44   6 C       45   6 C                                       1.4152683
    19   6 C       46  16 S                                       1.7567323 (max)
    45   6 C       46  16 S                                       1.7139199
    34   6 C       47  16 S                                       1.7503252
    47  16 S       48   6 C                                       1.7366101
    48   6 C       49   6 C                                       1.3906847
    49   6 C       50   6 C                                       1.3839037
    33   6 C       52   6 C                                       1.4168613
    48   6 C       52   6 C                                       1.3990763
    51  16 S       52   6 C                                       1.7148669
    50   6 C       53   6 C                                       1.4110641
    53   6 C       54   6 C                                       1.3663928
    55   6 C       56   8 O                                       1.2131764
    57   6 C       58   6 C                                       1.3653752
    58   6 C       59   6 C                                       1.4119843
    59   6 C       60   6 C                                       1.4100443
    60   6 C       61   6 C                                       1.3670144
    61   6 C       62   6 C                                       1.4018513
    62   6 C       64   6 C                                       1.3671892
    59   6 C       65   6 C                                       1.4255666
    64   6 C       65   6 C                                       1.4085981
    65   6 C       66   6 C                                       1.4142075
    57   6 C       67   6 C                                       1.4221273
    66   6 C       67   6 C                                       1.3699768
    68   6 C       69   6 C                                       1.3702114
    70   6 C       71   7 N                                       1.1486687
    72   6 C       73   7 N                                       1.1478469
     1   6 C       74   1 H                                       1.0832820
     6   6 C       75   1 H                                       1.0783864
    11   6 C       76   1 H                                       1.0776021
    20   6 C       77   1 H                                       1.0748901
    26   6 C       78   1 H                                       1.0743776
    30   6 C       79   1 H                                       1.0916675
    30   6 C       80   1 H                                       1.0915769
    31   6 C       81   1 H                                       1.0873495
    31   6 C       82   1 H                                       1.0865101
    31   6 C       83   1 H                                       1.0875679
    39   6 C       84   1 H                                       1.0919497
    39   6 C       85   1 H                                       1.0914463
    40   6 C       86   1 H                                       1.0876688
    40   6 C       87   1 H                                       1.0869169
    40   6 C       88   1 H                                       1.0876497
    42   6 C       89   1 H                                       1.0744686
    49   6 C       90   1 H                                       1.0739644 (min)
    53   6 C       91   1 H                                       1.0840673
    58   6 C       92   1 H                                       1.0797770
    60   6 C       93   1 H                                       1.0796068
    61   6 C       94   1 H                                       1.0784770
    64   6 C       95   1 H                                       1.0788182
    66   6 C       96   1 H                                       1.0779041

 * 7 distinct bonds (by element types)

   Z      Z             #   av. dist./Å        max./Å        min./Å
   1 H    6 C          23     1.0828663     1.0919497     1.0739644
   6 C    6 C          47     1.4027127     1.5319849     1.3624171
   6 C    7 N           4     1.1480457     1.1486687     1.1472475
   6 C    8 O           2     1.2150152     1.2168540     1.2131764
   6 C    9 F           1     1.3372624     1.3372624     1.3372624
   6 C   16 S          11     1.7367258     1.7567323     1.7139199
   6 C   17 Cl          3     1.7181195     1.7201551     1.7157177


optimized geometry written to: xtbopt.mol


           -------------------------------------------------
          | TOTAL ENERGY             -193.953926947874 Eh   |
          | GRADIENT NORM               0.000634342916 Eh/α |
          | HOMO-LUMO GAP               0.960926975158 eV   |
           -------------------------------------------------

------------------------------------------------------------------------
 * finished run on 2022/02/02 at 01:18:09.494     
------------------------------------------------------------------------
 total:
 * wall-time:     0 d,  0 h,  0 min, 23.198 sec
 *  cpu-time:     0 d,  0 h,  3 min,  5.440 sec
 * ratio c/w:     7.994 speedup
 SCF:
 * wall-time:     0 d,  0 h,  0 min,  0.298 sec
 *  cpu-time:     0 d,  0 h,  0 min,  2.373 sec
 * ratio c/w:     7.964 speedup
 ANC optimizer:
 * wall-time:     0 d,  0 h,  0 min, 22.834 sec
 *  cpu-time:     0 d,  0 h,  3 min,  2.618 sec
 * ratio c/w:     7.998 speedup

