      -----------------------------------------------------------      
     |                   =====================                   |     
     |                           x T B                           |     
     |                   =====================                   |     
     |                         S. Grimme                         |     
     |          Mulliken Center for Theoretical Chemistry        |     
     |                    University of Bonn                     |     
      -----------------------------------------------------------      

   * xtb version 6.4.1 (unknown) compiled by 'oda6@login1.crc.pitt.edu' on 2021-06-25

   xtb is free software: you can redistribute it and/or modify it under
   the terms of the GNU Lesser General Public License as published by
   the Free Software Foundation, either version 3 of the License, or
   (at your option) any later version.
   
   xtb is distributed in the hope that it will be useful,
   but WITHOUT ANY WARRANTY; without even the implied warranty of
   MERCHANTABILITY or FITNESS FOR A PARTICULAR PURPOSE.  See the
   GNU Lesser General Public License for more details.
   
   Cite this work as:
   * C. Bannwarth, E. Caldeweyher, S. Ehlert, A. Hansen, P. Pracht,
     J. Seibert, S. Spicher, S. Grimme, WIREs Comput. Mol. Sci., 2020, 11,
     e01493. DOI: 10.1002/wcms.1493
   
   for GFN2-xTB:
   * C. Bannwarth, S. Ehlert and S. Grimme., J. Chem. Theory Comput., 2019,
     15, 1652-1671. DOI: 10.1021/acs.jctc.8b01176
   for GFN1-xTB:
   * S. Grimme, C. Bannwarth, P. Shushkov, J. Chem. Theory Comput., 2017,
     13, 1989-2009. DOI: 10.1021/acs.jctc.7b00118
   for GFN0-xTB:
   * P. Pracht, E. Caldeweyher, S. Ehlert, S. Grimme, ChemRxiv, 2019, preprint.
     DOI: 10.26434/chemrxiv.8326202.v1
   for GFN-FF:
   * S. Spicher and S. Grimme, Angew. Chem. Int. Ed., 2020, 59, 15665-15673.
     DOI: 10.1002/anie.202004239
   
   for DFT-D4:
   * E. Caldeweyher, C. Bannwarth and S. Grimme, J. Chem. Phys., 2017,
     147, 034112. DOI: 10.1063/1.4993215
   * E. Caldeweyher, S. Ehlert, A. Hansen, H. Neugebauer, S. Spicher,
     C. Bannwarth and S. Grimme, J. Chem. Phys., 2019, 150, 154122.
     DOI: 10.1063/1.5090222
   * E. Caldeweyher, J.-M. Mewes, S. Ehlert and S. Grimme, Phys. Chem. Chem. Phys.
     2020, 22, 8499-8512. DOI: 10.1039/D0CP00502A
   
   for sTDA-xTB:
   * S. Grimme and C. Bannwarth, J. Chem. Phys., 2016, 145, 054103.
     DOI: 10.1063/1.4959605
   
   in the mass-spec context:
   * V. Asgeirsson, C. Bauer and S. Grimme, Chem. Sci., 2017, 8, 4879.
     DOI: 10.1039/c7sc00601b
   * J. Koopman and S. Grimme, ACS Omega 2019, 4, 12, 15120-15133.
     DOI: 10.1021/acsomega.9b02011
   
   for metadynamics refer to:
   * S. Grimme, J. Chem. Theory Comput., 2019, 155, 2847-2862
     DOI: 10.1021/acs.jctc.9b00143
   
   for SPH calculations refer to:
   * S. Spicher and S. Grimme, J. Chem. Theory Comput., 2021, 17, 1701-1714
     DOI: 10.1021/acs.jctc.0c01306
   
   with help from (in alphabetical order)
   P. Atkinson, C. Bannwarth, F. Bohle, G. Brandenburg, E. Caldeweyher
   M. Checinski, S. Dohm, S. Ehlert, S. Ehrlich, I. Gerasimov, J. Koopman
   C. Lavigne, S. Lehtola, F. März, M. Müller, F. Musil, H. Neugebauer
   J. Pisarek, C. Plett, P. Pracht, J. Seibert, P. Shushkov, S. Spicher
   M. Stahn, M. Steiner, T. Strunk, J. Stückrath, T. Rose, and J. Unsleber
   
 * started run on 2022/02/02 at 00:14:14.262     

           -------------------------------------------------
          |                Calculation Setup                |
           -------------------------------------------------

          program call               : /ihome/ghutchison/oda6/xtb/xtb-641/bin/xtb ../../FF_optimized/66_115_29.mol -opt
          hostname                   : smp-n66
          coordinate file            : ../../FF_optimized/66_115_29.mol
          omp threads                :                     8
          number of atoms            :                   100
          number of electrons        :                   350
          charge                     :                     0
          spin                       :                   0.0
          first test random number   :      0.31511145401023

   ID    Z sym.   atoms
    1    6 C      1-3, 5-9, 11, 13-19, 21, 23-28, 30, 31, 33, 34, 38-40,
                  42-44, 46, 47, 49-52, 54-58, 60-64, 66-70, 72
    2    8 O      4, 59
    3    9 F      10, 12, 65
    4    7 N      20, 22, 35, 37, 48, 53, 71, 73
    5   16 S      29, 32, 36, 41, 45
    6    1 H      74-100
########################################################################
[WARNING] Please study the warnings concerning your input carefully
-1- prog_main_parseArguments: the use of '-opt' is discouraged, please use '--opt' next time
########################################################################

           -------------------------------------------------
          |                 G F N 2 - x T B                 |
           -------------------------------------------------

        Reference                      10.1021/acs.jctc.8b01176
      * Hamiltonian:
        H0-scaling (s, p, d)           1.850000    2.230000    2.230000
        zeta-weighting                 0.500000
      * Dispersion:
        s8                             2.700000
        a1                             0.520000
        a2                             5.000000
        s9                             5.000000
      * Repulsion:
        kExp                           1.500000    1.000000
        rExp                           1.000000
      * Coulomb:
        alpha                          2.000000
        third order                    shell-resolved
        anisotropic                    true
        a3                             3.000000
        a5                             4.000000
        cn-shift                       1.200000
        cn-exp                         4.000000
        max-rad                        5.000000


          ...................................................
          :                      SETUP                      :
          :.................................................:
          :  # basis functions                 349          :
          :  # atomic orbitals                 344          :
          :  # shells                          178          :
          :  # electrons                       350          :
          :  max. iterations                   250          :
          :  Hamiltonian                  GFN2-xTB          :
          :  restarted?                      false          :
          :  GBSA solvation                  false          :
          :  PC potential                    false          :
          :  electronic temp.          300.0000000     K    :
          :  accuracy                    1.0000000          :
          :  -> integral cutoff          0.2500000E+02      :
          :  -> integral neglect         0.1000000E-07      :
          :  -> SCF convergence          0.1000000E-05 Eh   :
          :  -> wf. convergence          0.1000000E-03 e    :
          :  Broyden damping             0.4000000          :
          ...................................................

 iter      E             dE          RMSdq      gap      omega  full diag
   1   -195.7630764 -0.195763E+03  0.508E+00    1.25       0.0  T
   2   -195.9240059 -0.160930E+00  0.327E+00    0.83       1.0  T
   3   -195.8693335  0.546724E-01  0.213E+00    0.89       1.0  T
   4   -196.1071022 -0.237769E+00  0.836E-01    0.98       1.0  T
   5   -196.1604644 -0.533622E-01  0.244E-01    0.77       1.0  T
   6   -196.1637884 -0.332409E-02  0.129E-01    0.90       1.0  T
   7   -196.1646519 -0.863460E-03  0.551E-02    0.86       1.0  T
   8   -196.1649134 -0.261481E-03  0.204E-02    0.87       1.0  T
   9   -196.1649241 -0.107642E-04  0.102E-02    0.86       1.0  T
  10   -196.1649294 -0.520903E-05  0.417E-03    0.87       2.4  T
  11   -196.1649298 -0.480484E-06  0.196E-03    0.87       5.1  T
  12   -196.1649300 -0.137635E-06  0.108E-03    0.87       9.3  T
  13   -196.1649300 -0.523242E-07  0.502E-04    0.87      19.9  T
  14   -196.1649300 -0.764541E-08  0.260E-04    0.87      38.4  T

   *** convergence criteria satisfied after 14 iterations ***

         #    Occupation            Energy/Eh            Energy/eV
      -------------------------------------------------------------
         1        2.0000           -0.8426336             -22.9292
       ...           ...                  ...                  ...
       169        2.0000           -0.4144670             -11.2782
       170        2.0000           -0.4130819             -11.2405
       171        2.0000           -0.4051170             -11.0238
       172        2.0000           -0.3970632             -10.8046
       173        2.0000           -0.3866073             -10.5201
       174        2.0000           -0.3779651             -10.2850
       175        2.0000           -0.3729174             -10.1476 (HOMO)
       176        0.0000           -0.3411083              -9.2820 (LUMO)
       177                         -0.3383615              -9.2073
       178                         -0.3295546              -8.9676
       179                         -0.3285361              -8.9399
       180                         -0.3087765              -8.4022
       ...                                ...                  ...
       344                          1.0716724              29.1617
      -------------------------------------------------------------
                  HL-Gap            0.0318092 Eh            0.8656 eV
             Fermi-level           -0.3570362 Eh           -9.7154 eV

 SCC (total)                   0 d,  0 h,  0 min,  0.251 sec
 SCC setup                      ...        0 min,  0.001 sec (  0.245%)
 Dispersion                     ...        0 min,  0.004 sec (  1.425%)
 classical contributions        ...        0 min,  0.000 sec (  0.044%)
 integral evaluation            ...        0 min,  0.013 sec (  5.357%)
 iterations                     ...        0 min,  0.200 sec ( 79.706%)
 molecular gradient             ...        0 min,  0.032 sec ( 12.808%)
 printout                       ...        0 min,  0.001 sec (  0.381%)

         :::::::::::::::::::::::::::::::::::::::::::::::::::::
         ::                     SUMMARY                     ::
         :::::::::::::::::::::::::::::::::::::::::::::::::::::
         :: total energy            -193.306369702484 Eh    ::
         :: gradient norm              0.281432156197 Eh/a0 ::
         :: HOMO-LUMO gap              0.865571030790 eV    ::
         ::.................................................::
         :: SCC energy              -196.164930033900 Eh    ::
         :: -> isotropic ES            0.145164293278 Eh    ::
         :: -> anisotropic ES          0.008030337891 Eh    ::
         :: -> anisotropic XC          0.115068886806 Eh    ::
         :: -> dispersion             -0.164816833943 Eh    ::
         :: repulsion energy           2.857263288419 Eh    ::
         :: add. restraining           0.000000000000 Eh    ::
         :: total charge              -0.000000000001 e     ::
         :::::::::::::::::::::::::::::::::::::::::::::::::::::

      ----------------------------------------------------------- 
     |                   =====================                   |
     |                        A N C O P T                        |
     |                   =====================                   |
     |               Approximate Normal Coordinate               |
     |                Rational Function Optimizer                |
      ----------------------------------------------------------- 

          ...................................................
          :                      SETUP                      :
          :.................................................:
          :   optimization level            normal          :
          :   max. optcycles                   300          :
          :   ANC micro-cycles                  20          :
          :   degrees of freedom               294          :
          :.................................................:
          :   RF solver                   davidson          :
          :   write xtbopt.log                true          :
          :   linear?                        false          :
          :   energy convergence         0.5000000E-05 Eh   :
          :   grad. convergence          0.1000000E-02 Eh/α :
          :   maximium RF displ.         1.0000000          :
          :   Hlow (freq-cutoff)         0.1000000E-01      :
          :   Hmax (freq-cutoff)         5.0000000          :
          :   S6 in model hess.         20.0000000          :
          ...................................................

generating ANC from model Hessian ...
Using Lindh-Hessian (1995)
 Shifting diagonal of input Hessian by   1.009928846337277E-002
 Lowest  eigenvalues of input Hessian
    0.010000    0.010059    0.000000    0.000000    0.000000    0.000000
    0.000000    0.000000    0.010115    0.010143    0.010175    0.010208
    0.010308    0.010368    0.010448    0.010674    0.010776    0.010993
 Highest eigenvalues
    2.258249    2.315054    2.496942    2.506861    2.553677    2.558279
 

........................................................................
.............................. CYCLE    1 ..............................
........................................................................
   1   -196.1649300 -0.196165E+03  0.130E-04    0.87       0.0  T
   2   -196.1649300  0.339327E-09  0.121E-04    0.87      82.9  T
   3   -196.1649300 -0.133571E-08  0.499E-05    0.87     200.6  T
     SCC iter.                  ...        0 min,  0.044 sec
     gradient                   ...        0 min,  0.031 sec
 * total energy  :  -193.3063697 Eh     change       -0.3478021E-08 Eh
   gradient norm :     0.2814318 Eh/α   predicted     0.0000000E+00 (-100.00%)
   displ. norm   :     0.4590073 α      lambda       -0.9072168E-01
   maximum displ.:     0.0985438 α      in ANC's #96, #163, #174, ...

........................................................................
.............................. CYCLE    2 ..............................
........................................................................
   1   -196.2819106 -0.196282E+03  0.392E-01    0.87       0.0  T
   2   -196.2830482 -0.113757E-02  0.219E-01    0.90       1.0  T
   3   -196.2826425  0.405707E-03  0.113E-01    0.89       1.0  T
   4   -196.2833189 -0.676431E-03  0.458E-02    0.90       1.0  T
   5   -196.2833979 -0.789470E-04  0.223E-02    0.90       1.0  T
   6   -196.2834232 -0.253589E-04  0.110E-02    0.90       1.0  T
   7   -196.2834327 -0.945126E-05  0.436E-03    0.90       2.3  T
   8   -196.2834336 -0.898292E-06  0.209E-03    0.90       4.8  T
   9   -196.2834337 -0.778122E-07  0.993E-04    0.90      10.1  T
  10   -196.2834337 -0.494954E-07  0.418E-04    0.90      23.9  T
     SCC iter.                  ...        0 min,  0.143 sec
     gradient                   ...        0 min,  0.031 sec
 * total energy  :  -193.3713069 Eh     change       -0.6493717E-01 Eh
   gradient norm :     0.1279199 Eh/α   predicted    -0.5496657E-01 ( -15.35%)
   displ. norm   :     0.4518908 α      lambda       -0.3469107E-01
   maximum displ.:     0.1105231 α      in ANC's #63, #96, #69, ...

........................................................................
.............................. CYCLE    3 ..............................
........................................................................
   1   -196.3315096 -0.196332E+03  0.306E-01    0.87       0.0  T
   2   -196.3322411 -0.731539E-03  0.167E-01    0.94       1.0  T
   3   -196.3318806  0.360550E-03  0.104E-01    0.89       1.0  T
   4   -196.3325320 -0.651411E-03  0.350E-02    0.94       1.0  T
   5   -196.3326060 -0.740484E-04  0.213E-02    0.92       1.0  T
   6   -196.3326387 -0.327089E-04  0.807E-03    0.93       1.2  T
   7   -196.3326423 -0.358641E-05  0.345E-03    0.92       2.9  T
   8   -196.3326428 -0.508355E-06  0.167E-03    0.92       6.0  T
   9   -196.3326429 -0.631919E-07  0.879E-04    0.92      11.4  T
  10   -196.3326429 -0.418504E-07  0.370E-04    0.92      27.0  T
     SCC iter.                  ...        0 min,  0.140 sec
     gradient                   ...        0 min,  0.031 sec
 * total energy  :  -193.3917656 Eh     change       -0.2045871E-01 Eh
   gradient norm :     0.0375090 Eh/α   predicted    -0.2088760E-01 (   2.10%)
   displ. norm   :     0.4911105 α      lambda       -0.9099671E-02
   maximum displ.:     0.1663910 α      in ANC's #31, #17, #20, ...

........................................................................
.............................. CYCLE    4 ..............................
........................................................................
   1   -196.3299781 -0.196330E+03  0.305E-01    0.92       0.0  T
   2   -196.3301037 -0.125620E-03  0.171E-01    0.97       1.0  T
   3   -196.3287478  0.135587E-02  0.103E-01    0.91       1.0  T
   4   -196.3302679 -0.152004E-02  0.198E-02    0.96       1.0  T
   5   -196.3303053 -0.373807E-04  0.901E-03    0.95       1.1  T
   6   -196.3303087 -0.340677E-05  0.362E-03    0.96       2.8  T
   7   -196.3303091 -0.480312E-06  0.152E-03    0.95       6.6  T
   8   -196.3303092 -0.537444E-07  0.875E-04    0.95      11.4  T
   9   -196.3303092 -0.420468E-07  0.458E-04    0.95      21.8  T
     SCC iter.                  ...        0 min,  0.128 sec
     gradient                   ...        0 min,  0.031 sec
 * total energy  :  -193.3938983 Eh     change       -0.2132675E-02 Eh
   gradient norm :     0.0415153 Eh/α   predicted    -0.5647212E-02 ( 164.79%)
   displ. norm   :     0.4810622 α      lambda       -0.9778906E-02
   maximum displ.:     0.1380477 α      in ANC's #20, #8, #7, ...

........................................................................
.............................. CYCLE    5 ..............................
........................................................................
   1   -196.3427949 -0.196343E+03  0.353E-01    0.95       0.0  T
   2   -196.3429718 -0.176926E-03  0.196E-01    0.99       1.0  T
   3   -196.3416328  0.133905E-02  0.103E-01    0.93       1.0  T
   4   -196.3431532 -0.152041E-02  0.184E-02    0.98       1.0  T
   5   -196.3431872 -0.339514E-04  0.883E-03    0.97       1.1  T
   6   -196.3431913 -0.416788E-05  0.361E-03    0.98       2.8  T
   7   -196.3431920 -0.663649E-06  0.153E-03    0.97       6.6  T
   8   -196.3431921 -0.141572E-06  0.774E-04    0.98      12.9  T
   9   -196.3431921 -0.189878E-07  0.415E-04    0.98      24.1  T
     SCC iter.                  ...        0 min,  0.132 sec
     gradient                   ...        0 min,  0.031 sec
 * total energy  :  -193.3979431 Eh     change       -0.4044837E-02 Eh
   gradient norm :     0.0307013 Eh/α   predicted    -0.6020995E-02 (  48.86%)
   displ. norm   :     0.3904550 α      lambda       -0.4499632E-02
   maximum displ.:     0.1908763 α      in ANC's #20, #35, #14, ...

........................................................................
.............................. CYCLE    6 ..............................
........................................................................
   1   -196.3323583 -0.196332E+03  0.298E-01    0.95       0.0  T
   2   -196.3324769 -0.118589E-03  0.166E-01    0.96       1.0  T
   3   -196.3319471  0.529778E-03  0.621E-02    0.94       1.0  T
   4   -196.3325499 -0.602837E-03  0.114E-02    0.96       1.0  T
   5   -196.3325582 -0.827168E-05  0.672E-03    0.96       1.5  T
   6   -196.3325612 -0.296588E-05  0.271E-03    0.96       3.7  T
   7   -196.3325616 -0.389039E-06  0.113E-03    0.96       8.9  T
   8   -196.3325616 -0.611153E-07  0.530E-04    0.96      18.9  T
   9   -196.3325616 -0.146719E-07  0.258E-04    0.96      38.7  T
     SCC iter.                  ...        0 min,  0.127 sec
     gradient                   ...        0 min,  0.031 sec
 * total energy  :  -193.3987084 Eh     change       -0.7652827E-03 Eh
   gradient norm :     0.0504796 Eh/α   predicted    -0.2592818E-02 ( 238.81%)
   displ. norm   :     0.3325685 α      lambda       -0.5329725E-02
   maximum displ.:     0.1106633 α      in ANC's #21, #29, #31, ...

........................................................................
.............................. CYCLE    7 ..............................
........................................................................
   1   -196.3405749 -0.196341E+03  0.215E-01    0.97       0.0  T
   2   -196.3406589 -0.840630E-04  0.120E-01    0.98       1.0  T
   3   -196.3403987  0.260203E-03  0.481E-02    0.96       1.0  T
   4   -196.3406963 -0.297541E-03  0.101E-02    0.98       1.0  T
   5   -196.3407038 -0.755166E-05  0.517E-03    0.97       1.9  T
   6   -196.3407059 -0.206055E-05  0.197E-03    0.98       5.1  T
   7   -196.3407061 -0.169058E-06  0.903E-04    0.98      11.1  T
   8   -196.3407061 -0.535444E-07  0.412E-04    0.98      24.3  T
     SCC iter.                  ...        0 min,  0.114 sec
     gradient                   ...        0 min,  0.031 sec
 * total energy  :  -193.4012195 Eh     change       -0.2511105E-02 Eh
   gradient norm :     0.0276269 Eh/α   predicted    -0.2959599E-02 (  17.86%)
   displ. norm   :     0.4212602 α      lambda       -0.2461497E-02
   maximum displ.:     0.1884920 α      in ANC's #20, #19, #26, ...

........................................................................
.............................. CYCLE    8 ..............................
........................................................................
   1   -196.3323523 -0.196332E+03  0.174E-01    0.96       0.0  T
   2   -196.3323662 -0.138534E-04  0.996E-02    0.98       1.0  T
   3   -196.3315372  0.828991E-03  0.779E-02    0.94       1.0  T
   4   -196.3324737 -0.936529E-03  0.109E-02    0.98       1.0  T
   5   -196.3324817 -0.798747E-05  0.496E-03    0.97       2.0  T
   6   -196.3324826 -0.873470E-06  0.207E-03    0.98       4.8  T
   7   -196.3324828 -0.242813E-06  0.865E-04    0.97      11.6  T
   8   -196.3324828 -0.288983E-07  0.447E-04    0.97      22.4  T
     SCC iter.                  ...        0 min,  0.109 sec
     gradient                   ...        0 min,  0.031 sec
 * total energy  :  -193.4024813 Eh     change       -0.1261795E-02 Eh
   gradient norm :     0.0236609 Eh/α   predicted    -0.1449166E-02 (  14.85%)
   displ. norm   :     0.4939324 α      lambda       -0.2428752E-02
   maximum displ.:     0.2330483 α      in ANC's #20, #19, #31, ...

........................................................................
.............................. CYCLE    9 ..............................
........................................................................
   1   -196.3349447 -0.196335E+03  0.171E-01    0.97       0.0  T
   2   -196.3349644 -0.197579E-04  0.981E-02    0.99       1.0  T
   3   -196.3342252  0.739204E-03  0.733E-02    0.96       1.0  T
   4   -196.3350591 -0.833850E-03  0.110E-02    0.98       1.0  T
   5   -196.3350664 -0.729954E-05  0.534E-03    0.98       1.9  T
   6   -196.3350678 -0.136780E-05  0.220E-03    0.98       4.5  T
   7   -196.3350681 -0.329884E-06  0.103E-03    0.98       9.7  T
   8   -196.3350681 -0.528840E-07  0.514E-04    0.98      19.4  T
   9   -196.3350682 -0.151105E-07  0.239E-04    0.98      41.8  T
     SCC iter.                  ...        0 min,  0.122 sec
     gradient                   ...        0 min,  0.031 sec
 * total energy  :  -193.4036746 Eh     change       -0.1193355E-02 Eh
   gradient norm :     0.0253379 Eh/α   predicted    -0.1510667E-02 (  26.59%)
   displ. norm   :     0.4502955 α      lambda       -0.2092367E-02
   maximum displ.:     0.1917982 α      in ANC's #20, #19, #16, ...

........................................................................
.............................. CYCLE   10 ..............................
........................................................................
   1   -196.3359882 -0.196336E+03  0.143E-01    0.96       0.0  T
   2   -196.3360045 -0.162425E-04  0.825E-02    0.97       1.0  T
   3   -196.3356682  0.336312E-03  0.507E-02    0.96       1.0  T
   4   -196.3360416 -0.373453E-03  0.813E-03    0.97       1.2  T
   5   -196.3360462 -0.460144E-05  0.446E-03    0.97       2.2  T
   6   -196.3360472 -0.951140E-06  0.170E-03    0.97       5.9  T
   7   -196.3360474 -0.232314E-06  0.727E-04    0.97      13.8  T
   8   -196.3360474 -0.277142E-07  0.376E-04    0.97      26.6  T
     SCC iter.                  ...        0 min,  0.109 sec
     gradient                   ...        0 min,  0.031 sec
 * total energy  :  -193.4049993 Eh     change       -0.1324674E-02 Eh
   gradient norm :     0.0180123 Eh/α   predicted    -0.1258318E-02 (  -5.01%)
   displ. norm   :     0.5488621 α      lambda       -0.1762851E-02
   maximum displ.:     0.1984790 α      in ANC's #20, #19, #16, ...

........................................................................
.............................. CYCLE   11 ..............................
........................................................................
   1   -196.3230837 -0.196323E+03  0.256E-01    0.96       0.0  T
   2   -196.3231650 -0.813424E-04  0.143E-01    0.96       1.0  T
   3   -196.3227557  0.409304E-03  0.563E-02    0.94       1.0  T
   4   -196.3232187 -0.462976E-03  0.965E-03    0.96       1.0  T
   5   -196.3232243 -0.559175E-05  0.546E-03    0.96       1.8  T
   6   -196.3232261 -0.180210E-05  0.209E-03    0.96       4.8  T
   7   -196.3232263 -0.235053E-06  0.863E-04    0.96      11.6  T
   8   -196.3232263 -0.413922E-07  0.414E-04    0.96      24.2  T
     SCC iter.                  ...        0 min,  0.109 sec
     gradient                   ...        0 min,  0.031 sec
 * total energy  :  -193.4049707 Eh     change        0.2857776E-04 Eh
   gradient norm :     0.0457570 Eh/α   predicted    -0.1146956E-02 (*******%)
   displ. norm   :     0.3229258 α      lambda       -0.3013348E-02
   maximum displ.:     0.1141740 α      in ANC's #20, #16, #7, ...

........................................................................
.............................. CYCLE   12 ..............................
........................................................................
   1   -196.3345457 -0.196335E+03  0.177E-01    0.97       0.0  T
   2   -196.3345876 -0.418940E-04  0.988E-02    0.97       1.0  T
   3   -196.3345243  0.632731E-04  0.271E-02    0.96       1.0  T
   4   -196.3346032 -0.788889E-04  0.634E-03    0.96       1.6  T
   5   -196.3346055 -0.230243E-05  0.365E-03    0.96       2.7  T
   6   -196.3346066 -0.114183E-05  0.154E-03    0.96       6.5  T
   7   -196.3346068 -0.151269E-06  0.614E-04    0.96      16.3  T
   8   -196.3346068 -0.255983E-07  0.240E-04    0.96      41.7  T
     SCC iter.                  ...        0 min,  0.108 sec
     gradient                   ...        0 min,  0.031 sec
 * total energy  :  -193.4065497 Eh     change       -0.1578923E-02 Eh
   gradient norm :     0.0192335 Eh/α   predicted    -0.1663789E-02 (   5.37%)
   displ. norm   :     0.3940439 α      lambda       -0.1074758E-02
   maximum displ.:     0.1314476 α      in ANC's #16, #7, #20, ...

........................................................................
.............................. CYCLE   13 ..............................
........................................................................
   1   -196.3381232 -0.196338E+03  0.105E-01    0.97       0.0  T
   2   -196.3381359 -0.127293E-04  0.597E-02    0.97       1.0  T
   3   -196.3380624  0.734419E-04  0.253E-02    0.96       1.0  T
   4   -196.3381435 -0.810316E-04  0.593E-03    0.97       1.7  T
   5   -196.3381462 -0.268494E-05  0.291E-03    0.97       3.4  T
   6   -196.3381465 -0.331625E-06  0.139E-03    0.97       7.2  T
   7   -196.3381466 -0.140313E-06  0.583E-04    0.97      17.2  T
   8   -196.3381466 -0.904200E-08  0.337E-04    0.97      29.7  T
     SCC iter.                  ...        0 min,  0.109 sec
     gradient                   ...        0 min,  0.031 sec
 * total energy  :  -193.4072583 Eh     change       -0.7086599E-03 Eh
   gradient norm :     0.0126291 Eh/α   predicted    -0.6208191E-03 ( -12.40%)
   displ. norm   :     0.6130096 α      lambda       -0.1200481E-02
   maximum displ.:     0.2150065 α      in ANC's #16, #7, #5, ...

........................................................................
.............................. CYCLE   14 ..............................
........................................................................
   1   -196.3408774 -0.196341E+03  0.137E-01    0.97       0.0  T
   2   -196.3408996 -0.221868E-04  0.784E-02    0.97       1.0  T
   3   -196.3407896  0.109946E-03  0.312E-02    0.96       1.0  T
   4   -196.3409086 -0.118977E-03  0.855E-03    0.96       1.2  T
   5   -196.3409155 -0.688948E-05  0.380E-03    0.96       2.6  T
   6   -196.3409162 -0.710899E-06  0.170E-03    0.96       5.9  T
   7   -196.3409164 -0.199939E-06  0.603E-04    0.96      16.6  T
   8   -196.3409164 -0.759616E-08  0.385E-04    0.96      26.0  T
     SCC iter.                  ...        0 min,  0.109 sec
     gradient                   ...        0 min,  0.031 sec
 * total energy  :  -193.4081878 Eh     change       -0.9294547E-03 Eh
   gradient norm :     0.0159522 Eh/α   predicted    -0.8257990E-03 ( -11.15%)
   displ. norm   :     0.6388214 α      lambda       -0.1233663E-02
   maximum displ.:     0.2225630 α      in ANC's #5, #16, #7, ...

........................................................................
.............................. CYCLE   15 ..............................
........................................................................
   1   -196.3460987 -0.196346E+03  0.133E-01    0.97       0.0  T
   2   -196.3461303 -0.316090E-04  0.767E-02    0.96       1.0  T
   3   -196.3460111  0.119203E-03  0.336E-02    0.96       1.0  T
   4   -196.3461420 -0.130901E-03  0.848E-03    0.96       1.2  T
   5   -196.3461502 -0.817467E-05  0.368E-03    0.96       2.7  T
   6   -196.3461510 -0.841671E-06  0.191E-03    0.96       5.2  T
   7   -196.3461513 -0.302418E-06  0.701E-04    0.96      14.3  T
   8   -196.3461513 -0.270174E-07  0.343E-04    0.96      29.2  T
     SCC iter.                  ...        0 min,  0.109 sec
     gradient                   ...        0 min,  0.031 sec
 * total energy  :  -193.4091105 Eh     change       -0.9227627E-03 Eh
   gradient norm :     0.0121522 Eh/α   predicted    -0.8685586E-03 (  -5.87%)
   displ. norm   :     0.7189415 α      lambda       -0.1116538E-02
   maximum displ.:     0.2551497 α      in ANC's #7, #5, #16, ...

........................................................................
.............................. CYCLE   16 ..............................
........................................................................
   1   -196.3324464 -0.196332E+03  0.161E-01    0.96       0.0  T
   2   -196.3324779 -0.314668E-04  0.917E-02    0.95       1.0  T
   3   -196.3323988  0.791433E-04  0.304E-02    0.95       1.0  T
   4   -196.3324900 -0.912165E-04  0.802E-03    0.95       1.2  T
   5   -196.3324936 -0.366009E-05  0.420E-03    0.95       2.4  T
   6   -196.3324946 -0.961123E-06  0.190E-03    0.95       5.3  T
   7   -196.3324949 -0.307035E-06  0.785E-04    0.95      12.7  T
   8   -196.3324949 -0.250824E-07  0.428E-04    0.95      23.4  T
     SCC iter.                  ...        0 min,  0.109 sec
     gradient                   ...        0 min,  0.031 sec
 * total energy  :  -193.4098515 Eh     change       -0.7409755E-03 Eh
   gradient norm :     0.0206635 Eh/α   predicted    -0.8468277E-03 (  14.29%)
   displ. norm   :     0.5463616 α      lambda       -0.1117373E-02
   maximum displ.:     0.2325576 α      in ANC's #5, #11, #17, ...

........................................................................
.............................. CYCLE   17 ..............................
........................................................................
   1   -196.3422058 -0.196342E+03  0.112E-01    0.95       0.0  T
   2   -196.3422274 -0.215706E-04  0.660E-02    0.94       1.0  T
   3   -196.3419909  0.236430E-03  0.439E-02    0.96       1.0  T
   4   -196.3422516 -0.260649E-03  0.908E-03    0.94       1.1  T
   5   -196.3422624 -0.107835E-04  0.324E-03    0.95       3.1  T
   6   -196.3422630 -0.631042E-06  0.181E-03    0.95       5.5  T
   7   -196.3422632 -0.196365E-06  0.646E-04    0.95      15.5  T
   8   -196.3422632 -0.286591E-07  0.282E-04    0.95      35.5  T
     SCC iter.                  ...        0 min,  0.115 sec
     gradient                   ...        0 min,  0.032 sec
 * total energy  :  -193.4106833 Eh     change       -0.8318343E-03 Eh
   gradient norm :     0.0169210 Eh/α   predicted    -0.7254634E-03 ( -12.79%)
   displ. norm   :     0.6177560 α      lambda       -0.1003427E-02
   maximum displ.:     0.2560281 α      in ANC's #5, #11, #7, ...

........................................................................
.............................. CYCLE   18 ..............................
........................................................................
   1   -196.3446853 -0.196345E+03  0.115E-01    0.95       0.0  T
   2   -196.3446965 -0.111485E-04  0.673E-02    0.94       1.0  T
   3   -196.3445186  0.177838E-03  0.371E-02    0.95       1.0  T
   4   -196.3447081 -0.189453E-03  0.755E-03    0.94       1.3  T
   5   -196.3447153 -0.725390E-05  0.282E-03    0.95       3.6  T
   6   -196.3447157 -0.395298E-06  0.151E-03    0.95       6.6  T
   7   -196.3447159 -0.150147E-06  0.521E-04    0.95      19.2  T
   8   -196.3447159 -0.172774E-07  0.273E-04    0.95      36.6  T
     SCC iter.                  ...        0 min,  0.108 sec
     gradient                   ...        0 min,  0.031 sec
 * total energy  :  -193.4114652 Eh     change       -0.7819003E-03 Eh
   gradient norm :     0.0113186 Eh/α   predicted    -0.6931800E-03 ( -11.35%)
   displ. norm   :     0.6693906 α      lambda       -0.9318034E-03
   maximum displ.:     0.3050658 α      in ANC's #5, #11, #7, ...

........................................................................
.............................. CYCLE   19 ..............................
........................................................................
   1   -196.3459174 -0.196346E+03  0.134E-01    0.94       0.0  T
   2   -196.3459253 -0.783466E-05  0.781E-02    0.94       1.0  T
   3   -196.3456394  0.285856E-03  0.451E-02    0.96       1.0  T
   4   -196.3459497 -0.310276E-03  0.751E-03    0.95       1.3  T
   5   -196.3459547 -0.502540E-05  0.345E-03    0.95       2.9  T
   6   -196.3459552 -0.514463E-06  0.143E-03    0.95       7.0  T
   7   -196.3459553 -0.113610E-06  0.589E-04    0.95      17.0  T
   8   -196.3459554 -0.164024E-07  0.315E-04    0.95      31.7  T
     SCC iter.                  ...        0 min,  0.108 sec
     gradient                   ...        0 min,  0.031 sec
 * total energy  :  -193.4122050 Eh     change       -0.7397631E-03 Eh
   gradient norm :     0.0123032 Eh/α   predicted    -0.6746656E-03 (  -8.80%)
   displ. norm   :     0.6553686 α      lambda       -0.9698928E-03
   maximum displ.:     0.3047099 α      in ANC's #5, #7, #11, ...

........................................................................
.............................. CYCLE   20 ..............................
........................................................................
   1   -196.3418941 -0.196342E+03  0.128E-01    0.94       0.0  T
   2   -196.3419313 -0.372532E-04  0.746E-02    0.95       1.0  T
   3   -196.3418032  0.128174E-03  0.352E-02    0.95       1.0  T
   4   -196.3419437 -0.140545E-03  0.867E-03    0.95       1.2  T
   5   -196.3419522 -0.845870E-05  0.343E-03    0.95       2.9  T
   6   -196.3419528 -0.629551E-06  0.175E-03    0.95       5.7  T
   7   -196.3419530 -0.180188E-06  0.694E-04    0.95      14.4  T
   8   -196.3419530 -0.255481E-07  0.322E-04    0.95      31.1  T
     SCC iter.                  ...        0 min,  0.108 sec
     gradient                   ...        0 min,  0.031 sec
 * total energy  :  -193.4128377 Eh     change       -0.6326738E-03 Eh
   gradient norm :     0.0187434 Eh/α   predicted    -0.6932387E-03 (   9.57%)
   displ. norm   :     0.5999727 α      lambda       -0.9334149E-03
   maximum displ.:     0.2808650 α      in ANC's #5, #11, #7, ...
 * RMSD in coord.:     0.7491098 α      energy gain  -0.1064680E+00 Eh

generating ANC from model Hessian ...
Using Lindh-Hessian (1995)
 Shifting diagonal of input Hessian by   1.000226390905014E-002
 Lowest  eigenvalues of input Hessian
    0.010000    0.000000    0.000000    0.000000    0.000000    0.000000
    0.000000    0.010017    0.010043    0.010089    0.010165    0.010247
    0.010349    0.010438    0.010653    0.010737    0.010963    0.011092
 Highest eigenvalues
    2.253596    2.291638    2.599925    2.613902    2.646654    2.666139
 

........................................................................
.............................. CYCLE   21 ..............................
........................................................................
   1   -196.3438162 -0.196344E+03  0.116E-01    0.95       0.0  T
   2   -196.3438449 -0.287129E-04  0.679E-02    0.95       1.0  T
   3   -196.3437568  0.880776E-04  0.297E-02    0.95       1.0  T
   4   -196.3438537 -0.969090E-04  0.792E-03    0.95       1.3  T
   5   -196.3438596 -0.581084E-05  0.293E-03    0.95       3.4  T
   6   -196.3438599 -0.344127E-06  0.153E-03    0.95       6.5  T
   7   -196.3438600 -0.138081E-06  0.655E-04    0.95      15.3  T
   8   -196.3438601 -0.245194E-07  0.296E-04    0.95      33.8  T
     SCC iter.                  ...        0 min,  0.110 sec
     gradient                   ...        0 min,  0.031 sec
 * total energy  :  -193.4133622 Eh     change       -0.5245177E-03 Eh
   gradient norm :     0.0195136 Eh/α   predicted     0.0000000E+00 (-100.00%)
   displ. norm   :     0.1637960 α      lambda       -0.7387554E-03
   maximum displ.:     0.0624611 α      in ANC's #19, #10, #5, ...

........................................................................
.............................. CYCLE   22 ..............................
........................................................................
   1   -196.3452470 -0.196345E+03  0.117E-01    0.96       0.0  T
   2   -196.3452649 -0.178190E-04  0.654E-02    0.96       1.0  T
   3   -196.3452029  0.619870E-04  0.238E-02    0.95       1.0  T
   4   -196.3452752 -0.723466E-04  0.418E-03    0.95       2.4  T
   5   -196.3452762 -0.944633E-06  0.224E-03    0.95       4.5  T
   6   -196.3452764 -0.268267E-06  0.116E-03    0.95       8.6  T
   7   -196.3452766 -0.122866E-06  0.478E-04    0.95      20.9  T
   8   -196.3452766 -0.169449E-07  0.207E-04    0.95      48.2  T
     SCC iter.                  ...        0 min,  0.109 sec
     gradient                   ...        0 min,  0.031 sec
 * total energy  :  -193.4136995 Eh     change       -0.3373249E-03 Eh
   gradient norm :     0.0101903 Eh/α   predicted    -0.3793495E-03 (  12.46%)
   displ. norm   :     0.2748258 α      lambda       -0.9626565E-03
   maximum displ.:     0.1030921 α      in ANC's #18, #5, #1, ...

........................................................................
.............................. CYCLE   23 ..............................
........................................................................
   1   -196.3512987 -0.196351E+03  0.118E-01    0.96       0.0  T
   2   -196.3513208 -0.221010E-04  0.666E-02    0.96       1.0  T
   3   -196.3512588  0.619929E-04  0.255E-02    0.95       1.0  T
   4   -196.3513324 -0.736724E-04  0.545E-03    0.95       1.8  T
   5   -196.3513339 -0.151042E-05  0.273E-03    0.95       3.7  T
   6   -196.3513342 -0.231734E-06  0.139E-03    0.95       7.2  T
   7   -196.3513343 -0.128490E-06  0.612E-04    0.95      16.3  T
   8   -196.3513343 -0.184599E-07  0.320E-04    0.95      31.3  T
     SCC iter.                  ...        0 min,  0.110 sec
     gradient                   ...        0 min,  0.031 sec
 * total energy  :  -193.4138032 Eh     change       -0.1037021E-03 Eh
   gradient norm :     0.0231144 Eh/α   predicted    -0.5176828E-03 ( 399.20%)
   displ. norm   :     0.1261441 α      lambda       -0.7742645E-03
   maximum displ.:     0.0442351 α      in ANC's #5, #10, #7, ...

........................................................................
.............................. CYCLE   24 ..............................
........................................................................
   1   -196.3522335 -0.196352E+03  0.773E-02    0.96       0.0  T
   2   -196.3522415 -0.798572E-05  0.432E-02    0.95       1.0  T
   3   -196.3522018  0.396833E-04  0.182E-02    0.96       1.0  T
   4   -196.3522472 -0.454365E-04  0.265E-03    0.95       3.8  T
   5   -196.3522476 -0.359166E-06  0.155E-03    0.95       6.4  T
   6   -196.3522477 -0.117001E-06  0.758E-04    0.95      13.2  T
   7   -196.3522477 -0.404578E-07  0.297E-04    0.95      33.7  T
     SCC iter.                  ...        0 min,  0.096 sec
     gradient                   ...        0 min,  0.031 sec
 * total energy  :  -193.4142605 Eh     change       -0.4572853E-03 Eh
   gradient norm :     0.0095308 Eh/α   predicted    -0.3932963E-03 ( -13.99%)
   displ. norm   :     0.2313736 α      lambda       -0.4959413E-03
   maximum displ.:     0.0970711 α      in ANC's #5, #1, #7, ...

........................................................................
.............................. CYCLE   25 ..............................
........................................................................
   1   -196.3493250 -0.196349E+03  0.758E-02    0.95       0.0  T
   2   -196.3493337 -0.871720E-05  0.431E-02    0.95       1.0  T
   3   -196.3492890  0.447218E-04  0.198E-02    0.95       1.0  T
   4   -196.3493399 -0.508707E-04  0.329E-03    0.95       3.0  T
   5   -196.3493406 -0.679163E-06  0.181E-03    0.95       5.5  T
   6   -196.3493407 -0.192269E-06  0.987E-04    0.95      10.1  T
   7   -196.3493408 -0.740698E-07  0.379E-04    0.95      26.4  T
     SCC iter.                  ...        0 min,  0.096 sec
     gradient                   ...        0 min,  0.031 sec
 * total energy  :  -193.4145047 Eh     change       -0.2441921E-03 Eh
   gradient norm :     0.0115871 Eh/α   predicted    -0.2612502E-03 (   6.99%)
   displ. norm   :     0.3535089 α      lambda       -0.4659907E-03
   maximum displ.:     0.1505195 α      in ANC's #5, #1, #7, ...

........................................................................
.............................. CYCLE   26 ..............................
........................................................................
   1   -196.3474792 -0.196347E+03  0.787E-02    0.95       0.0  T
   2   -196.3474850 -0.576392E-05  0.443E-02    0.95       1.0  T
   3   -196.3474784  0.656936E-05  0.928E-03    0.95       1.1  T
   4   -196.3474871 -0.874462E-05  0.298E-03    0.95       3.4  T
   5   -196.3474874 -0.266775E-06  0.171E-03    0.95       5.8  T
   6   -196.3474876 -0.188946E-06  0.594E-04    0.95      16.8  T
   7   -196.3474876 -0.254947E-07  0.250E-04    0.95      40.0  T
     SCC iter.                  ...        0 min,  0.096 sec
     gradient                   ...        0 min,  0.031 sec
 * total energy  :  -193.4148741 Eh     change       -0.3693833E-03 Eh
   gradient norm :     0.0110007 Eh/α   predicted    -0.2621156E-03 ( -29.04%)
   displ. norm   :     0.5573747 α      lambda       -0.6363282E-03
   maximum displ.:     0.2419354 α      in ANC's #5, #1, #4, ...

........................................................................
.............................. CYCLE   27 ..............................
........................................................................
   1   -196.3466103 -0.196347E+03  0.986E-02    0.95       0.0  T
   2   -196.3466160 -0.570144E-05  0.564E-02    0.95       1.0  T
   3   -196.3465785  0.374572E-04  0.179E-02    0.95       1.0  T
   4   -196.3466193 -0.407429E-04  0.443E-03    0.95       2.3  T
   5   -196.3466201 -0.821063E-06  0.261E-03    0.95       3.8  T
   6   -196.3466206 -0.510624E-06  0.761E-04    0.95      13.1  T
   7   -196.3466207 -0.334582E-07  0.361E-04    0.95      27.7  T
     SCC iter.                  ...        0 min,  0.097 sec
     gradient                   ...        0 min,  0.031 sec
 * total energy  :  -193.4153518 Eh     change       -0.4776986E-03 Eh
   gradient norm :     0.0075194 Eh/α   predicted    -0.4170087E-03 ( -12.70%)
   displ. norm   :     0.5871590 α      lambda       -0.5920031E-03
   maximum displ.:     0.2626399 α      in ANC's #5, #1, #4, ...

........................................................................
.............................. CYCLE   28 ..............................
........................................................................
   1   -196.3461981 -0.196346E+03  0.107E-01    0.94       0.0  T
   2   -196.3462064 -0.833428E-05  0.609E-02    0.94       1.0  T
   3   -196.3461870  0.194256E-04  0.143E-02    0.95       1.0  T
   4   -196.3462099 -0.228907E-04  0.411E-03    0.94       2.4  T
   5   -196.3462103 -0.367226E-06  0.263E-03    0.94       3.8  T
   6   -196.3462110 -0.690413E-06  0.920E-04    0.94      10.9  T
   7   -196.3462110 -0.728371E-07  0.371E-04    0.94      27.0  T
     SCC iter.                  ...        0 min,  0.096 sec
     gradient                   ...        0 min,  0.031 sec
 * total energy  :  -193.4158162 Eh     change       -0.4644395E-03 Eh
   gradient norm :     0.0091061 Eh/α   predicted    -0.3980590E-03 ( -14.29%)
   displ. norm   :     0.6238499 α      lambda       -0.6544482E-03
   maximum displ.:     0.2868667 α      in ANC's #5, #1, #4, ...

........................................................................
.............................. CYCLE   29 ..............................
........................................................................
   1   -196.3473939 -0.196347E+03  0.113E-01    0.94       0.0  T
   2   -196.3474020 -0.811598E-05  0.647E-02    0.94       1.0  T
   3   -196.3473422  0.597472E-04  0.215E-02    0.94       1.0  T
   4   -196.3474076 -0.653307E-04  0.484E-03    0.94       2.1  T
   5   -196.3474087 -0.115004E-05  0.296E-03    0.94       3.4  T
   6   -196.3474094 -0.715718E-06  0.998E-04    0.94      10.0  T
   7   -196.3474095 -0.572797E-07  0.430E-04    0.94      23.3  T
     SCC iter.                  ...        0 min,  0.097 sec
     gradient                   ...        0 min,  0.031 sec
 * total energy  :  -193.4163116 Eh     change       -0.4953375E-03 Eh
   gradient norm :     0.0087609 Eh/α   predicted    -0.4545824E-03 (  -8.23%)
   displ. norm   :     0.6456438 α      lambda       -0.6685887E-03
   maximum displ.:     0.3042038 α      in ANC's #1, #5, #4, ...

........................................................................
.............................. CYCLE   30 ..............................
........................................................................
   1   -196.3516806 -0.196352E+03  0.104E-01    0.94       0.0  T
   2   -196.3516852 -0.467433E-05  0.605E-02    0.94       1.0  T
   3   -196.3516257  0.595266E-04  0.215E-02    0.95       1.0  T
   4   -196.3516894 -0.636424E-04  0.468E-03    0.94       2.1  T
   5   -196.3516908 -0.147863E-05  0.280E-03    0.94       3.6  T
   6   -196.3516915 -0.678211E-06  0.873E-04    0.94      11.4  T
   7   -196.3516915 -0.353929E-07  0.417E-04    0.94      24.0  T
     SCC iter.                  ...        0 min,  0.097 sec
     gradient                   ...        0 min,  0.031 sec
 * total energy  :  -193.4168770 Eh     change       -0.5654766E-03 Eh
   gradient norm :     0.0077080 Eh/α   predicted    -0.4736497E-03 ( -16.24%)
   displ. norm   :     0.7311157 α      lambda       -0.6588712E-03
   maximum displ.:     0.3560217 α      in ANC's #1, #5, #4, ...

........................................................................
.............................. CYCLE   31 ..............................
........................................................................
   1   -196.3505251 -0.196351E+03  0.115E-01    0.94       0.0  T
   2   -196.3505299 -0.480662E-05  0.666E-02    0.94       1.0  T
   3   -196.3504445  0.854231E-04  0.253E-02    0.95       1.0  T
   4   -196.3505358 -0.913429E-04  0.487E-03    0.95       2.1  T
   5   -196.3505374 -0.155270E-05  0.280E-03    0.95       3.6  T
   6   -196.3505380 -0.583104E-06  0.992E-04    0.95      10.1  T
   7   -196.3505380 -0.546758E-07  0.456E-04    0.95      21.9  T
     SCC iter.                  ...        0 min,  0.099 sec
     gradient                   ...        0 min,  0.031 sec
 * total energy  :  -193.4174594 Eh     change       -0.5823568E-03 Eh
   gradient norm :     0.0059717 Eh/α   predicted    -0.5055328E-03 ( -13.19%)
   displ. norm   :     0.7473793 α      lambda       -0.6349951E-03
   maximum displ.:     0.3831083 α      in ANC's #1, #5, #4, ...

........................................................................
.............................. CYCLE   32 ..............................
........................................................................
   1   -196.3519393 -0.196352E+03  0.117E-01    0.95       0.0  T
   2   -196.3519441 -0.485766E-05  0.678E-02    0.95       1.0  T
   3   -196.3518424  0.101673E-03  0.272E-02    0.95       1.0  T
   4   -196.3519512 -0.108731E-03  0.480E-03    0.95       2.1  T
   5   -196.3519528 -0.158046E-05  0.262E-03    0.95       3.8  T
   6   -196.3519532 -0.431130E-06  0.105E-03    0.95       9.5  T
   7   -196.3519533 -0.688804E-07  0.461E-04    0.95      21.7  T
   8   -196.3519533 -0.111223E-07  0.224E-04    0.95      44.6  T
     SCC iter.                  ...        0 min,  0.110 sec
     gradient                   ...        0 min,  0.031 sec
 * total energy  :  -193.4180064 Eh     change       -0.5470278E-03 Eh
   gradient norm :     0.0058573 Eh/α   predicted    -0.4948461E-03 (  -9.54%)
   displ. norm   :     0.7645958 α      lambda       -0.5335555E-03
   maximum displ.:     0.4027683 α      in ANC's #1, #5, #4, ...

........................................................................
.............................. CYCLE   33 ..............................
........................................................................
   1   -196.3481847 -0.196348E+03  0.121E-01    0.95       0.0  T
   2   -196.3481895 -0.486061E-05  0.704E-02    0.95       1.0  T
   3   -196.3481226  0.669369E-04  0.220E-02    0.95       1.0  T
   4   -196.3481950 -0.723840E-04  0.410E-03    0.95       2.4  T
   5   -196.3481954 -0.476502E-06  0.260E-03    0.95       3.8  T
   6   -196.3481960 -0.511233E-06  0.845E-04    0.95      11.8  T
   7   -196.3481960 -0.437815E-07  0.409E-04    0.95      24.4  T
     SCC iter.                  ...        0 min,  0.096 sec
     gradient                   ...        0 min,  0.031 sec
 * total energy  :  -193.4184640 Eh     change       -0.4575945E-03 Eh
   gradient norm :     0.0066622 Eh/α   predicted    -0.4227408E-03 (  -7.62%)
   displ. norm   :     0.6505531 α      lambda       -0.4913892E-03
   maximum displ.:     0.3651239 α      in ANC's #1, #5, #4, ...

........................................................................
.............................. CYCLE   34 ..............................
........................................................................
   1   -196.3548423 -0.196355E+03  0.101E-01    0.95       0.0  T
   2   -196.3548481 -0.580348E-05  0.588E-02    0.95       1.0  T
   3   -196.3547673  0.807963E-04  0.241E-02    0.96       1.0  T
   4   -196.3548546 -0.872837E-04  0.414E-03    0.95       2.4  T
   5   -196.3548556 -0.981959E-06  0.247E-03    0.95       4.0  T
   6   -196.3548560 -0.419235E-06  0.103E-03    0.95       9.7  T
   7   -196.3548561 -0.754305E-07  0.424E-04    0.95      23.6  T
   8   -196.3548561 -0.113886E-07  0.199E-04    0.95      50.2  T
     SCC iter.                  ...        0 min,  0.107 sec
     gradient                   ...        0 min,  0.031 sec
 * total energy  :  -193.4188395 Eh     change       -0.3754857E-03 Eh
   gradient norm :     0.0070224 Eh/α   predicted    -0.3496803E-03 (  -6.87%)
   displ. norm   :     0.7301918 α      lambda       -0.4620646E-03
   maximum displ.:     0.4061996 α      in ANC's #1, #5, #4, ...

........................................................................
.............................. CYCLE   35 ..............................
........................................................................
   1   -196.3502668 -0.196350E+03  0.114E-01    0.96       0.0  T
   2   -196.3502722 -0.537762E-05  0.660E-02    0.95       1.0  T
   3   -196.3502486  0.236337E-04  0.144E-02    0.96       1.0  T
   4   -196.3502745 -0.258880E-04  0.406E-03    0.95       2.5  T
   5   -196.3502752 -0.798155E-06  0.261E-03    0.95       3.8  T
   6   -196.3502758 -0.571301E-06  0.782E-04    0.95      12.8  T
   7   -196.3502759 -0.425382E-07  0.364E-04    0.95      27.5  T
     SCC iter.                  ...        0 min,  0.095 sec
     gradient                   ...        0 min,  0.031 sec
 * total energy  :  -193.4192280 Eh     change       -0.3884704E-03 Eh
   gradient norm :     0.0060204 Eh/α   predicted    -0.3542202E-03 (  -8.82%)
   displ. norm   :     0.5930416 α      lambda       -0.4150860E-03
   maximum displ.:     0.3523746 α      in ANC's #1, #5, #4, ...

........................................................................
.............................. CYCLE   36 ..............................
........................................................................
   1   -196.3507688 -0.196351E+03  0.957E-02    0.95       0.0  T
   2   -196.3507752 -0.635531E-05  0.548E-02    0.95       1.0  T
   3   -196.3507542  0.209812E-04  0.140E-02    0.95       1.0  T
   4   -196.3507773 -0.230460E-04  0.414E-03    0.95       2.4  T
   5   -196.3507785 -0.120933E-05  0.244E-03    0.95       4.1  T
   6   -196.3507789 -0.447805E-06  0.864E-04    0.95      11.6  T
   7   -196.3507790 -0.533228E-07  0.384E-04    0.95      26.0  T
     SCC iter.                  ...        0 min,  0.094 sec
     gradient                   ...        0 min,  0.031 sec
 * total energy  :  -193.4195948 Eh     change       -0.3667998E-03 Eh
   gradient norm :     0.0054130 Eh/α   predicted    -0.2805396E-03 ( -23.52%)
   displ. norm   :     0.6778439 α      lambda       -0.5119119E-03
   maximum displ.:     0.4203075 α      in ANC's #1, #5, #4, ...

........................................................................
.............................. CYCLE   37 ..............................
........................................................................
   1   -196.3558027 -0.196356E+03  0.981E-02    0.95       0.0  T
   2   -196.3558106 -0.789930E-05  0.565E-02    0.95       1.0  T
   3   -196.3557852  0.254694E-04  0.163E-02    0.95       1.0  T
   4   -196.3558130 -0.278314E-04  0.464E-03    0.95       2.2  T
   5   -196.3558145 -0.149260E-05  0.264E-03    0.95       3.8  T
   6   -196.3558150 -0.532558E-06  0.936E-04    0.95      10.7  T
   7   -196.3558151 -0.588408E-07  0.405E-04    0.95      24.7  T
     SCC iter.                  ...        0 min,  0.097 sec
     gradient                   ...        0 min,  0.031 sec
 * total energy  :  -193.4200195 Eh     change       -0.4246937E-03 Eh
   gradient norm :     0.0079830 Eh/α   predicted    -0.3735621E-03 ( -12.04%)
   displ. norm   :     0.7589773 α      lambda       -0.4877886E-03
   maximum displ.:     0.4845054 α      in ANC's #1, #5, #4, ...

........................................................................
.............................. CYCLE   38 ..............................
........................................................................
   1   -196.3532454 -0.196353E+03  0.125E-01    0.95       0.0  T
   2   -196.3532578 -0.123724E-04  0.712E-02    0.94       1.0  T
   3   -196.3532335  0.242517E-04  0.164E-02    0.95       1.0  T
   4   -196.3532621 -0.285821E-04  0.515E-03    0.94       1.9  T
   5   -196.3532634 -0.128761E-05  0.269E-03    0.95       3.7  T
   6   -196.3532638 -0.427829E-06  0.994E-04    0.95      10.1  T
   7   -196.3532639 -0.685521E-07  0.425E-04    0.95      23.5  T
     SCC iter.                  ...        0 min,  0.099 sec
     gradient                   ...        0 min,  0.031 sec
 * total energy  :  -193.4204084 Eh     change       -0.3889715E-03 Eh
   gradient norm :     0.0095798 Eh/α   predicted    -0.3843948E-03 (  -1.18%)
   displ. norm   :     0.7455818 α      lambda       -0.4565190E-03
   maximum displ.:     0.4794341 α      in ANC's #1, #5, #4, ...

........................................................................
.............................. CYCLE   39 ..............................
........................................................................
   1   -196.3538004 -0.196354E+03  0.103E-01    0.95       0.0  T
   2   -196.3538063 -0.592615E-05  0.598E-02    0.94       1.0  T
   3   -196.3537905  0.158467E-04  0.129E-02    0.95       1.0  T
   4   -196.3538084 -0.178590E-04  0.391E-03    0.94       2.6  T
   5   -196.3538090 -0.630205E-06  0.225E-03    0.94       4.4  T
   6   -196.3538094 -0.397341E-06  0.905E-04    0.94      11.0  T
   7   -196.3538095 -0.769072E-07  0.338E-04    0.94      29.6  T
     SCC iter.                  ...        0 min,  0.099 sec
     gradient                   ...        0 min,  0.032 sec
 * total energy  :  -193.4207858 Eh     change       -0.3774167E-03 Eh
   gradient norm :     0.0082933 Eh/α   predicted    -0.3551540E-03 (  -5.90%)
   displ. norm   :     0.7200879 α      lambda       -0.4569403E-03
   maximum displ.:     0.4827820 α      in ANC's #1, #5, #4, ...

........................................................................
.............................. CYCLE   40 ..............................
........................................................................
   1   -196.3560042 -0.196356E+03  0.971E-02    0.95       0.0  T
   2   -196.3560148 -0.105543E-04  0.562E-02    0.94       1.0  T
   3   -196.3559835  0.313076E-04  0.173E-02    0.95       1.0  T
   4   -196.3560182 -0.347076E-04  0.467E-03    0.95       2.1  T
   5   -196.3560199 -0.168932E-05  0.211E-03    0.95       4.7  T
   6   -196.3560201 -0.220014E-06  0.991E-04    0.95      10.1  T
   7   -196.3560202 -0.862200E-07  0.380E-04    0.95      26.3  T
     SCC iter.                  ...        0 min,  0.099 sec
     gradient                   ...        0 min,  0.031 sec
 * total energy  :  -193.4211505 Eh     change       -0.3646993E-03 Eh
   gradient norm :     0.0083565 Eh/α   predicted    -0.3469459E-03 (  -4.87%)
   displ. norm   :     0.7228093 α      lambda       -0.4494373E-03
   maximum displ.:     0.4915814 α      in ANC's #1, #5, #4, ...

........................................................................
.............................. CYCLE   41 ..............................
........................................................................
   1   -196.3547874 -0.196355E+03  0.104E-01    0.95       0.0  T
   2   -196.3547962 -0.874626E-05  0.597E-02    0.95       1.0  T
   3   -196.3547734  0.227882E-04  0.155E-02    0.95       1.0  T
   4   -196.3547993 -0.259039E-04  0.461E-03    0.95       2.2  T
   5   -196.3548005 -0.125852E-05  0.235E-03    0.95       4.3  T
   6   -196.3548009 -0.392710E-06  0.969E-04    0.95      10.3  T
   7   -196.3548010 -0.846298E-07  0.412E-04    0.95      24.3  T
     SCC iter.                  ...        0 min,  0.099 sec
     gradient                   ...        0 min,  0.031 sec
 * total energy  :  -193.4215165 Eh     change       -0.3659045E-03 Eh
   gradient norm :     0.0068632 Eh/α   predicted    -0.3421291E-03 (  -6.50%)
   displ. norm   :     0.6661170 α      lambda       -0.3808662E-03
   maximum displ.:     0.4630651 α      in ANC's #1, #5, #4, ...

........................................................................
.............................. CYCLE   42 ..............................
........................................................................
   1   -196.3542317 -0.196354E+03  0.904E-02    0.95       0.0  T
   2   -196.3542380 -0.630078E-05  0.521E-02    0.95       1.0  T
   3   -196.3542144  0.235402E-04  0.155E-02    0.95       1.0  T
   4   -196.3542405 -0.260767E-04  0.409E-03    0.95       2.4  T
   5   -196.3542417 -0.116656E-05  0.200E-03    0.95       5.0  T
   6   -196.3542419 -0.264223E-06  0.897E-04    0.95      11.2  T
   7   -196.3542420 -0.700319E-07  0.391E-04    0.95      25.6  T
     SCC iter.                  ...        0 min,  0.097 sec
     gradient                   ...        0 min,  0.031 sec
 * total energy  :  -193.4218090 Eh     change       -0.2925625E-03 Eh
   gradient norm :     0.0089581 Eh/α   predicted    -0.2749335E-03 (  -6.03%)
   displ. norm   :     0.5958792 α      lambda       -0.3766392E-03
   maximum displ.:     0.4198971 α      in ANC's #1, #5, #4, ...
 * RMSD in coord.:     1.1628590 α      energy gain  -0.8971341E-02 Eh

generating ANC from model Hessian ...
Using Lindh-Hessian (1995)
 Shifting diagonal of input Hessian by   1.002283163644717E-002
 Lowest  eigenvalues of input Hessian
    0.010000    0.000000    0.000000    0.000000    0.000000    0.000000
    0.000000    0.010033    0.010061    0.010094    0.010193    0.010298
    0.010320    0.010455    0.010550    0.010727    0.010976    0.010982
 Highest eigenvalues
    2.268319    2.289955    2.600844    2.606266    2.640247    2.651503
 

........................................................................
.............................. CYCLE   43 ..............................
........................................................................
   1   -196.3526401 -0.196353E+03  0.907E-02    0.95       0.0  T
   2   -196.3526495 -0.942962E-05  0.518E-02    0.95       1.0  T
   3   -196.3526175  0.320170E-04  0.183E-02    0.95       1.0  T
   4   -196.3526537 -0.362292E-04  0.445E-03    0.95       2.2  T
   5   -196.3526550 -0.130850E-05  0.233E-03    0.95       4.3  T
   6   -196.3526553 -0.291263E-06  0.968E-04    0.95      10.3  T
   7   -196.3526554 -0.784159E-07  0.381E-04    0.95      26.3  T
     SCC iter.                  ...        0 min,  0.096 sec
     gradient                   ...        0 min,  0.031 sec
 * total energy  :  -193.4220783 Eh     change       -0.2692739E-03 Eh
   gradient norm :     0.0100891 Eh/α   predicted     0.0000000E+00 (-100.00%)
   displ. norm   :     0.0743758 α      lambda       -0.1554756E-03
   maximum displ.:     0.0357518 α      in ANC's #1, #20, #8, ...

........................................................................
.............................. CYCLE   44 ..............................
........................................................................
   1   -196.3574190 -0.196357E+03  0.206E-02    0.95       0.0  T
   2   -196.3574203 -0.121528E-05  0.119E-02    0.95       1.0  T
   3   -196.3574167  0.352904E-05  0.679E-03    0.95       1.5  T
   4   -196.3574209 -0.415723E-05  0.169E-03    0.95       5.9  T
   5   -196.3574212 -0.267023E-06  0.799E-04    0.95      12.5  T
   6   -196.3574212 -0.458847E-07  0.343E-04    0.95      29.2  T
     SCC iter.                  ...        0 min,  0.082 sec
     gradient                   ...        0 min,  0.031 sec
 * total energy  :  -193.4221911 Eh     change       -0.1128062E-03 Eh
   gradient norm :     0.0038188 Eh/α   predicted    -0.7816835E-04 ( -30.71%)
   displ. norm   :     0.1610087 α      lambda       -0.1591713E-03
   maximum displ.:     0.0794569 α      in ANC's #1, #20, #8, ...

........................................................................
.............................. CYCLE   45 ..............................
........................................................................
   1   -196.3603265 -0.196360E+03  0.389E-02    0.95       0.0  T
   2   -196.3603293 -0.289828E-05  0.218E-02    0.95       1.0  T
   3   -196.3603224  0.694649E-05  0.906E-03    0.95       1.1  T
   4   -196.3603305 -0.809559E-05  0.246E-03    0.95       4.1  T
   5   -196.3603311 -0.557831E-06  0.112E-03    0.95       8.9  T
   6   -196.3603311 -0.851744E-07  0.500E-04    0.95      20.0  T
   7   -196.3603312 -0.170011E-07  0.241E-04    0.95      41.5  T
     SCC iter.                  ...        0 min,  0.097 sec
     gradient                   ...        0 min,  0.031 sec
 * total energy  :  -193.4223015 Eh     change       -0.1103842E-03 Eh
   gradient norm :     0.0052881 Eh/α   predicted    -0.8165836E-04 ( -26.02%)
   displ. norm   :     0.2581623 α      lambda       -0.1815895E-03
   maximum displ.:     0.1188806 α      in ANC's #1, #20, #8, ...

........................................................................
.............................. CYCLE   46 ..............................
........................................................................
   1   -196.3609488 -0.196361E+03  0.567E-02    0.95       0.0  T
   2   -196.3609530 -0.428656E-05  0.318E-02    0.95       1.0  T
   3   -196.3609433  0.974523E-05  0.107E-02    0.95       1.0  T
   4   -196.3609545 -0.111703E-04  0.311E-03    0.95       3.2  T
   5   -196.3609553 -0.854180E-06  0.155E-03    0.95       6.4  T
   6   -196.3609555 -0.171770E-06  0.653E-04    0.95      15.3  T
   7   -196.3609555 -0.281878E-07  0.318E-04    0.95      31.5  T
     SCC iter.                  ...        0 min,  0.096 sec
     gradient                   ...        0 min,  0.031 sec
 * total energy  :  -193.4223635 Eh     change       -0.6202573E-04 Eh
   gradient norm :     0.0079075 Eh/α   predicted    -0.9685606E-04 (  56.15%)
   displ. norm   :     0.2491497 α      lambda       -0.2252687E-03
   maximum displ.:     0.1345825 α      in ANC's #1, #2, #8, ...

........................................................................
.............................. CYCLE   47 ..............................
........................................................................
   1   -196.3591076 -0.196359E+03  0.707E-02    0.95       0.0  T
   2   -196.3591134 -0.571246E-05  0.393E-02    0.95       1.0  T
   3   -196.3591100  0.339615E-05  0.763E-03    0.95       1.3  T
   4   -196.3591156 -0.562811E-05  0.225E-03    0.95       4.4  T
   5   -196.3591158 -0.228171E-06  0.121E-03    0.95       8.3  T
   6   -196.3591159 -0.784978E-07  0.528E-04    0.95      18.9  T
   7   -196.3591159 -0.201628E-07  0.227E-04    0.95      44.1  T
     SCC iter.                  ...        0 min,  0.096 sec
     gradient                   ...        0 min,  0.031 sec
 * total energy  :  -193.4224758 Eh     change       -0.1123216E-03 Eh
   gradient norm :     0.0076776 Eh/α   predicted    -0.1196287E-03 (   6.51%)
   displ. norm   :     0.2037501 α      lambda       -0.2255556E-03
   maximum displ.:     0.1017377 α      in ANC's #1, #8, #2, ...

........................................................................
.............................. CYCLE   48 ..............................
........................................................................
   1   -196.3576696 -0.196358E+03  0.738E-02    0.95       0.0  T
   2   -196.3576757 -0.605893E-05  0.410E-02    0.95       1.0  T
   3   -196.3576596  0.160699E-04  0.123E-02    0.95       1.0  T
   4   -196.3576791 -0.194904E-04  0.204E-03    0.95       4.9  T
   5   -196.3576792 -0.153272E-06  0.124E-03    0.95       8.1  T
   6   -196.3576793 -0.951566E-07  0.504E-04    0.95      19.8  T
   7   -196.3576793 -0.201860E-07  0.182E-04    0.95      54.9  T
     SCC iter.                  ...        0 min,  0.097 sec
     gradient                   ...        0 min,  0.031 sec
 * total energy  :  -193.4225629 Eh     change       -0.8702428E-04 Eh
   gradient norm :     0.0066935 Eh/α   predicted    -0.1174611E-03 (  34.98%)
   displ. norm   :     0.2052010 α      lambda       -0.2312678E-03
   maximum displ.:     0.1128780 α      in ANC's #1, #2, #8, ...

........................................................................
.............................. CYCLE   49 ..............................
........................................................................
   1   -196.3568184 -0.196357E+03  0.518E-02    0.95       0.0  T
   2   -196.3568217 -0.336195E-05  0.290E-02    0.95       1.0  T
   3   -196.3568123  0.946138E-05  0.933E-03    0.95       1.1  T
   4   -196.3568234 -0.111734E-04  0.195E-03    0.95       5.1  T
   5   -196.3568237 -0.259331E-06  0.116E-03    0.95       8.7  T
   6   -196.3568238 -0.844932E-07  0.477E-04    0.95      21.0  T
   7   -196.3568238 -0.156368E-07  0.220E-04    0.95      45.5  T
     SCC iter.                  ...        0 min,  0.098 sec
     gradient                   ...        0 min,  0.031 sec
 * total energy  :  -193.4226963 Eh     change       -0.1334127E-03 Eh
   gradient norm :     0.0053064 Eh/α   predicted    -0.1205041E-03 (  -9.68%)
   displ. norm   :     0.3226246 α      lambda       -0.2817905E-03
   maximum displ.:     0.1778722 α      in ANC's #1, #2, #8, ...

........................................................................
.............................. CYCLE   50 ..............................
........................................................................
   1   -196.3567315 -0.196357E+03  0.621E-02    0.95       0.0  T
   2   -196.3567357 -0.422421E-05  0.350E-02    0.95       1.0  T
   3   -196.3567261  0.961841E-05  0.991E-03    0.96       1.0  T
   4   -196.3567374 -0.112828E-04  0.271E-03    0.95       3.7  T
   5   -196.3567379 -0.559416E-06  0.133E-03    0.95       7.5  T
   6   -196.3567381 -0.129746E-06  0.548E-04    0.95      18.2  T
   7   -196.3567381 -0.182453E-07  0.230E-04    0.95      43.5  T
     SCC iter.                  ...        0 min,  0.098 sec
     gradient                   ...        0 min,  0.031 sec
 * total energy  :  -193.4228733 Eh     change       -0.1770133E-03 Eh
   gradient norm :     0.0048965 Eh/α   predicted    -0.1555613E-03 ( -12.12%)
   displ. norm   :     0.4346881 α      lambda       -0.1960634E-03
   maximum displ.:     0.2504095 α      in ANC's #1, #2, #8, ...

........................................................................
.............................. CYCLE   51 ..............................
........................................................................
   1   -196.3554585 -0.196355E+03  0.506E-02    0.95       0.0  T
   2   -196.3554606 -0.202479E-05  0.293E-02    0.95       1.0  T
   3   -196.3554553  0.526632E-05  0.743E-03    0.95       1.3  T
   4   -196.3554614 -0.610012E-05  0.184E-03    0.95       5.4  T
   5   -196.3554616 -0.186319E-06  0.101E-03    0.95       9.9  T
   6   -196.3554616 -0.559587E-07  0.482E-04    0.95      20.7  T
   7   -196.3554617 -0.185171E-07  0.194E-04    0.95      51.6  T
     SCC iter.                  ...        0 min,  0.098 sec
     gradient                   ...        0 min,  0.031 sec
 * total energy  :  -193.4230377 Eh     change       -0.1644279E-03 Eh
   gradient norm :     0.0051699 Eh/α   predicted    -0.1165560E-03 ( -29.11%)
   displ. norm   :     0.4911506 α      lambda       -0.2513498E-03
   maximum displ.:     0.2861434 α      in ANC's #1, #2, #3, ...

........................................................................
.............................. CYCLE   52 ..............................
........................................................................
   1   -196.3561079 -0.196356E+03  0.607E-02    0.95       0.0  T
   2   -196.3561110 -0.313493E-05  0.347E-02    0.95       1.0  T
   3   -196.3560996  0.114016E-04  0.104E-02    0.95       1.0  T
   4   -196.3561124 -0.128005E-04  0.263E-03    0.96       3.8  T
   5   -196.3561129 -0.520321E-06  0.132E-03    0.95       7.6  T
   6   -196.3561130 -0.938896E-07  0.599E-04    0.95      16.7  T
   7   -196.3561131 -0.268595E-07  0.236E-04    0.95      42.4  T
     SCC iter.                  ...        0 min,  0.097 sec
     gradient                   ...        0 min,  0.031 sec
 * total energy  :  -193.4232405 Eh     change       -0.2027663E-03 Eh
   gradient norm :     0.0043360 Eh/α   predicted    -0.1559941E-03 ( -23.07%)
   displ. norm   :     0.5034486 α      lambda       -0.2440375E-03
   maximum displ.:     0.3025695 α      in ANC's #1, #2, #3, ...

........................................................................
.............................. CYCLE   53 ..............................
........................................................................
   1   -196.3589851 -0.196359E+03  0.581E-02    0.96       0.0  T
   2   -196.3589884 -0.327728E-05  0.332E-02    0.96       1.0  T
   3   -196.3589809  0.751678E-05  0.925E-03    0.96       1.1  T
   4   -196.3589896 -0.878785E-05  0.254E-03    0.96       3.9  T
   5   -196.3589900 -0.380531E-06  0.121E-03    0.96       8.2  T
   6   -196.3589901 -0.676921E-07  0.575E-04    0.96      17.4  T
   7   -196.3589901 -0.305344E-07  0.233E-04    0.96      43.0  T
     SCC iter.                  ...        0 min,  0.097 sec
     gradient                   ...        0 min,  0.031 sec
 * total energy  :  -193.4234416 Eh     change       -0.2011698E-03 Eh
   gradient norm :     0.0041041 Eh/α   predicted    -0.1529464E-03 ( -23.97%)
   displ. norm   :     0.5194882 α      lambda       -0.2180562E-03
   maximum displ.:     0.3113903 α      in ANC's #1, #2, #3, ...

........................................................................
.............................. CYCLE   54 ..............................
........................................................................
   1   -196.3591558 -0.196359E+03  0.562E-02    0.96       0.0  T
   2   -196.3591578 -0.194302E-05  0.323E-02    0.96       1.0  T
   3   -196.3591536  0.420840E-05  0.690E-03    0.96       1.4  T
   4   -196.3591586 -0.500003E-05  0.209E-03    0.96       4.8  T
   5   -196.3591587 -0.148515E-06  0.113E-03    0.96       8.8  T
   6   -196.3591588 -0.917129E-07  0.481E-04    0.96      20.8  T
   7   -196.3591588 -0.257489E-07  0.183E-04    0.96      54.6  T
     SCC iter.                  ...        0 min,  0.098 sec
     gradient                   ...        0 min,  0.030 sec
 * total energy  :  -193.4236423 Eh     change       -0.2006664E-03 Eh
   gradient norm :     0.0043333 Eh/α   predicted    -0.1384569E-03 ( -31.00%)
   displ. norm   :     0.5820069 α      lambda       -0.2619642E-03
   maximum displ.:     0.3529736 α      in ANC's #1, #2, #3, ...

........................................................................
.............................. CYCLE   55 ..............................
........................................................................
   1   -196.3589977 -0.196359E+03  0.620E-02    0.96       0.0  T
   2   -196.3589998 -0.207633E-05  0.355E-02    0.96       1.0  T
   3   -196.3589935  0.632133E-05  0.777E-03    0.96       1.3  T
   4   -196.3590006 -0.712300E-05  0.257E-03    0.96       3.9  T
   5   -196.3590009 -0.247549E-06  0.146E-03    0.96       6.9  T
   6   -196.3590011 -0.208241E-06  0.407E-04    0.96      24.6  T
   7   -196.3590011 -0.114248E-07  0.198E-04    0.96      50.5  T
     SCC iter.                  ...        0 min,  0.098 sec
     gradient                   ...        0 min,  0.031 sec
 * total energy  :  -193.4238845 Eh     change       -0.2421939E-03 Eh
   gradient norm :     0.0041814 Eh/α   predicted    -0.1753535E-03 ( -27.60%)
   displ. norm   :     0.6676507 α      lambda       -0.3006874E-03
   maximum displ.:     0.4085354 α      in ANC's #1, #2, #3, ...

........................................................................
.............................. CYCLE   56 ..............................
........................................................................
   1   -196.3580743 -0.196358E+03  0.704E-02    0.96       0.0  T
   2   -196.3580770 -0.271903E-05  0.403E-02    0.96       1.0  T
   3   -196.3580623  0.147133E-04  0.111E-02    0.96       1.0  T
   4   -196.3580781 -0.158614E-04  0.336E-03    0.96       3.0  T
   5   -196.3580788 -0.703943E-06  0.169E-03    0.96       5.9  T
   6   -196.3580791 -0.220029E-06  0.545E-04    0.96      18.4  T
   7   -196.3580791 -0.181498E-07  0.264E-04    0.96      37.8  T
     SCC iter.                  ...        0 min,  0.100 sec
     gradient                   ...        0 min,  0.031 sec
 * total energy  :  -193.4241604 Eh     change       -0.2759162E-03 Eh
   gradient norm :     0.0039087 Eh/α   predicted    -0.2173627E-03 ( -21.22%)
   displ. norm   :     0.7017877 α      lambda       -0.3045842E-03
   maximum displ.:     0.4340243 α      in ANC's #1, #2, #3, ...

........................................................................
.............................. CYCLE   57 ..............................
........................................................................
   1   -196.3574797 -0.196357E+03  0.737E-02    0.96       0.0  T
   2   -196.3574830 -0.328024E-05  0.421E-02    0.96       1.0  T
   3   -196.3574631  0.198224E-04  0.127E-02    0.96       1.0  T
   4   -196.3574843 -0.211592E-04  0.384E-03    0.96       2.6  T
   5   -196.3574854 -0.107475E-05  0.181E-03    0.96       5.5  T
   6   -196.3574856 -0.226799E-06  0.654E-04    0.96      15.3  T
   7   -196.3574856 -0.284428E-07  0.286E-04    0.96      34.9  T
     SCC iter.                  ...        0 min,  0.099 sec
     gradient                   ...        0 min,  0.031 sec
 * total energy  :  -193.4244387 Eh     change       -0.2783022E-03 Eh
   gradient norm :     0.0039106 Eh/α   predicted    -0.2273002E-03 ( -18.33%)
   displ. norm   :     0.7082012 α      lambda       -0.2935030E-03
   maximum displ.:     0.4412787 α      in ANC's #1, #2, #3, ...

........................................................................
.............................. CYCLE   58 ..............................
........................................................................
   1   -196.3570932 -0.196357E+03  0.737E-02    0.96       0.0  T
   2   -196.3570968 -0.356866E-05  0.421E-02    0.96       1.0  T
   3   -196.3570802  0.166146E-04  0.118E-02    0.96       1.0  T
   4   -196.3570979 -0.177170E-04  0.387E-03    0.96       2.6  T
   5   -196.3570991 -0.115692E-05  0.180E-03    0.96       5.5  T
   6   -196.3570993 -0.220361E-06  0.680E-04    0.96      14.7  T
   7   -196.3570993 -0.319826E-07  0.284E-04    0.96      35.2  T
     SCC iter.                  ...        0 min,  0.099 sec
     gradient                   ...        0 min,  0.031 sec
 * total energy  :  -193.4247085 Eh     change       -0.2697968E-03 Eh
   gradient norm :     0.0039086 Eh/α   predicted    -0.2203552E-03 ( -18.33%)
   displ. norm   :     0.7147237 α      lambda       -0.2917017E-03
   maximum displ.:     0.4486764 α      in ANC's #1, #2, #3, ...

........................................................................
.............................. CYCLE   59 ..............................
........................................................................
   1   -196.3576388 -0.196358E+03  0.750E-02    0.96       0.0  T
   2   -196.3576427 -0.387003E-05  0.429E-02    0.96       1.0  T
   3   -196.3576311  0.115317E-04  0.102E-02    0.96       1.0  T
   4   -196.3576440 -0.128332E-04  0.350E-03    0.96       2.9  T
   5   -196.3576447 -0.730286E-06  0.175E-03    0.96       5.7  T
   6   -196.3576449 -0.226509E-06  0.643E-04    0.96      15.6  T
[...]
    54   6 C        3.744    -0.008    20.799     6.506
    55   6 C        3.752    -0.112    22.702     6.795
    56   6 C        2.942    -0.012    28.320     8.728
    57   6 C        3.010    -0.035    28.862     8.813
    58   6 C        2.873     0.227    23.239     7.903
    59   8 O        0.856    -0.359    20.880     6.126
    60   6 C        3.038    -0.024    28.563     8.766
    61   6 C        2.921    -0.027    28.674     8.781
    62   6 C        2.965     0.013    27.719     8.636
    63   6 C        3.758    -0.109    22.633     6.783
    64   6 C        2.794     0.168    24.371     8.087
    65   9 F        0.788    -0.208    11.321     3.975
    66   6 C        2.911    -0.049    29.205     8.861
    67   6 C        3.043     0.004    27.885     8.661
    68   6 C        3.018     0.033    27.252     8.563
    69   6 C        2.947     0.005    27.903     8.664
    70   6 C        1.934     0.121    28.111     8.562
    71   7 N        0.911    -0.228    25.996     7.374
    72   6 C        1.934     0.124    28.037     8.551
    73   7 N        0.911    -0.239    26.255     7.411
    74   1 H        0.926     0.073     2.053     2.241
    75   1 H        0.926     0.066     2.132     2.283
    76   1 H        0.926     0.078     2.003     2.213
    77   1 H        0.926     0.082     1.957     2.187
    78   1 H        0.926     0.065     2.140     2.288
    79   1 H        0.924     0.057     2.234     2.337
    80   1 H        0.924     0.057     2.229     2.335
    81   1 H        0.925     0.039     2.458     2.452
    82   1 H        0.925     0.055     2.261     2.352
    83   1 H        0.925     0.043     2.408     2.427
    84   1 H        0.926     0.050     2.314     2.379
    85   1 H        0.925     0.062     2.180     2.309
    86   1 H        0.924     0.070     2.082     2.256
    87   1 H        0.925     0.054     2.273     2.358
    88   1 H        0.925     0.057     2.233     2.337
    89   1 H        0.925     0.049     2.338     2.391
    90   1 H        0.924     0.078     2.005     2.214
    91   1 H        0.925     0.061     2.182     2.310
    92   1 H        0.925     0.054     2.271     2.357
    93   1 H        0.925     0.052     2.291     2.367
    94   1 H        0.925     0.047     2.351     2.398
    95   1 H        0.925     0.081     1.969     2.194
    96   1 H        0.926     0.070     2.081     2.256
    97   1 H        0.925     0.055     2.256     2.349
    98   1 H        0.925     0.069     2.096     2.264
    99   1 H        0.925     0.069     2.099     2.265
   100   1 H        0.926     0.078     2.003     2.213

 Mol. C6AA /au·bohr⁶  :     194882.705582
 Mol. C8AA /au·bohr⁸  :    5504918.575395
 Mol. α(0) /au        :        702.163845


Wiberg/Mayer (AO) data.
largest (>0.10) Wiberg bond orders for each atom

 ---------------------------------------------------------------------------
     #   Z sym  total        # sym  WBO       # sym  WBO       # sym  WBO
 ---------------------------------------------------------------------------
     1   6 C    3.944 --     2 C    1.460    23 C    1.337    74 H    0.931
     2   6 C    3.950 --     1 C    1.460    17 C    1.151     3 C    1.078
     3   6 C    3.918 --     4 O    1.697     2 C    1.078     5 C    1.022
     4   8 O    2.112 --     3 C    1.697    29 S    0.141
     5   6 C    3.976 --     6 C    1.525    16 C    1.205     3 C    1.022
     6   6 C    3.975 --     5 C    1.525     7 C    1.269    75 H    0.963
     7   6 C    3.980 --     8 C    1.288     6 C    1.269    14 C    1.242
     8   6 C    3.977 --     9 C    1.493     7 C    1.288    76 H    0.962
                            13 C    0.106
     9   6 C    3.884 --     8 C    1.493    11 C    1.245    10 F    0.982
    10   9 F    1.118 --     9 C    0.982
    11   6 C    3.887 --    13 C    1.494     9 C    1.245    12 F    0.983
    12   9 F    1.120 --    11 C    0.983
    13   6 C    3.974 --    11 C    1.494    14 C    1.286    77 H    0.961
                             8 C    0.106
    14   6 C    3.984 --    13 C    1.286    15 C    1.273     7 C    1.242
    15   6 C    3.968 --    16 C    1.505    14 C    1.273    78 H    0.957
    16   6 C    3.980 --    15 C    1.505     5 C    1.205    17 C    1.083
    17   6 C    3.970 --    18 C    1.475     2 C    1.151    16 C    1.083
    18   6 C    3.931 --    17 C    1.475    19 C    1.101    21 C    1.097
    19   6 C    3.945 --    20 N    2.746    18 C    1.101
    20   7 N    2.964 --    19 C    2.746
    21   6 C    3.944 --    22 N    2.761    18 C    1.097
    22   7 N    2.967 --    21 C    2.761
    23   6 C    3.928 --     1 C    1.337    24 C    1.318    29 S    1.072
    24   6 C    3.955 --    27 C    1.373    23 C    1.318    25 C    1.019
    25   6 C    3.992 --    24 C    1.019    26 C    0.991    80 H    0.968
                            79 H    0.962
    26   6 C    3.989 --    25 C    0.991    83 H    0.988    81 H    0.987
                            82 H    0.983
    27   6 C    3.927 --    24 C    1.373    28 C    1.281    32 S    1.078
    28   6 C    3.940 --    27 C    1.281    30 C    1.260    29 S    1.157
    29  16 S    2.730 --    28 C    1.157    23 C    1.072     4 O    0.141
    30   6 C    3.936 --    31 C    1.294    28 C    1.260    53 N    1.155
    31   6 C    3.915 --    30 C    1.294    33 C    1.285    32 S    1.114
    32  16 S    2.503 --    31 C    1.114    27 C    1.078
    33   6 C    3.954 --    31 C    1.285    52 C    1.261    34 C    1.170
    34   6 C    3.973 --    35 N    1.427    38 C    1.171    33 C    1.170
                            36 S    0.101
    35   7 N    3.074 --    34 C    1.427    36 S    1.394    37 N    0.148
    36  16 S    3.111 --    37 N    1.394    35 N    1.394    38 C    0.101
                            34 C    0.101
    37   7 N    3.074 --    38 C    1.427    36 S    1.394    35 N    0.148
    38   6 C    3.973 --    37 N    1.427    34 C    1.171    39 C    1.169
                            36 S    0.101
    39   6 C    3.953 --    40 C    1.280    51 C    1.267    38 C    1.169
    40   6 C    3.920 --    47 C    1.297    39 C    1.280    41 S    1.113
    41  16 S    2.515 --    40 C    1.113    42 C    1.096
    42   6 C    3.934 --    43 C    1.351    46 C    1.304    41 S    1.096
    43   6 C    3.977 --    44 C    1.431    42 C    1.351    84 H    0.960
    44   6 C    3.927 --    43 C    1.431    56 C    1.238    45 S    1.080
    45  16 S    2.561 --    46 C    1.140    44 C    1.080
    46   6 C    3.934 --    42 C    1.304    47 C    1.255    45 S    1.140
    47   6 C    3.937 --    40 C    1.297    46 C    1.255    48 N    1.159
    48   7 N    3.555 --    51 C    1.165    47 C    1.159    49 C    0.981
    49   6 C    3.962 --    50 C    1.006    48 N    0.981    86 H    0.963
                            85 H    0.955
    50   6 C    3.988 --    49 C    1.006    88 H    0.986    89 H    0.983
                            87 H    0.983
    51   6 C    3.925 --    39 C    1.267    52 C    1.227    48 N    1.165
    52   6 C    3.924 --    33 C    1.261    51 C    1.227    53 N    1.172
    53   7 N    3.557 --    52 C    1.172    30 C    1.155    54 C    0.981
    54   6 C    3.961 --    55 C    1.007    53 N    0.981    90 H    0.961
                            91 H    0.955
    55   6 C    3.988 --    54 C    1.007    93 H    0.986    92 H    0.983
                            94 H    0.983
    56   6 C    3.945 --    57 C    1.554    44 C    1.238    95 H    0.949
    57   6 C    3.954 --    56 C    1.554    68 C    1.135    58 C    1.010
    58   6 C    3.925 --    59 O    1.780    60 C    1.019    57 C    1.010
    59   8 O    2.054 --    58 C    1.780
    60   6 C    3.975 --    61 C    1.417    67 C    1.292    58 C    1.019
    61   6 C    3.982 --    60 C    1.417    62 C    1.400    96 H    0.963
    62   6 C    3.969 --    61 C    1.400    64 C    1.346    63 C    1.035
    63   6 C    3.990 --    62 C    1.035    97 H    0.984    99 H    0.964
                            98 H    0.963
    64   6 C    3.880 --    66 C    1.399    62 C    1.346    65 F    0.973
    65   9 F    1.107 --    64 C    0.973
    66   6 C    3.977 --    64 C    1.399    67 C    1.398   100 H    0.958
    67   6 C    3.983 --    66 C    1.398    60 C    1.292    68 C    1.081
    68   6 C    3.976 --    69 C    1.486    57 C    1.135    67 C    1.081
    69   6 C    3.970 --    68 C    1.486    72 C    1.100    70 C    1.097
    70   6 C    3.947 --    71 N    2.770    69 C    1.097
    71   7 N    2.972 --    70 C    2.770
    72   6 C    3.946 --    73 N    2.764    69 C    1.100
    73   7 N    2.978 --    72 C    2.764
    74   1 H    0.994 --     1 C    0.931
    75   1 H    0.995 --     6 C    0.963
    76   1 H    0.993 --     8 C    0.962
    77   1 H    0.993 --    13 C    0.961
    78   1 H    0.995 --    15 C    0.957
    79   1 H    0.996 --    25 C    0.962
    80   1 H    0.996 --    25 C    0.968
    81   1 H    0.998 --    26 C    0.987
    82   1 H    0.995 --    26 C    0.983
    83   1 H    0.998 --    26 C    0.988
    84   1 H    0.997 --    43 C    0.960
    85   1 H    0.994 --    49 C    0.955
    86   1 H    0.994 --    49 C    0.963
    87   1 H    0.996 --    50 C    0.983
    88   1 H    0.997 --    50 C    0.986
    89   1 H    0.997 --    50 C    0.983
    90   1 H    0.993 --    54 C    0.961
    91   1 H    0.994 --    54 C    0.955
    92   1 H    0.996 --    55 C    0.983
    93   1 H    0.997 --    55 C    0.986
    94   1 H    0.997 --    55 C    0.983
    95   1 H    0.990 --    56 C    0.949
    96   1 H    0.994 --    61 C    0.963
    97   1 H    0.997 --    63 C    0.984
    98   1 H    0.993 --    63 C    0.963
    99   1 H    0.992 --    63 C    0.964
   100   1 H    0.993 --    66 C    0.958
 ---------------------------------------------------------------------------

Topologies differ in bond orders
Writing corrected topology to xtbtopo.mol

molecular dipole:
                 x           y           z       tot (Debye)
 q only:       -0.422       0.443       2.101
   full:       -0.096       1.114       2.689       7.403
molecular quadrupole (traceless):
                xx          xy          yy          xz          yz          zz
 q only:       36.582      18.732     -12.352     -35.219      67.453     -24.230
  q+dip:       33.615      16.034     -20.503     -34.798      61.422     -13.112
   full:       45.711      11.917     -26.195     -42.100      64.418     -19.517

           -------------------------------------------------
          |                Geometry Summary                 |
           -------------------------------------------------

      molecular mass/u    :     1049.1764568
   center of mass at/Å    :        0.3195294       0.2102328      -0.4478318
  moments of inertia/u·Å² :        0.1073712E+05   0.7033462E+05   0.7958954E+05
rotational constants/cm⁻¹ :        0.1570033E-02   0.2396776E-03   0.2118071E-03

 * 96 selected distances

     #   Z          #   Z                                           value/Å
     1   6 C        2   6 C                                       1.3768919
     3   6 C        4   8 O                                       1.2204058
     5   6 C        6   6 C                                       1.3642488
     6   6 C        7   6 C                                       1.4130401
     7   6 C        8   6 C                                       1.4080599
     8   6 C        9   6 C                                       1.3668727
     9   6 C       11   6 C                                       1.4087758
    11   6 C       12   9 F                                       1.3400301
    11   6 C       13   6 C                                       1.3668447
     7   6 C       14   6 C                                       1.4245328
    13   6 C       14   6 C                                       1.4091036
    14   6 C       15   6 C                                       1.4144252
     5   6 C       16   6 C                                       1.4226898
    15   6 C       16   6 C                                       1.3693558
    17   6 C       18   6 C                                       1.3730790
    19   6 C       20   7 N                                       1.1495127
    21   6 C       22   7 N                                       1.1483763
     1   6 C       23   6 C                                       1.3950478
    23   6 C       24   6 C                                       1.4083800
    24   6 C       25   6 C                                       1.4933130
    25   6 C       26   6 C                                       1.5315285
    24   6 C       27   6 C                                       1.3863746
    27   6 C       28   6 C                                       1.4074656
    28   6 C       29  16 S                                       1.7235391
    28   6 C       30   6 C                                       1.3972661
    30   6 C       31   6 C                                       1.4004207
    27   6 C       32  16 S                                       1.7544226
    31   6 C       32  16 S                                       1.7284105
    31   6 C       33   6 C                                       1.3988928
    33   6 C       34   6 C                                       1.4122171
    34   6 C       35   7 N                                       1.3238299
    35   7 N       36  16 S                                       1.6185947
    36  16 S       37   7 N                                       1.6182928
    34   6 C       38   6 C                                       1.4309837
    37   7 N       38   6 C                                       1.3237348
    38   6 C       39   6 C                                       1.4123722
    39   6 C       40   6 C                                       1.4000540
    40   6 C       41  16 S                                       1.7299535
    41  16 S       42   6 C                                       1.7467828
    42   6 C       43   6 C                                       1.3899030
    43   6 C       44   6 C                                       1.3836954
    44   6 C       45  16 S                                       1.7571898 (max)
    42   6 C       46   6 C                                       1.4059690
    45  16 S       46   6 C                                       1.7214276
    40   6 C       47   6 C                                       1.3995238
    46   6 C       47   6 C                                       1.3976092
    47   6 C       48   7 N                                       1.3682186
    48   7 N       49   6 C                                       1.4459402
    49   6 C       50   6 C                                       1.5266878
    39   6 C       51   6 C                                       1.4273398
    48   7 N       51   6 C                                       1.3860936
    33   6 C       52   6 C                                       1.4288177
    51   6 C       52   6 C                                       1.4219481
    30   6 C       53   7 N                                       1.3691819
    52   6 C       53   7 N                                       1.3843620
    53   7 N       54   6 C                                       1.4461549
    54   6 C       55   6 C                                       1.5268413
    44   6 C       56   6 C                                       1.4116606
    56   6 C       57   6 C                                       1.3623420
    58   6 C       59   8 O                                       1.2095364
    60   6 C       61   6 C                                       1.3813599
    61   6 C       62   6 C                                       1.3905446
    62   6 C       64   6 C                                       1.3968841
    64   6 C       66   6 C                                       1.3853988
    60   6 C       67   6 C                                       1.4064896
    66   6 C       67   6 C                                       1.3850652
    68   6 C       69   6 C                                       1.3707895
    70   6 C       71   7 N                                       1.1476279
    72   6 C       73   7 N                                       1.1480107
     1   6 C       74   1 H                                       1.0812185
     6   6 C       75   1 H                                       1.0794267
     8   6 C       76   1 H                                       1.0787801
    13   6 C       77   1 H                                       1.0788470
    15   6 C       78   1 H                                       1.0777031
    25   6 C       79   1 H                                       1.0908428
    25   6 C       80   1 H                                       1.0917510
    26   6 C       81   1 H                                       1.0874994
    26   6 C       82   1 H                                       1.0860450
    26   6 C       83   1 H                                       1.0874819
    43   6 C       84   1 H                                       1.0748218 (min)
    49   6 C       85   1 H                                       1.0889492
    49   6 C       86   1 H                                       1.0927283
    50   6 C       87   1 H                                       1.0865159
    50   6 C       88   1 H                                       1.0874419
    50   6 C       89   1 H                                       1.0877611
    54   6 C       90   1 H                                       1.0925847
    54   6 C       91   1 H                                       1.0895801
    55   6 C       92   1 H                                       1.0865045
    55   6 C       93   1 H                                       1.0874714
    55   6 C       94   1 H                                       1.0878766
    56   6 C       95   1 H                                       1.0859116
    61   6 C       96   1 H                                       1.0793123
    63   6 C       97   1 H                                       1.0858924
    63   6 C       98   1 H                                       1.0896604
    63   6 C       99   1 H                                       1.0894198
    66   6 C      100   1 H                                       1.0777510

 * 7 distinct bonds (by element types)

   Z      Z             #   av. dist./Å        max./Å        min./Å
   1 H    6 C          27     1.0855473     1.0927283     1.0748218
   6 C    6 C          45     1.4086912     1.5315285     1.3623420
   6 C    7 N          12     1.3034203     1.4461549     1.1476279
   6 C    8 O           2     1.2149711     1.2204058     1.2095364
   6 C    9 F           1     1.3400301     1.3400301     1.3400301
   6 C   16 S           7     1.7373894     1.7571898     1.7214276
   7 N   16 S           2     1.6184438     1.6185947     1.6182928


optimized geometry written to: xtbopt.mol


           -------------------------------------------------
          | TOTAL ENERGY             -193.434502432208 Eh   |
          | GRADIENT NORM               0.000635300840 Eh/α |
          | HOMO-LUMO GAP               1.059219234449 eV   |
           -------------------------------------------------

------------------------------------------------------------------------
 * finished run on 2022/02/02 at 00:14:41.015     
------------------------------------------------------------------------
 total:
 * wall-time:     0 d,  0 h,  0 min, 26.752 sec
 *  cpu-time:     0 d,  0 h,  3 min, 33.801 sec
 * ratio c/w:     7.992 speedup
 SCF:
 * wall-time:     0 d,  0 h,  0 min,  0.253 sec
 *  cpu-time:     0 d,  0 h,  0 min,  2.008 sec
 * ratio c/w:     7.944 speedup
 ANC optimizer:
 * wall-time:     0 d,  0 h,  0 min, 26.432 sec
 *  cpu-time:     0 d,  0 h,  3 min, 31.339 sec
 * ratio c/w:     7.996 speedup

