      -----------------------------------------------------------      
     |                   =====================                   |     
     |                           x T B                           |     
     |                   =====================                   |     
     |                         S. Grimme                         |     
     |          Mulliken Center for Theoretical Chemistry        |     
     |                    University of Bonn                     |     
      -----------------------------------------------------------      

   * xtb version 6.4.1 (unknown) compiled by 'oda6@login1.crc.pitt.edu' on 2021-06-25

   xtb is free software: you can redistribute it and/or modify it under
   the terms of the GNU Lesser General Public License as published by
   the Free Software Foundation, either version 3 of the License, or
   (at your option) any later version.
   
   xtb is distributed in the hope that it will be useful,
   but WITHOUT ANY WARRANTY; without even the implied warranty of
   MERCHANTABILITY or FITNESS FOR A PARTICULAR PURPOSE.  See the
   GNU Lesser General Public License for more details.
   
   Cite this work as:
   * C. Bannwarth, E. Caldeweyher, S. Ehlert, A. Hansen, P. Pracht,
     J. Seibert, S. Spicher, S. Grimme, WIREs Comput. Mol. Sci., 2020, 11,
     e01493. DOI: 10.1002/wcms.1493
   
   for GFN2-xTB:
   * C. Bannwarth, S. Ehlert and S. Grimme., J. Chem. Theory Comput., 2019,
     15, 1652-1671. DOI: 10.1021/acs.jctc.8b01176
   for GFN1-xTB:
   * S. Grimme, C. Bannwarth, P. Shushkov, J. Chem. Theory Comput., 2017,
     13, 1989-2009. DOI: 10.1021/acs.jctc.7b00118
   for GFN0-xTB:
   * P. Pracht, E. Caldeweyher, S. Ehlert, S. Grimme, ChemRxiv, 2019, preprint.
     DOI: 10.26434/chemrxiv.8326202.v1
   for GFN-FF:
   * S. Spicher and S. Grimme, Angew. Chem. Int. Ed., 2020, 59, 15665-15673.
     DOI: 10.1002/anie.202004239
   
   for DFT-D4:
   * E. Caldeweyher, C. Bannwarth and S. Grimme, J. Chem. Phys., 2017,
     147, 034112. DOI: 10.1063/1.4993215
   * E. Caldeweyher, S. Ehlert, A. Hansen, H. Neugebauer, S. Spicher,
     C. Bannwarth and S. Grimme, J. Chem. Phys., 2019, 150, 154122.
     DOI: 10.1063/1.5090222
   * E. Caldeweyher, J.-M. Mewes, S. Ehlert and S. Grimme, Phys. Chem. Chem. Phys.
     2020, 22, 8499-8512. DOI: 10.1039/D0CP00502A
   
   for sTDA-xTB:
   * S. Grimme and C. Bannwarth, J. Chem. Phys., 2016, 145, 054103.
     DOI: 10.1063/1.4959605
   
   in the mass-spec context:
   * V. Asgeirsson, C. Bauer and S. Grimme, Chem. Sci., 2017, 8, 4879.
     DOI: 10.1039/c7sc00601b
   * J. Koopman and S. Grimme, ACS Omega 2019, 4, 12, 15120-15133.
     DOI: 10.1021/acsomega.9b02011
   
   for metadynamics refer to:
   * S. Grimme, J. Chem. Theory Comput., 2019, 155, 2847-2862
     DOI: 10.1021/acs.jctc.9b00143
   
   for SPH calculations refer to:
   * S. Spicher and S. Grimme, J. Chem. Theory Comput., 2021, 17, 1701-1714
     DOI: 10.1021/acs.jctc.0c01306
   
   with help from (in alphabetical order)
   P. Atkinson, C. Bannwarth, F. Bohle, G. Brandenburg, E. Caldeweyher
   M. Checinski, S. Dohm, S. Ehlert, S. Ehrlich, I. Gerasimov, J. Koopman
   C. Lavigne, S. Lehtola, F. März, M. Müller, F. Musil, H. Neugebauer
   J. Pisarek, C. Plett, P. Pracht, J. Seibert, P. Shushkov, S. Spicher
   M. Stahn, M. Steiner, T. Strunk, J. Stückrath, T. Rose, and J. Unsleber
   
 * started run on 2022/01/11 at 10:03:17.962     

           -------------------------------------------------
          |                Calculation Setup                |
           -------------------------------------------------

          program call               : /ihome/ghutchison/oda6/xtb/xtb-641/bin//xtb AOT2.mol --sp --alpb water
          hostname                   : smp-n65
          coordinate file            : AOT2.mol
          omp threads                :                     1
          number of atoms            :                    91
          number of electrons        :                   314
          charge                     :                     0
          spin                       :                   0.0
          first test random number   :      0.24183125261015

   ID    Z sym.   atoms
    1    8 O      1, 22, 30, 37, 44, 60
    2    6 C      2-7, 9, 11-14, 16, 18-21, 23-26, 28, 29, 31-36, 38-43,
                  45-47, 49, 51-54, 56, 58, 61, 62
    3    9 F      8, 10, 55, 57
    4    7 N      15, 17, 48, 50
    5   16 S      27, 59, 63
    6    1 H      64-91

           -------------------------------------------------
          |                 G F N 2 - x T B                 |
           -------------------------------------------------

        Reference                      10.1021/acs.jctc.8b01176
      * Hamiltonian:
        H0-scaling (s, p, d)           1.850000    2.230000    2.230000
        zeta-weighting                 0.500000
      * Dispersion:
        s8                             2.700000
        a1                             0.520000
        a2                             5.000000
        s9                             5.000000
      * Repulsion:
        kExp                           1.500000    1.000000
        rExp                           1.000000
      * Coulomb:
        alpha                          2.000000
        third order                    shell-resolved
        anisotropic                    true
        a3                             3.000000
        a5                             4.000000
        cn-shift                       1.200000
        cn-exp                         4.000000
        max-rad                        5.000000

      * Solvation model:               ALPB
        Solvent                        water
        Parameter file                 internal GFN2-xTB/ALPB
        Dielectric constant                8.0200E+01
        Reference state                gsolv [1 M gas/solution]
        Free energy shift                  1.0808E-03 Eh       6.7819E-01 kcal/mol
        Temperature                        2.9815E+02 K
        Density                            1.0000E+00 kg/L
        Solvent mass                       1.8000E+01 g/mol
        Interaction kernel             P16
        Born radius scaling (c1)           1.4744E+00
        Born radii integrator          GBOBC
        Born offset                        0.0000E+00 a0       0.0000E+00 AA
        H-bond correction              true
        Ion screening                  false
        Surface tension                    1.0000E-05 Eh       1.5569E+01 dyn/cm
        Grid points                               230 per atom

          ...................................................
          :                      SETUP                      :
          :.................................................:
          :  # basis functions                 298          :
          :  # atomic orbitals                 295          :
          :  # shells                          157          :
          :  # electrons                       314          :
          :  max. iterations                   250          :
          :  Hamiltonian                  GFN2-xTB          :
          :  restarted?                      false          :
          :  GBSA solvation                   true          :
          :  PC potential                    false          :
          :  electronic temp.          300.0000000     K    :
          :  accuracy                    1.0000000          :
          :  -> integral cutoff          0.2500000E+02      :
          :  -> integral neglect         0.1000000E-07      :
          :  -> SCF convergence          0.1000000E-05 Eh   :
          :  -> wf. convergence          0.1000000E-03 e    :
          :  Broyden damping             0.4000000          :
          ...................................................

 iter      E             dE          RMSdq      gap      omega  full diag
   1   -179.6504533 -0.179650E+03  0.504E+00    0.99       0.0  T
   2   -179.7838347 -0.133381E+00  0.289E+00    0.98       1.0  T
   3   -179.6887698  0.950649E-01  0.158E+00    0.78       1.0  T
   4   -179.8317008 -0.142931E+00  0.486E-01    0.89       1.0  T
   5   -179.8427650 -0.110643E-01  0.154E-01    0.85       1.0  T
   6   -179.8433804 -0.615409E-03  0.725E-02    0.87       1.0  T
   7   -179.8434524 -0.719661E-04  0.309E-02    0.86       1.0  T
   8   -179.8434904 -0.379900E-04  0.137E-02    0.87       1.0  T
   9   -179.8434947 -0.428814E-05  0.685E-03    0.87       1.5  T
  10   -179.8434964 -0.170477E-05  0.337E-03    0.87       3.1  T
  11   -179.8434967 -0.300153E-06  0.177E-03    0.87       5.9  T
  12   -179.8434967 -0.306206E-07  0.104E-03    0.87      10.1  T
  13   -179.8434967 -0.246535E-07  0.500E-04    0.87      21.0  T
  14   -179.8434967 -0.663925E-08  0.261E-04    0.87      40.2  T

   *** convergence criteria satisfied after 14 iterations ***

         #    Occupation            Energy/Eh            Energy/eV
      -------------------------------------------------------------
         1        2.0000           -0.8584629             -23.3600
       ...           ...                  ...                  ...
       151        2.0000           -0.4164559             -11.3323
       152        2.0000           -0.4140559             -11.2670
       153        2.0000           -0.4068463             -11.0709
       154        2.0000           -0.4030000             -10.9662
       155        2.0000           -0.3932572             -10.7011
       156        2.0000           -0.3915707             -10.6552
       157        2.0000           -0.3756634             -10.2223 (HOMO)
       158        0.0000           -0.3438050              -9.3554 (LUMO)
       159                         -0.3357747              -9.1369
       160                         -0.3312542              -9.0139
       161                         -0.3200549              -8.7091
       162                         -0.2911596              -7.9229
       ...                                ...                  ...
       295                          1.1526347              31.3648
      -------------------------------------------------------------
                  HL-Gap            0.0318584 Eh            0.8669 eV
             Fermi-level           -0.3597343 Eh           -9.7889 eV

 SCC (total)                   0 d,  0 h,  0 min,  0.435 sec
 SCC setup                      ...        0 min,  0.005 sec (  1.237%)
 Dispersion                     ...        0 min,  0.004 sec (  0.894%)
 classical contributions        ...        0 min,  0.000 sec (  0.081%)
 integral evaluation            ...        0 min,  0.039 sec (  9.076%)
 iterations                     ...        0 min,  0.245 sec ( 56.292%)
 molecular gradient             ...        0 min,  0.139 sec ( 32.027%)
 printout                       ...        0 min,  0.002 sec (  0.378%)

         :::::::::::::::::::::::::::::::::::::::::::::::::::::
         ::                     SUMMARY                     ::
         :::::::::::::::::::::::::::::::::::::::::::::::::::::
         :: total energy            -177.395859315668 Eh    ::
         :: total w/o Gsasa/hb      -177.379067455018 Eh    ::
         :: gradient norm              0.040995195803 Eh/a0 ::
         :: HOMO-LUMO gap              0.866912053416 eV    ::
         ::.................................................::
         :: SCC energy              -179.843496743485 Eh    ::
         :: -> isotropic ES            0.225176313526 Eh    ::
         :: -> anisotropic ES          0.008157266192 Eh    ::
         :: -> anisotropic XC          0.081266204542 Eh    ::
         :: -> dispersion             -0.129748443937 Eh    ::
         :: -> Gsolv                  -0.054992720769 Eh    ::
         ::    -> Gelec               -0.038200860118 Eh    ::
         ::    -> Gsasa               -0.010851423489 Eh    ::
         ::    -> Ghb                 -0.007021196859 Eh    ::
         ::    -> Gshift               0.001080759698 Eh    ::
         :: repulsion energy           2.448019826521 Eh    ::
         :: add. restraining           0.000000000000 Eh    ::
         :: total charge              -0.000000000023 e     ::
         :::::::::::::::::::::::::::::::::::::::::::::::::::::

           -------------------------------------------------
          |                Property Printout                |
           -------------------------------------------------

    * Orbital Energies and Occupations

         #    Occupation            Energy/Eh            Energy/eV
      -------------------------------------------------------------
         1        2.0000           -0.8584629             -23.3600
       ...           ...                  ...                  ...
       145        2.0000           -0.4413757             -12.0104
       146        2.0000           -0.4405843             -11.9889
       147        2.0000           -0.4334594             -11.7950
       148        2.0000           -0.4298543             -11.6969
       149        2.0000           -0.4280154             -11.6469
       150        2.0000           -0.4212970             -11.4641
       151        2.0000           -0.4164559             -11.3323
       152        2.0000           -0.4140559             -11.2670
       153        2.0000           -0.4068463             -11.0709
       154        2.0000           -0.4030000             -10.9662
       155        2.0000           -0.3932572             -10.7011
       156        2.0000           -0.3915707             -10.6552
       157        2.0000           -0.3756634             -10.2223 (HOMO)
       158        0.0000           -0.3438050              -9.3554 (LUMO)
       159                         -0.3357747              -9.1369
       160                         -0.3312542              -9.0139
       161                         -0.3200549              -8.7091
       162                         -0.2911596              -7.9229
       163                         -0.2781418              -7.5686
       164                         -0.2660834              -7.2405
       165                         -0.2574413              -7.0053
       166                         -0.2507511              -6.8233
       167                         -0.2492655              -6.7829
       168                         -0.2454432              -6.6788
       ...                                ...                  ...
       295                          1.1526347              31.3648
      -------------------------------------------------------------
                  HL-Gap            0.0318584 Eh            0.8669 eV
             Fermi-level           -0.3597343 Eh           -9.7889 eV

     #   Z          covCN         q      C6AA      α(0)
     1   8 O        0.979    -0.382    21.261     6.185
     2   6 C        2.873     0.234    23.116     7.882
     3   6 C        3.008    -0.034    28.839     8.809
     4   6 C        3.019     0.041    27.055     8.532
     5   6 C        3.037     0.013    27.694     8.632
     6   6 C        2.914    -0.044    29.102     8.846
     7   6 C        2.782     0.171    24.314     8.077
     8   9 F        0.787    -0.216    11.400     3.988
     9   6 C        2.783     0.170    24.331     8.079
    10   9 F        0.787    -0.215    11.397     3.988
    11   6 C        2.912    -0.038    28.952     8.823
    12   6 C        3.048    -0.013    28.296     8.724
    13   6 C        2.947     0.013    27.733     8.637
    14   6 C        1.944     0.135    27.787     8.513
    15   7 N        0.911    -0.270    26.978     7.512
    16   6 C        1.943     0.135    27.778     8.511
    17   7 N        0.911    -0.267    26.900     7.501
    18   6 C        2.919    -0.011    28.282     8.721
    19   6 C        2.977     0.032    27.273     8.566
    20   6 C        3.090    -0.076    29.792     8.947
    21   6 C        3.000     0.148    24.774     8.165
    22   8 O        1.704    -0.266    18.417     5.794
    23   6 C        3.694     0.067    19.623     6.337
    24   6 C        3.750    -0.131    23.082     6.852
    25   6 C        3.046     0.001    27.966     8.673
    26   6 C        3.025     0.005    27.886     8.662
    27  16 S        2.424     0.004   140.908    19.979
    28   6 C        3.023     0.111    25.528     8.288
    29   6 C        3.017     0.124    25.266     8.245
    30   8 O        1.704    -0.257    18.266     5.770
    31   6 C        3.688     0.076    19.489     6.319
    32   6 C        3.751    -0.130    23.065     6.849
    33   6 C        3.018    -0.005    28.120     8.699
    34   6 C        3.023     0.048    26.893     8.507
    35   6 C        3.081    -0.084    30.006     8.980
    36   6 C        3.017     0.170    24.320     8.089
    37   8 O        1.705    -0.246    18.073     5.740
    38   6 C        3.696     0.069    19.588     6.331
    39   6 C        3.750    -0.132    23.092     6.853
    40   6 C        2.980     0.007    27.856     8.658
    41   6 C        2.943    -0.004    28.132     8.699
    42   6 C        3.011    -0.040    28.969     8.829
    43   6 C        2.866     0.236    23.075     7.874
    44   8 O        0.856    -0.411    21.905     6.275
    45   6 C        3.021     0.039    27.108     8.540
    46   6 C        2.947     0.005    27.910     8.665
    47   6 C        1.937     0.133    27.836     8.520
    48   7 N        0.911    -0.281    27.253     7.550
    49   6 C        1.937     0.132    27.856     8.523
    50   7 N        0.911    -0.277    27.162     7.538
    51   6 C        3.034     0.012    27.724     8.636
    52   6 C        3.048    -0.016    28.355     8.733
    53   6 C        2.913    -0.040    28.995     8.830
    54   6 C        2.782     0.167    24.391     8.089
    55   9 F        0.787    -0.219    11.437     3.995
    56   6 C        2.782     0.168    24.369     8.086
    57   9 F        0.787    -0.220    11.444     3.996
    58   6 C        2.914    -0.046    29.140     8.852
    59  16 S        2.364    -0.001   141.094    19.992
    60   8 O        1.702    -0.296    18.924     5.873
    61   6 C        3.698     0.076    19.469     6.311
    62   6 C        3.750    -0.126    22.974     6.836
    63  16 S        2.460     0.055   138.844    19.832
    64   1 H        0.926     0.101     1.780     2.086
    65   1 H        0.926     0.119     1.625     1.994
    66   1 H        0.925     0.086     1.917     2.165
    67   1 H        0.926     0.086     1.914     2.163
    68   1 H        0.924     0.077     2.006     2.215
    69   1 H        0.924     0.050     2.314     2.379
    70   1 H        0.925     0.055     2.256     2.349
    71   1 H        0.925     0.060     2.203     2.321
    72   1 H        0.925     0.067     2.115     2.274
    73   1 H        0.924     0.057     2.235     2.338
    74   1 H        0.924     0.057     2.231     2.336
    75   1 H        0.925     0.062     2.173     2.305
    76   1 H        0.925     0.065     2.139     2.287
    77   1 H        0.925     0.070     2.088     2.260
    78   1 H        0.926     0.099     1.794     2.094
    79   1 H        0.924     0.073     2.055     2.242
    80   1 H        0.924     0.061     2.182     2.310
    81   1 H        0.925     0.061     2.188     2.313
    82   1 H        0.925     0.059     2.207     2.323
    83   1 H        0.925     0.073     2.053     2.241
    84   1 H        0.925     0.075     2.032     2.229
    85   1 H        0.926     0.114     1.661     2.015
    86   1 H        0.926     0.096     1.820     2.110
    87   1 H        0.924     0.074     2.045     2.237
    88   1 H        0.924     0.037     2.486     2.466
    89   1 H        0.925     0.064     2.148     2.292
    90   1 H        0.925     0.043     2.415     2.430
    91   1 H        0.925     0.057     2.239     2.340

 Mol. C6AA /au·bohr⁶  :     137204.084450
 Mol. C8AA /au·bohr⁸  :    3683432.365870
 Mol. α(0) /au        :        581.453666


Wiberg/Mayer (AO) data.
largest (>0.10) Wiberg bond orders for each atom

 ---------------------------------------------------------------------------
     #   Z sym  total        # sym  WBO       # sym  WBO       # sym  WBO
 ---------------------------------------------------------------------------
     1   8 O    2.101 --     2 C    1.689    63 S    0.138
     2   6 C    3.911 --     1 O    1.689     3 C    1.080    12 C    1.018
     3   6 C    3.955 --    18 C    1.459     4 C    1.154     2 C    1.080
     4   6 C    3.963 --    13 C    1.474     3 C    1.154     5 C    1.077
     5   6 C    3.981 --     6 C    1.405    12 C    1.300     4 C    1.077
     6   6 C    3.967 --     5 C    1.405     7 C    1.387    64 H    0.952
     7   6 C    3.874 --     6 C    1.387     9 C    1.341     8 F    0.969
     8   9 F    1.101 --     7 C    0.969
     9   6 C    3.868 --    11 C    1.383     7 C    1.341    10 F    0.968
    10   9 F    1.099 --     9 C    0.968
    11   6 C    3.968 --    12 C    1.420     9 C    1.383    65 H    0.954
    12   6 C    3.975 --    11 C    1.420     5 C    1.300     2 C    1.018
    13   6 C    3.940 --     4 C    1.474    16 C    1.101    14 C    1.098
    14   6 C    3.941 --    15 N    2.755    13 C    1.098
    15   7 N    2.959 --    14 C    2.755
    16   6 C    3.942 --    17 N    2.746    13 C    1.101
    17   7 N    2.955 --    16 C    2.746
    18   6 C    3.941 --     3 C    1.459    19 C    1.324    66 H    0.937
    19   6 C    3.936 --    20 C    1.338    18 C    1.324    63 S    1.111
    20   6 C    3.958 --    21 C    1.372    19 C    1.338    67 H    0.954
                            63 S    0.111
    21   6 C    3.923 --    20 C    1.372    25 C    1.276    22 O    1.102
    22   8 O    2.254 --    21 C    1.102    23 C    0.943
    23   6 C    3.921 --    24 C    1.011    68 H    0.968    69 H    0.967
                            22 O    0.943
    24   6 C    3.987 --    23 C    1.011    71 H    0.985    70 H    0.983
                            72 H    0.981
    25   6 C    3.931 --    21 C    1.276    26 C    1.200    63 S    1.189
    26   6 C    3.924 --    28 C    1.380    25 C    1.200    27 S    1.125
    27  16 S    2.587 --    26 C    1.125    33 C    1.122
    28   6 C    3.917 --    26 C    1.380    29 C    1.243    60 O    1.044
    29   6 C    3.921 --    33 C    1.341    28 C    1.243    30 O    1.108
    30   8 O    2.258 --    29 C    1.108    31 C    0.932
    31   6 C    3.917 --    32 C    1.015    73 H    0.970    74 H    0.965
                            30 O    0.932
    32   6 C    3.986 --    31 C    1.015    75 H    0.985    76 H    0.984
                            77 H    0.981
    33   6 C    3.909 --    29 C    1.341    34 C    1.215    27 S    1.122
    34   6 C    3.940 --    35 C    1.413    33 C    1.215    59 S    1.150
    35   6 C    3.951 --    34 C    1.413    36 C    1.320    78 H    0.946
    36   6 C    3.917 --    35 C    1.320    40 C    1.258    37 O    1.144
    37   8 O    2.313 --    36 C    1.144    38 C    0.935
    38   6 C    3.913 --    39 C    1.008    79 H    0.968    80 H    0.966
                            37 O    0.935
    39   6 C    3.984 --    38 C    1.008    82 H    0.985    81 H    0.982
                            83 H    0.981
    40   6 C    3.917 --    41 C    1.343    36 C    1.258    59 S    1.088
    41   6 C    3.950 --    42 C    1.440    40 C    1.343    84 H    0.945
    42   6 C    3.954 --    41 C    1.440    45 C    1.175    43 C    1.062
    43   6 C    3.921 --    44 O    1.726    42 C    1.062    52 C    1.005
    44   8 O    2.016 --    43 C    1.726
    45   6 C    3.970 --    46 C    1.455    42 C    1.175    51 C    1.074
    46   6 C    3.947 --    45 C    1.455    47 C    1.106    49 C    1.103
    47   6 C    3.940 --    48 N    2.748    46 C    1.106
    48   7 N    2.952 --    47 C    2.748
    49   6 C    3.943 --    50 N    2.747    46 C    1.103
    50   7 N    2.952 --    49 C    2.747
    51   6 C    3.984 --    58 C    1.406    52 C    1.304    45 C    1.074
    52   6 C    3.977 --    53 C    1.425    51 C    1.304    43 C    1.005
    53   6 C    3.970 --    52 C    1.425    54 C    1.381    85 H    0.955
    54   6 C    3.868 --    53 C    1.381    56 C    1.345    55 F    0.964
    55   9 F    1.093 --    54 C    0.964
    56   6 C    3.874 --    58 C    1.386    54 C    1.345    57 F    0.965
    57   9 F    1.096 --    56 C    0.965
    58   6 C    3.968 --    51 C    1.406    56 C    1.386    86 H    0.954
    59  16 S    2.559 --    34 C    1.150    40 C    1.088
    60   8 O    2.156 --    28 C    1.044    61 C    0.935
    61   6 C    3.927 --    62 C    1.014    88 H    0.968    87 H    0.967
                            60 O    0.935
    62   6 C    3.991 --    61 C    1.014    90 H    0.985    91 H    0.984
                            89 H    0.981
    63  16 S    2.790 --    25 C    1.189    19 C    1.111     1 O    0.138
                            20 C    0.111
    64   1 H    0.989 --     6 C    0.952
    65   1 H    0.985 --    11 C    0.954
    66   1 H    0.992 --    18 C    0.937
    67   1 H    0.992 --    20 C    0.954
    68   1 H    0.993 --    23 C    0.968
    69   1 H    0.997 --    23 C    0.967
    70   1 H    0.997 --    24 C    0.983
    71   1 H    0.996 --    24 C    0.985
    72   1 H    0.995 --    24 C    0.981
    73   1 H    0.996 --    31 C    0.970
    74   1 H    0.994 --    31 C    0.965
    75   1 H    0.996 --    32 C    0.985
    76   1 H    0.996 --    32 C    0.984
    77   1 H    0.994 --    32 C    0.981
    78   1 H    0.990 --    35 C    0.946
    79   1 H    0.994 --    38 C    0.968
    80   1 H    0.996 --    38 C    0.966
    81   1 H    0.996 --    39 C    0.982
    82   1 H    0.996 --    39 C    0.985
    83   1 H    0.994 --    39 C    0.981
    84   1 H    0.991 --    41 C    0.945
    85   1 H    0.986 --    53 C    0.955
    86   1 H    0.990 --    58 C    0.954
    87   1 H    0.994 --    61 C    0.967
    88   1 H    0.999 --    61 C    0.968
    89   1 H    0.995 --    62 C    0.981
    90   1 H    0.998 --    62 C    0.985
    91   1 H    0.996 --    62 C    0.984
 ---------------------------------------------------------------------------

Topologies differ in bond orders
Writing corrected topology to xtbtopo.mol

molecular dipole:
                 x           y           z       tot (Debye)
 q only:       -1.547      -6.900      -5.126
   full:       -1.666      -6.397      -5.410      21.711
molecular quadrupole (traceless):
                xx          xy          yy          xz          yz          zz
 q only:      -39.078     -75.449      19.819      51.683      44.910      19.259
  q+dip:      -46.584     -79.998      22.909      47.740      40.893      23.676
   full:      -42.136     -86.646      20.124      50.025      40.730      22.012


           -------------------------------------------------
          | TOTAL ENERGY             -177.395859315668 Eh   |
          | GRADIENT NORM               0.040995195803 Eh/α |
          | HOMO-LUMO GAP               0.866912053416 eV   |
           -------------------------------------------------

------------------------------------------------------------------------
 * finished run on 2022/01/11 at 10:03:18.446     
------------------------------------------------------------------------
 total:
 * wall-time:     0 d,  0 h,  0 min,  0.484 sec
 *  cpu-time:     0 d,  0 h,  0 min,  0.484 sec
 * ratio c/w:     0.999 speedup
 SCF:
 * wall-time:     0 d,  0 h,  0 min,  0.436 sec
 *  cpu-time:     0 d,  0 h,  0 min,  0.436 sec
 * ratio c/w:     0.999 speedup

