      -----------------------------------------------------------      
     |                   =====================                   |     
     |                           x T B                           |     
     |                   =====================                   |     
     |                         S. Grimme                         |     
     |          Mulliken Center for Theoretical Chemistry        |     
     |                    University of Bonn                     |     
      -----------------------------------------------------------      

   * xtb version 6.4.1 (unknown) compiled by 'oda6@login1.crc.pitt.edu' on 2021-06-25

   xtb is free software: you can redistribute it and/or modify it under
   the terms of the GNU Lesser General Public License as published by
   the Free Software Foundation, either version 3 of the License, or
   (at your option) any later version.
   
   xtb is distributed in the hope that it will be useful,
   but WITHOUT ANY WARRANTY; without even the implied warranty of
   MERCHANTABILITY or FITNESS FOR A PARTICULAR PURPOSE.  See the
   GNU Lesser General Public License for more details.
   
   Cite this work as:
   * C. Bannwarth, E. Caldeweyher, S. Ehlert, A. Hansen, P. Pracht,
     J. Seibert, S. Spicher, S. Grimme, WIREs Comput. Mol. Sci., 2020, 11,
     e01493. DOI: 10.1002/wcms.1493
   
   for GFN2-xTB:
   * C. Bannwarth, S. Ehlert and S. Grimme., J. Chem. Theory Comput., 2019,
     15, 1652-1671. DOI: 10.1021/acs.jctc.8b01176
   for GFN1-xTB:
   * S. Grimme, C. Bannwarth, P. Shushkov, J. Chem. Theory Comput., 2017,
     13, 1989-2009. DOI: 10.1021/acs.jctc.7b00118
   for GFN0-xTB:
   * P. Pracht, E. Caldeweyher, S. Ehlert, S. Grimme, ChemRxiv, 2019, preprint.
     DOI: 10.26434/chemrxiv.8326202.v1
   for GFN-FF:
   * S. Spicher and S. Grimme, Angew. Chem. Int. Ed., 2020, 59, 15665-15673.
     DOI: 10.1002/anie.202004239
   
   for DFT-D4:
   * E. Caldeweyher, C. Bannwarth and S. Grimme, J. Chem. Phys., 2017,
     147, 034112. DOI: 10.1063/1.4993215
   * E. Caldeweyher, S. Ehlert, A. Hansen, H. Neugebauer, S. Spicher,
     C. Bannwarth and S. Grimme, J. Chem. Phys., 2019, 150, 154122.
     DOI: 10.1063/1.5090222
   * E. Caldeweyher, J.-M. Mewes, S. Ehlert and S. Grimme, Phys. Chem. Chem. Phys.
     2020, 22, 8499-8512. DOI: 10.1039/D0CP00502A
   
   for sTDA-xTB:
   * S. Grimme and C. Bannwarth, J. Chem. Phys., 2016, 145, 054103.
     DOI: 10.1063/1.4959605
   
   in the mass-spec context:
   * V. Asgeirsson, C. Bauer and S. Grimme, Chem. Sci., 2017, 8, 4879.
     DOI: 10.1039/c7sc00601b
   * J. Koopman and S. Grimme, ACS Omega 2019, 4, 12, 15120-15133.
     DOI: 10.1021/acsomega.9b02011
   
   for metadynamics refer to:
   * S. Grimme, J. Chem. Theory Comput., 2019, 155, 2847-2862
     DOI: 10.1021/acs.jctc.9b00143
   
   for SPH calculations refer to:
   * S. Spicher and S. Grimme, J. Chem. Theory Comput., 2021, 17, 1701-1714
     DOI: 10.1021/acs.jctc.0c01306
   
   with help from (in alphabetical order)
   P. Atkinson, C. Bannwarth, F. Bohle, G. Brandenburg, E. Caldeweyher
   M. Checinski, S. Dohm, S. Ehlert, S. Ehrlich, I. Gerasimov, J. Koopman
   C. Lavigne, S. Lehtola, F. März, M. Müller, F. Musil, H. Neugebauer
   J. Pisarek, C. Plett, P. Pracht, J. Seibert, P. Shushkov, S. Spicher
   M. Stahn, M. Steiner, T. Strunk, J. Stückrath, T. Rose, and J. Unsleber
   
 * started run on 2021/12/28 at 11:42:13.793     

           -------------------------------------------------
          |                Calculation Setup                |
           -------------------------------------------------

          program call               : /ihome/ghutchison/oda6/xtb/xtb-641/bin//xtb C8-ITCC-Cl.mol --sp --alpb water
          hostname                   : smp-n39
          coordinate file            : C8-ITCC-Cl.mol
          omp threads                :                     1
          number of atoms            :                    92
          number of electrons        :                   310
          charge                     :                     0
          spin                       :                   0.0
          first test random number   :      0.20080970184357

   ID    Z sym.   atoms
    1    6 C      1, 3-7, 9, 11-16, 18-22, 24-30, 32, 33, 35-41, 43, 45-47,
                  49-56, 58-61
    2    8 O      2, 48
    3    7 N      8, 10, 42, 44
    4   16 S      17, 23, 31, 34, 57, 62
    5   17 Cl     63, 64
    6    1 H      65-92

           -------------------------------------------------
          |                 G F N 2 - x T B                 |
           -------------------------------------------------

        Reference                      10.1021/acs.jctc.8b01176
      * Hamiltonian:
        H0-scaling (s, p, d)           1.850000    2.230000    2.230000
        zeta-weighting                 0.500000
      * Dispersion:
        s8                             2.700000
        a1                             0.520000
        a2                             5.000000
        s9                             5.000000
      * Repulsion:
        kExp                           1.500000    1.000000
        rExp                           1.000000
      * Coulomb:
        alpha                          2.000000
        third order                    shell-resolved
        anisotropic                    true
        a3                             3.000000
        a5                             4.000000
        cn-shift                       1.200000
        cn-exp                         4.000000
        max-rad                        5.000000

      * Solvation model:               ALPB
        Solvent                        water
        Parameter file                 internal GFN2-xTB/ALPB
        Dielectric constant                8.0200E+01
        Reference state                gsolv [1 M gas/solution]
        Free energy shift                  1.0808E-03 Eh       6.7819E-01 kcal/mol
        Temperature                        2.9815E+02 K
        Density                            1.0000E+00 kg/L
        Solvent mass                       1.8000E+01 g/mol
        Interaction kernel             P16
        Born radius scaling (c1)           1.4744E+00
        Born radii integrator          GBOBC
        Born offset                        0.0000E+00 a0       0.0000E+00 AA
        H-bond correction              true
        Ion screening                  false
        Surface tension                    1.0000E-05 Eh       1.5569E+01 dyn/cm
        Grid points                               230 per atom

          ...................................................
          :                      SETUP                      :
          :.................................................:
          :  # basis functions                 332          :
          :  # atomic orbitals                 324          :
          :  # shells                          164          :
          :  # electrons                       310          :
          :  max. iterations                   250          :
          :  Hamiltonian                  GFN2-xTB          :
          :  restarted?                      false          :
          :  GBSA solvation                   true          :
          :  PC potential                    false          :
          :  electronic temp.          300.0000000     K    :
          :  accuracy                    1.0000000          :
          :  -> integral cutoff          0.2500000E+02      :
          :  -> integral neglect         0.1000000E-07      :
          :  -> SCF convergence          0.1000000E-05 Eh   :
          :  -> wf. convergence          0.1000000E-03 e    :
          :  Broyden damping             0.4000000          :
          ...................................................

 iter      E             dE          RMSdq      gap      omega  full diag
   1   -172.0653845 -0.172065E+03  0.482E+00    0.83       0.0  T
   2   -172.1556461 -0.902616E-01  0.286E+00    0.99       1.0  T
   3   -172.0470188  0.108627E+00  0.165E+00    0.73       1.0  T
   4   -172.2153769 -0.168358E+00  0.438E-01    0.87       1.0  T
   5   -172.2222265 -0.684960E-02  0.169E-01    0.81       1.0  T
   6   -172.2229330 -0.706435E-03  0.855E-02    0.83       1.0  T
   7   -172.2230866 -0.153603E-03  0.506E-02    0.83       1.0  T
   8   -172.2231505 -0.639039E-04  0.371E-02    0.83       1.0  T
   9   -172.2231846 -0.341185E-04  0.282E-02    0.83       1.0  T
  10   -172.2232165 -0.319005E-04  0.183E-02    0.83       1.0  T
  11   -172.2232294 -0.129548E-04  0.993E-03    0.83       1.0  T
  12   -172.2232338 -0.434129E-05  0.425E-03    0.83       2.5  T
  13   -172.2232345 -0.706350E-06  0.221E-03    0.83       4.7  T
  14   -172.2232346 -0.610623E-07  0.120E-03    0.83       8.7  T
  15   -172.2232346 -0.281759E-07  0.558E-04    0.83      18.7  T
  16   -172.2232346 -0.725143E-08  0.343E-04    0.83      30.4  T

   *** convergence criteria satisfied after 16 iterations ***

         #    Occupation            Energy/Eh            Energy/eV
      -------------------------------------------------------------
         1        2.0000           -1.0873626             -29.5886
       ...           ...                  ...                  ...
       149        2.0000           -0.4135593             -11.2535
       150        2.0000           -0.4109047             -11.1813
       151        2.0000           -0.4071882             -11.0802
       152        2.0000           -0.3959708             -10.7749
       153        2.0000           -0.3901853             -10.6175
       154        2.0000           -0.3845924             -10.4653
       155        2.0000           -0.3707366             -10.0883 (HOMO)
       156        0.0000           -0.3401191              -9.2551 (LUMO)
       157                         -0.3385587              -9.2127
       158                         -0.3269078              -8.8956
       159                         -0.3195601              -8.6957
       160                         -0.2814694              -7.6592
       ...                                ...                  ...
       324                          1.1507924              31.3147
      -------------------------------------------------------------
                  HL-Gap            0.0306175 Eh            0.8331 eV
             Fermi-level           -0.3555119 Eh           -9.6740 eV

 SCC (total)                   0 d,  0 h,  0 min,  0.503 sec
 SCC setup                      ...        0 min,  0.005 sec (  0.974%)
 Dispersion                     ...        0 min,  0.003 sec (  0.670%)
 classical contributions        ...        0 min,  0.000 sec (  0.065%)
 integral evaluation            ...        0 min,  0.045 sec (  8.986%)
 iterations                     ...        0 min,  0.298 sec ( 59.315%)
 molecular gradient             ...        0 min,  0.149 sec ( 29.610%)
 printout                       ...        0 min,  0.002 sec (  0.369%)

         :::::::::::::::::::::::::::::::::::::::::::::::::::::
         ::                     SUMMARY                     ::
         :::::::::::::::::::::::::::::::::::::::::::::::::::::
         :: total energy            -169.641706068495 Eh    ::
         :: total w/o Gsasa/hb      -169.627292637151 Eh    ::
         :: gradient norm              0.030868913709 Eh/a0 ::
         :: HOMO-LUMO gap              0.833144496186 eV    ::
         ::.................................................::
         :: SCC energy              -172.223234593631 Eh    ::
         :: -> isotropic ES            0.122298226231 Eh    ::
         :: -> anisotropic ES          0.009692025197 Eh    ::
         :: -> anisotropic XC          0.106691580999 Eh    ::
         :: -> dispersion             -0.152267423065 Eh    ::
         :: -> Gsolv                  -0.038453262789 Eh    ::
         ::    -> Gelec               -0.024039831445 Eh    ::
         ::    -> Gsasa               -0.011872965863 Eh    ::
         ::    -> Ghb                 -0.003621225179 Eh    ::
         ::    -> Gshift               0.001080759698 Eh    ::
         :: repulsion energy           2.582101094003 Eh    ::
         :: add. restraining           0.000000000000 Eh    ::
         :: total charge              -0.000000000101 e     ::
         :::::::::::::::::::::::::::::::::::::::::::::::::::::

           -------------------------------------------------
          |                Property Printout                |
           -------------------------------------------------

    * Orbital Energies and Occupations

         #    Occupation            Energy/Eh            Energy/eV
      -------------------------------------------------------------
         1        2.0000           -1.0873626             -29.5886
       ...           ...                  ...                  ...
       143        2.0000           -0.4240484             -11.5389
       144        2.0000           -0.4215795             -11.4718
       145        2.0000           -0.4172791             -11.3547
       146        2.0000           -0.4163749             -11.3301
       147        2.0000           -0.4160729             -11.3219
       148        2.0000           -0.4147495             -11.2859
       149        2.0000           -0.4135593             -11.2535
       150        2.0000           -0.4109047             -11.1813
       151        2.0000           -0.4071882             -11.0802
       152        2.0000           -0.3959708             -10.7749
       153        2.0000           -0.3901853             -10.6175
       154        2.0000           -0.3845924             -10.4653
       155        2.0000           -0.3707366             -10.0883 (HOMO)
       156        0.0000           -0.3401191              -9.2551 (LUMO)
       157                         -0.3385587              -9.2127
       158                         -0.3269078              -8.8956
       159                         -0.3195601              -8.6957
       160                         -0.2814694              -7.6592
       161                         -0.2673921              -7.2761
       162                         -0.2616441              -7.1197
       163                         -0.2537181              -6.9040
       164                         -0.2532584              -6.8915
       165                         -0.2525596              -6.8725
       166                         -0.2391571              -6.5078
       ...                                ...                  ...
       324                          1.1507924              31.3147
      -------------------------------------------------------------
                  HL-Gap            0.0306175 Eh            0.8331 eV
             Fermi-level           -0.3555119 Eh           -9.6740 eV

     #   Z          covCN         q      C6AA      α(0)
     1   6 C        2.878     0.236    23.073     7.874
     2   8 O        0.935    -0.391    21.462     6.213
     3   6 C        3.233    -0.026    27.776     8.555
     4   6 C        3.078     0.012    27.664     8.623
     5   6 C        3.026     0.038    27.125     8.543
     6   6 C        2.948     0.004    27.925     8.667
     7   6 C        1.934     0.130    27.901     8.530
     8   7 N        0.911    -0.268    26.947     7.508
     9   6 C        1.925     0.134    27.826     8.519
    10   7 N        0.911    -0.278    27.167     7.538
    11   6 C        3.024    -0.042    29.012     8.835
    12   6 C        2.918    -0.012    28.305     8.724
    13   6 C        2.993     0.026    27.421     8.590
    14   6 C        3.059    -0.046    29.090     8.845
    15   6 C        3.170     0.020    27.186     8.518
    16   6 C        3.142     0.014    27.457     8.574
    17  16 S        2.303     0.011   140.589    19.956
    18   6 C        3.210    -0.017    27.791     8.582
    19   6 C        3.932     0.017    20.219     6.390
    20   6 C        3.069     0.008    27.765     8.640
    21   6 C        3.049     0.005    27.855     8.656
    22   6 C        3.080     0.026    27.329     8.571
    23  16 S        2.187    -0.025   142.069    20.061
    24   6 C        2.909    -0.036    28.883     8.812
    25   6 C        3.084     0.005    27.814     8.646
    26   6 C        3.938     0.018    20.203     6.387
    27   6 C        3.183    -0.011    27.849     8.613
    28   6 C        3.093     0.028    27.267     8.559
    29   6 C        3.042     0.005    27.864     8.658
    30   6 C        2.909    -0.033    28.817     8.802
    31  16 S        2.181    -0.023   142.010    20.057
    32   6 C        3.174     0.020    27.179     8.514
    33   6 C        3.138     0.017    27.404     8.567
    34  16 S        2.314     0.014   140.504    19.950
    35   6 C        2.992     0.024    27.456     8.595
    36   6 C        3.061    -0.047    29.095     8.846
    37   6 C        2.918    -0.013    28.330     8.728
    38   6 C        3.025    -0.042    29.020     8.836
    39   6 C        3.029     0.040    27.070     8.534
    40   6 C        2.947     0.008    27.852     8.656
    41   6 C        1.931     0.134    27.823     8.518
    42   7 N        0.911    -0.277    27.146     7.535
    43   6 C        1.937     0.135    27.794     8.514
    44   7 N        0.911    -0.273    27.069     7.525
    45   6 C        3.231    -0.000    27.191     8.466
    46   6 C        3.076    -0.021    28.436     8.743
    47   6 C        2.872     0.233    23.131     7.884
    48   8 O        0.940    -0.402    21.681     6.245
    49   6 C        3.805    -0.058    21.620     6.619
    50   6 C        3.751    -0.109    22.639     6.785
    51   6 C        3.805    -0.053    21.531     6.606
    52   6 C        3.750    -0.113    22.729     6.799
    53   6 C        3.807    -0.056    21.568     6.611
    54   6 C        3.751    -0.115    22.766     6.805
    55   6 C        3.807    -0.053    21.526     6.605
    56   6 C        3.751    -0.113    22.715     6.797
    57  16 S        2.327     0.117   136.372    19.655
    58   6 C        2.923     0.105    25.678     8.310
    59   6 C        3.071    -0.054    29.262     8.870
    60   6 C        3.067    -0.048    29.119     8.848
    61   6 C        2.924     0.107    25.639     8.304
    62  16 S        2.329     0.081   137.787    19.756
    63  17 Cl       1.018    -0.123   103.006    15.527
    64  17 Cl       1.018    -0.123   102.992    15.526
    65   1 H        0.925     0.074     2.038     2.233
    66   1 H        0.926     0.076     2.016     2.220
    67   1 H        0.926     0.059     2.211     2.325
    68   1 H        0.926     0.066     2.126     2.280
    69   1 H        0.926     0.074     2.040     2.233
    70   1 H        0.925     0.073     2.049     2.238
    71   1 H        0.924     0.052     2.290     2.367
    72   1 H        0.924     0.052     2.295     2.369
    73   1 H        0.925     0.046     2.374     2.409
    74   1 H        0.925     0.039     2.457     2.451
    75   1 H        0.925     0.032     2.553     2.498
    76   1 H        0.924     0.050     2.315     2.380
    77   1 H        0.924     0.037     2.494     2.470
    78   1 H        0.925     0.042     2.419     2.432
    79   1 H        0.925     0.044     2.397     2.421
    80   1 H        0.925     0.052     2.299     2.371
    81   1 H        0.924     0.052     2.291     2.367
    82   1 H        0.924     0.039     2.458     2.452
    83   1 H        0.925     0.044     2.397     2.421
    84   1 H        0.925     0.047     2.358     2.401
    85   1 H        0.925     0.048     2.349     2.397
    86   1 H        0.924     0.045     2.385     2.415
    87   1 H        0.924     0.037     2.490     2.468
    88   1 H        0.925     0.047     2.356     2.400
    89   1 H        0.925     0.050     2.323     2.384
    90   1 H        0.925     0.043     2.407     2.426
    91   1 H        0.926     0.093     1.852     2.128
    92   1 H        0.926     0.111     1.690     2.033

 Mol. C6AA /au·bohr⁶  :     176106.190368
 Mol. C8AA /au·bohr⁸  :    5249489.405938
 Mol. α(0) /au        :        669.118029


Wiberg/Mayer (AO) data.
largest (>0.10) Wiberg bond orders for each atom

 ---------------------------------------------------------------------------
     #   Z sym  total        # sym  WBO       # sym  WBO       # sym  WBO
 ---------------------------------------------------------------------------
     1   6 C    3.913 --     2 O    1.696    11 C    1.058     3 C    1.027
     2   8 O    2.083 --     1 C    1.696    17 S    0.106
     3   6 C    3.959 --     4 C    1.385    60 C    1.290     1 C    1.027
     4   6 C    3.937 --     3 C    1.385    62 S    1.183     5 C    1.141
     5   6 C    3.964 --     6 C    1.442     4 C    1.141    11 C    1.126
     6   6 C    3.946 --     5 C    1.442     9 C    1.112     7 C    1.102
     7   6 C    3.943 --     8 N    2.755     6 C    1.102
     8   7 N    2.964 --     7 C    2.755
     9   6 C    3.942 --    10 N    2.741     6 C    1.112
    10   7 N    2.944 --     9 C    2.741
    11   6 C    3.942 --    12 C    1.494     5 C    1.126     1 C    1.058
    12   6 C    3.940 --    11 C    1.494    13 C    1.305    65 H    0.940
    13   6 C    3.937 --    14 C    1.360    12 C    1.305    17 S    1.090
    14   6 C    3.957 --    15 C    1.407    13 C    1.360    66 H    0.959
    15   6 C    3.929 --    14 C    1.407    16 C    1.259    23 S    1.091
    16   6 C    3.944 --    18 C    1.310    15 C    1.259    17 S    1.156
    17  16 S    2.700 --    16 C    1.156    13 C    1.090     2 O    0.106
    18   6 C    3.958 --    22 C    1.414    16 C    1.310    19 C    0.985
    19   6 C    3.985 --    20 C    0.991    18 C    0.985    55 C    0.955
                            51 C    0.951
    20   6 C    3.963 --    30 C    1.472    21 C    1.273    19 C    0.991
    21   6 C    3.954 --    24 C    1.346    20 C    1.273    22 C    1.156
    22   6 C    3.897 --    18 C    1.414    21 C    1.156    23 S    1.132
    23  16 S    2.533 --    22 C    1.132    15 C    1.091
    24   6 C    3.968 --    25 C    1.469    21 C    1.346    67 H    0.962
    25   6 C    3.964 --    24 C    1.469    29 C    1.278    26 C    0.986
    26   6 C    3.987 --    27 C    0.990    25 C    0.986    49 C    0.959
                            53 C    0.949
    27   6 C    3.957 --    28 C    1.407    33 C    1.312    26 C    0.990
    28   6 C    3.897 --    27 C    1.407    29 C    1.156    31 S    1.136
    29   6 C    3.954 --    30 C    1.340    25 C    1.278    28 C    1.156
    30   6 C    3.968 --    20 C    1.472    29 C    1.340    68 H    0.957
    31  16 S    2.542 --    28 C    1.136    32 C    1.092
    32   6 C    3.929 --    36 C    1.410    33 C    1.256    31 S    1.092
    33   6 C    3.942 --    27 C    1.312    32 C    1.256    34 S    1.155
    34  16 S    2.710 --    33 C    1.155    35 C    1.089    48 O    0.107
    35   6 C    3.937 --    36 C    1.356    37 C    1.309    34 S    1.089
    36   6 C    3.956 --    32 C    1.410    35 C    1.356    69 H    0.959
    37   6 C    3.939 --    38 C    1.488    35 C    1.309    70 H    0.939
    38   6 C    3.944 --    37 C    1.488    39 C    1.142    47 C    1.048
    39   6 C    3.963 --    40 C    1.464    38 C    1.142    45 C    1.090
    40   6 C    3.951 --    39 C    1.464    41 C    1.106    43 C    1.099
    41   6 C    3.941 --    42 N    2.743    40 C    1.106
    42   7 N    2.950 --    41 C    2.743
    43   6 C    3.941 --    44 N    2.759    40 C    1.099
    44   7 N    2.958 --    43 C    2.759
    45   6 C    3.971 --    46 C    1.388    59 C    1.280    39 C    1.090
    46   6 C    3.922 --    45 C    1.388    57 S    1.190    47 C    1.069
    47   6 C    3.916 --    48 O    1.675    46 C    1.069    38 C    1.048
    48   8 O    2.070 --    47 C    1.675    34 S    0.107
    49   6 C    3.992 --    50 C    1.020    71 H    0.973    72 H    0.972
                            26 C    0.959
    50   6 C    3.996 --    49 C    1.020    75 H    0.987    74 H    0.986
                            73 H    0.986
    51   6 C    3.991 --    52 C    1.019    77 H    0.977    76 H    0.973
                            19 C    0.951
    52   6 C    3.992 --    51 C    1.019    78 H    0.985    79 H    0.984
                            80 H    0.982
    53   6 C    3.991 --    54 C    1.020    82 H    0.977    81 H    0.972
                            26 C    0.949
    54   6 C    3.992 --    53 C    1.020    85 H    0.985    84 H    0.983
                            83 H    0.977
    55   6 C    3.991 --    56 C    1.019    87 H    0.977    86 H    0.971
                            19 C    0.955
    56   6 C    3.992 --    55 C    1.019    90 H    0.983    89 H    0.983
                            88 H    0.981
    57  16 S    2.686 --    46 C    1.190    58 C    1.174
    58   6 C    3.872 --    59 C    1.534    57 S    1.174    63 Cl   1.023
    59   6 C    3.973 --    58 C    1.534    45 C    1.280    91 H    0.952
    60   6 C    3.969 --    61 C    1.531     3 C    1.290    92 H    0.951
    61   6 C    3.864 --    60 C    1.531    62 S    1.162    64 Cl   1.021
    62  16 S    2.684 --     4 C    1.183    61 C    1.162
    63  17 Cl   1.175 --    58 C    1.023
    64  17 Cl   1.172 --    61 C    1.021
    65   1 H    0.993 --    12 C    0.940
    66   1 H    0.994 --    14 C    0.959
    67   1 H    0.995 --    24 C    0.962
    68   1 H    0.994 --    30 C    0.957
    69   1 H    0.994 --    36 C    0.959
    70   1 H    0.993 --    37 C    0.939
    71   1 H    0.996 --    49 C    0.973
    72   1 H    0.997 --    49 C    0.972
    73   1 H    0.998 --    50 C    0.986
    74   1 H    0.998 --    50 C    0.986
    75   1 H    0.999 --    50 C    0.987
    76   1 H    0.997 --    51 C    0.973
    77   1 H    0.999 --    51 C    0.977
    78   1 H    0.998 --    52 C    0.985
    79   1 H    0.997 --    52 C    0.984
    80   1 H    0.997 --    52 C    0.982
    81   1 H    0.996 --    53 C    0.972
    82   1 H    0.998 --    53 C    0.977
    83   1 H    0.998 --    54 C    0.977
    84   1 H    0.997 --    54 C    0.983
    85   1 H    0.998 --    54 C    0.985
    86   1 H    0.997 --    55 C    0.971
    87   1 H    0.998 --    55 C    0.977
    88   1 H    0.998 --    56 C    0.981
    89   1 H    0.998 --    56 C    0.983
    90   1 H    0.997 --    56 C    0.983
    91   1 H    0.991 --    59 C    0.952
    92   1 H    0.987 --    60 C    0.951
 ---------------------------------------------------------------------------

Topologies differ in bond orders
Writing corrected topology to xtbtopo.mol

molecular dipole:
                 x           y           z       tot (Debye)
 q only:       -0.068      -0.256      -0.630
   full:        0.031       0.132      -0.558       1.460
molecular quadrupole (traceless):
                xx          xy          yy          xz          yz          zz
 q only:       48.710     107.283    -115.478     -48.316      97.543      66.768
  q+dip:       89.891      74.616    -133.438     -38.106     102.484      43.547
   full:       83.399      75.495    -136.506     -36.902     109.998      53.107


           -------------------------------------------------
          | TOTAL ENERGY             -169.641706068495 Eh   |
          | GRADIENT NORM               0.030868913709 Eh/α |
          | HOMO-LUMO GAP               0.833144496186 eV   |
           -------------------------------------------------

------------------------------------------------------------------------
 * finished run on 2021/12/28 at 11:42:14.350     
------------------------------------------------------------------------
 total:
 * wall-time:     0 d,  0 h,  0 min,  0.557 sec
 *  cpu-time:     0 d,  0 h,  0 min,  0.557 sec
 * ratio c/w:     1.000 speedup
 SCF:
 * wall-time:     0 d,  0 h,  0 min,  0.504 sec
 *  cpu-time:     0 d,  0 h,  0 min,  0.504 sec
 * ratio c/w:     1.000 speedup

