      -----------------------------------------------------------      
     |                   =====================                   |     
     |                           x T B                           |     
     |                   =====================                   |     
     |                         S. Grimme                         |     
     |          Mulliken Center for Theoretical Chemistry        |     
     |                    University of Bonn                     |     
      -----------------------------------------------------------      

   * xtb version 6.4.1 (unknown) compiled by 'oda6@login1.crc.pitt.edu' on 2021-06-25

   xtb is free software: you can redistribute it and/or modify it under
   the terms of the GNU Lesser General Public License as published by
   the Free Software Foundation, either version 3 of the License, or
   (at your option) any later version.
   
   xtb is distributed in the hope that it will be useful,
   but WITHOUT ANY WARRANTY; without even the implied warranty of
   MERCHANTABILITY or FITNESS FOR A PARTICULAR PURPOSE.  See the
   GNU Lesser General Public License for more details.
   
   Cite this work as:
   * C. Bannwarth, E. Caldeweyher, S. Ehlert, A. Hansen, P. Pracht,
     J. Seibert, S. Spicher, S. Grimme, WIREs Comput. Mol. Sci., 2020, 11,
     e01493. DOI: 10.1002/wcms.1493
   
   for GFN2-xTB:
   * C. Bannwarth, S. Ehlert and S. Grimme., J. Chem. Theory Comput., 2019,
     15, 1652-1671. DOI: 10.1021/acs.jctc.8b01176
   for GFN1-xTB:
   * S. Grimme, C. Bannwarth, P. Shushkov, J. Chem. Theory Comput., 2017,
     13, 1989-2009. DOI: 10.1021/acs.jctc.7b00118
   for GFN0-xTB:
   * P. Pracht, E. Caldeweyher, S. Ehlert, S. Grimme, ChemRxiv, 2019, preprint.
     DOI: 10.26434/chemrxiv.8326202.v1
   for GFN-FF:
   * S. Spicher and S. Grimme, Angew. Chem. Int. Ed., 2020, 59, 15665-15673.
     DOI: 10.1002/anie.202004239
   
   for DFT-D4:
   * E. Caldeweyher, C. Bannwarth and S. Grimme, J. Chem. Phys., 2017,
     147, 034112. DOI: 10.1063/1.4993215
   * E. Caldeweyher, S. Ehlert, A. Hansen, H. Neugebauer, S. Spicher,
     C. Bannwarth and S. Grimme, J. Chem. Phys., 2019, 150, 154122.
     DOI: 10.1063/1.5090222
   * E. Caldeweyher, J.-M. Mewes, S. Ehlert and S. Grimme, Phys. Chem. Chem. Phys.
     2020, 22, 8499-8512. DOI: 10.1039/D0CP00502A
   
   for sTDA-xTB:
   * S. Grimme and C. Bannwarth, J. Chem. Phys., 2016, 145, 054103.
     DOI: 10.1063/1.4959605
   
   in the mass-spec context:
   * V. Asgeirsson, C. Bauer and S. Grimme, Chem. Sci., 2017, 8, 4879.
     DOI: 10.1039/c7sc00601b
   * J. Koopman and S. Grimme, ACS Omega 2019, 4, 12, 15120-15133.
     DOI: 10.1021/acsomega.9b02011
   
   for metadynamics refer to:
   * S. Grimme, J. Chem. Theory Comput., 2019, 155, 2847-2862
     DOI: 10.1021/acs.jctc.9b00143
   
   for SPH calculations refer to:
   * S. Spicher and S. Grimme, J. Chem. Theory Comput., 2021, 17, 1701-1714
     DOI: 10.1021/acs.jctc.0c01306
   
   with help from (in alphabetical order)
   P. Atkinson, C. Bannwarth, F. Bohle, G. Brandenburg, E. Caldeweyher
   M. Checinski, S. Dohm, S. Ehlert, S. Ehrlich, I. Gerasimov, J. Koopman
   C. Lavigne, S. Lehtola, F. März, M. Müller, F. Musil, H. Neugebauer
   J. Pisarek, C. Plett, P. Pracht, J. Seibert, P. Shushkov, S. Spicher
   M. Stahn, M. Steiner, T. Strunk, J. Stückrath, T. Rose, and J. Unsleber
   
 * started run on 2022/01/11 at 10:04:05.038     

           -------------------------------------------------
          |                Calculation Setup                |
           -------------------------------------------------

          program call               : /ihome/ghutchison/oda6/xtb/xtb-641/bin//xtb DICTF.mol --sp --alpb water
          hostname                   : smp-n65
          coordinate file            : DICTF.mol
          omp threads                :                     1
          number of atoms            :                    89
          number of electrons        :                   278
          charge                     :                     0
          spin                       :                   0.0
          first test random number   :      0.85609138513345

   ID    Z sym.   atoms
    1    8 O      1, 38
    2    6 C      2-8, 10-37, 39, 40, 42, 45-52, 54, 56-59
    3   16 S      9, 44
    4    7 N      41, 43, 53, 55
    5    1 H      60-89

           -------------------------------------------------
          |                 G F N 2 - x T B                 |
           -------------------------------------------------

        Reference                      10.1021/acs.jctc.8b01176
      * Hamiltonian:
        H0-scaling (s, p, d)           1.850000    2.230000    2.230000
        zeta-weighting                 0.500000
      * Dispersion:
        s8                             2.700000
        a1                             0.520000
        a2                             5.000000
        s9                             5.000000
      * Repulsion:
        kExp                           1.500000    1.000000
        rExp                           1.000000
      * Coulomb:
        alpha                          2.000000
        third order                    shell-resolved
        anisotropic                    true
        a3                             3.000000
        a5                             4.000000
        cn-shift                       1.200000
        cn-exp                         4.000000
        max-rad                        5.000000

      * Solvation model:               ALPB
        Solvent                        water
        Parameter file                 internal GFN2-xTB/ALPB
        Dielectric constant                8.0200E+01
        Reference state                gsolv [1 M gas/solution]
        Free energy shift                  1.0808E-03 Eh       6.7819E-01 kcal/mol
        Temperature                        2.9815E+02 K
        Density                            1.0000E+00 kg/L
        Solvent mass                       1.8000E+01 g/mol
        Interaction kernel             P16
        Born radius scaling (c1)           1.4744E+00
        Born radii integrator          GBOBC
        Born offset                        0.0000E+00 a0       0.0000E+00 AA
        H-bond correction              true
        Ion screening                  false
        Surface tension                    1.0000E-05 Eh       1.5569E+01 dyn/cm
        Grid points                               230 per atom

          ...................................................
          :                      SETUP                      :
          :.................................................:
          :  # basis functions                 278          :
          :  # atomic orbitals                 276          :
          :  # shells                          150          :
          :  # electrons                       278          :
          :  max. iterations                   250          :
          :  Hamiltonian                  GFN2-xTB          :
          :  restarted?                      false          :
          :  GBSA solvation                   true          :
          :  PC potential                    false          :
          :  electronic temp.          300.0000000     K    :
          :  accuracy                    1.0000000          :
          :  -> integral cutoff          0.2500000E+02      :
          :  -> integral neglect         0.1000000E-07      :
          :  -> SCF convergence          0.1000000E-05 Eh   :
          :  -> wf. convergence          0.1000000E-03 e    :
          :  Broyden damping             0.4000000          :
          ...................................................

 iter      E             dE          RMSdq      gap      omega  full diag
   1   -153.2889418 -0.153289E+03  0.489E+00    1.24       0.0  T
   2   -153.3598444 -0.709026E-01  0.285E+00    1.26       1.0  T
   3   -153.2413738  0.118471E+00  0.161E+00    1.06       1.0  T
   4   -153.4012326 -0.159859E+00  0.392E-01    1.16       1.0  T
   5   -153.4074932 -0.626069E-02  0.123E-01    1.12       1.0  T
   6   -153.4078157 -0.322416E-03  0.583E-02    1.14       1.0  T
   7   -153.4078661 -0.504668E-04  0.204E-02    1.13       1.0  T
   8   -153.4078809 -0.148003E-04  0.708E-03    1.14       1.5  T
   9   -153.4078817 -0.727085E-06  0.334E-03    1.14       3.2  T
  10   -153.4078819 -0.260845E-06  0.181E-03    1.14       5.8  T
  11   -153.4078820 -0.108925E-06  0.773E-04    1.14      13.7  T
  12   -153.4078820 -0.121489E-07  0.399E-04    1.14      26.6  T

   *** convergence criteria satisfied after 12 iterations ***

         #    Occupation            Energy/Eh            Energy/eV
      -------------------------------------------------------------
         1        2.0000           -0.7365776             -20.0433
       ...           ...                  ...                  ...
       133        2.0000           -0.4080782             -11.1044
       134        2.0000           -0.4062221             -11.0539
       135        2.0000           -0.4044603             -11.0059
       136        2.0000           -0.4034936             -10.9796
       137        2.0000           -0.4027354             -10.9590
       138        2.0000           -0.3901438             -10.6164
       139        2.0000           -0.3740898             -10.1795 (HOMO)
       140                         -0.3323455              -9.0436 (LUMO)
       141                         -0.3299026              -8.9771
       142                         -0.3190328              -8.6813
       143                         -0.3165156              -8.6128
       144                         -0.2776082              -7.5541
       ...                                ...                  ...
       276                          1.1517861              31.3417
      -------------------------------------------------------------
                  HL-Gap            0.0417443 Eh            1.1359 eV
             Fermi-level           -0.3532526 Eh           -9.6125 eV

 SCC (total)                   0 d,  0 h,  0 min,  0.348 sec
 SCC setup                      ...        0 min,  0.005 sec (  1.434%)
 Dispersion                     ...        0 min,  0.004 sec (  1.129%)
 classical contributions        ...        0 min,  0.000 sec (  0.094%)
 integral evaluation            ...        0 min,  0.035 sec (  9.967%)
 iterations                     ...        0 min,  0.179 sec ( 51.413%)
 molecular gradient             ...        0 min,  0.124 sec ( 35.549%)
 printout                       ...        0 min,  0.001 sec (  0.391%)

         :::::::::::::::::::::::::::::::::::::::::::::::::::::
         ::                     SUMMARY                     ::
         :::::::::::::::::::::::::::::::::::::::::::::::::::::
         :: total energy            -150.694776779546 Eh    ::
         :: total w/o Gsasa/hb      -150.671487437278 Eh    ::
         :: gradient norm              0.032904026350 Eh/a0 ::
         :: HOMO-LUMO gap              1.135920251057 eV    ::
         ::.................................................::
         :: SCC energy              -153.407882038847 Eh    ::
         :: -> isotropic ES            0.118783687126 Eh    ::
         :: -> anisotropic ES          0.005947182554 Eh    ::
         :: -> anisotropic XC          0.121621565059 Eh    ::
         :: -> dispersion             -0.129092040743 Eh    ::
         :: -> Gsolv                  -0.049228453713 Eh    ::
         ::    -> Gelec               -0.025939111445 Eh    ::
         ::    -> Gsasa               -0.020155226966 Eh    ::
         ::    -> Ghb                 -0.004214875000 Eh    ::
         ::    -> Gshift               0.001080759698 Eh    ::
         :: repulsion energy           2.714123927867 Eh    ::
         :: add. restraining           0.000000000000 Eh    ::
         :: total charge              -0.000000000044 e     ::
         :::::::::::::::::::::::::::::::::::::::::::::::::::::

           -------------------------------------------------
          |                Property Printout                |
           -------------------------------------------------

    * Orbital Energies and Occupations

         #    Occupation            Energy/Eh            Energy/eV
      -------------------------------------------------------------
         1        2.0000           -0.7365776             -20.0433
       ...           ...                  ...                  ...
       127        2.0000           -0.4206874             -11.4475
       128        2.0000           -0.4184691             -11.3871
       129        2.0000           -0.4142340             -11.2719
       130        2.0000           -0.4140046             -11.2656
       131        2.0000           -0.4121854             -11.2161
       132        2.0000           -0.4095203             -11.1436
       133        2.0000           -0.4080782             -11.1044
       134        2.0000           -0.4062221             -11.0539
       135        2.0000           -0.4044603             -11.0059
       136        2.0000           -0.4034936             -10.9796
       137        2.0000           -0.4027354             -10.9590
       138        2.0000           -0.3901438             -10.6164
       139        2.0000           -0.3740898             -10.1795 (HOMO)
       140                         -0.3323455              -9.0436 (LUMO)
       141                         -0.3299026              -8.9771
       142                         -0.3190328              -8.6813
       143                         -0.3165156              -8.6128
       144                         -0.2776082              -7.5541
       145                         -0.2646135              -7.2005
       146                         -0.2521440              -6.8612
       147                         -0.2521272              -6.8607
       148                         -0.2495955              -6.7918
       149                         -0.2392071              -6.5092
       150                         -0.2303014              -6.2668
       ...                                ...                  ...
       276                          1.1517861              31.3417
      -------------------------------------------------------------
                  HL-Gap            0.0417443 Eh            1.1359 eV
             Fermi-level           -0.3532526 Eh           -9.6125 eV

     #   Z          covCN         q      C6AA      α(0)
     1   8 O        0.940    -0.409    21.811     6.263
     2   6 C        2.872     0.229    23.212     7.898
     3   6 C        3.045    -0.018    28.423     8.744
     4   6 C        3.035     0.007    27.831     8.653
     5   6 C        3.018     0.036    27.163     8.549
     6   6 C        3.005    -0.042    29.022     8.837
     7   6 C        2.918    -0.012    28.321     8.727
     8   6 C        2.981     0.024    27.473     8.598
     9  16 S        2.400     0.031   139.784    19.899
    10   6 C        3.102    -0.039    28.828     8.798
    11   6 C        3.082    -0.048    29.090     8.842
    12   6 C        3.002     0.031    27.306     8.572
    13   6 C        3.008     0.010    27.784     8.646
    14   6 C        2.923    -0.035    28.864     8.810
    15   6 C        3.050     0.011    27.723     8.635
    16   6 C        3.935     0.010    20.344     6.410
    17   6 C        3.805    -0.056    21.582     6.614
    18   6 C        3.751    -0.108    22.617     6.782
    19   6 C        3.058     0.008    27.794     8.646
    20   6 C        3.036     0.009    27.791     8.647
    21   6 C        2.911    -0.034    28.858     8.809
    22   6 C        2.925    -0.036    28.888     8.814
    23   6 C        3.006     0.010    27.768     8.644
    24   6 C        3.001     0.031    27.297     8.570
    25   6 C        3.083    -0.048    29.086     8.841
    26   6 C        3.101    -0.039    28.829     8.798
    27   6 C        2.981     0.024    27.464     8.596
    28   6 C        2.917    -0.012    28.322     8.727
    29   6 C        3.006    -0.042    29.019     8.837
    30   6 C        3.018     0.036    27.163     8.549
    31   6 C        3.035     0.007    27.829     8.653
    32   6 C        2.914    -0.025    28.616     8.772
    33   6 C        2.921    -0.022    28.552     8.763
    34   6 C        2.921    -0.023    28.582     8.767
    35   6 C        2.913    -0.017    28.427     8.743
    36   6 C        3.045    -0.018    28.425     8.744
    37   6 C        2.872     0.229    23.207     7.897
    38   8 O        0.936    -0.410    21.842     6.268
    39   6 C        2.947     0.000    28.022     8.682
    40   6 C        1.948     0.134    27.801     8.515
    41   7 N        0.911    -0.285    27.356     7.565
    42   6 C        1.946     0.132    27.848     8.522
    43   7 N        0.911    -0.289    27.441     7.576
    44  16 S        2.394     0.030   139.839    19.903
    45   6 C        2.923    -0.035    28.876     8.812
    46   6 C        3.807    -0.054    21.530     6.605
    47   6 C        3.751    -0.111    22.695     6.794
    48   6 C        3.039     0.008    27.795     8.647
    49   6 C        2.911    -0.034    28.858     8.809
    50   6 C        2.924    -0.035    28.880     8.813
    51   6 C        2.947     0.000    28.025     8.683
    52   6 C        1.948     0.134    27.801     8.515
    53   7 N        0.911    -0.285    27.361     7.565
    54   6 C        1.946     0.132    27.849     8.522
    55   7 N        0.911    -0.289    27.454     7.578
    56   6 C        2.914    -0.025    28.617     8.772
    57   6 C        2.921    -0.022    28.552     8.763
    58   6 C        2.921    -0.023    28.581     8.767
    59   6 C        2.913    -0.017    28.429     8.743
    60   1 H        0.925     0.067     2.124     2.279
    61   1 H        0.926     0.065     2.143     2.289
    62   1 H        0.926     0.068     2.104     2.269
    63   1 H        0.926     0.058     2.221     2.330
    64   1 H        0.924     0.047     2.362     2.403
    65   1 H        0.924     0.044     2.399     2.422
    66   1 H        0.925     0.035     2.516     2.480
    67   1 H        0.925     0.041     2.432     2.439
    68   1 H        0.925     0.035     2.510     2.477
    69   1 H        0.926     0.055     2.261     2.352
    70   1 H        0.926     0.054     2.276     2.359
    71   1 H        0.926     0.069     2.098     2.265
    72   1 H        0.926     0.065     2.136     2.285
    73   1 H        0.925     0.067     2.118     2.276
    74   1 H        0.926     0.055     2.255     2.348
    75   1 H        0.926     0.072     2.061     2.245
    76   1 H        0.926     0.075     2.032     2.229
    77   1 H        0.926     0.070     2.084     2.258
    78   1 H        0.926     0.052     2.295     2.369
    79   1 H        0.924     0.044     2.391     2.418
    80   1 H        0.924     0.036     2.507     2.476
    81   1 H        0.925     0.043     2.414     2.430
    82   1 H        0.925     0.044     2.402     2.423
    83   1 H        0.925     0.042     2.418     2.432
    84   1 H        0.926     0.054     2.271     2.357
    85   1 H        0.926     0.053     2.288     2.365
    86   1 H        0.926     0.055     2.258     2.350
    87   1 H        0.926     0.072     2.064     2.247
    88   1 H        0.926     0.075     2.032     2.229
    89   1 H        0.926     0.071     2.078     2.254

 Mol. C6AA /au·bohr⁶  :     133389.388456
 Mol. C8AA /au·bohr⁸  :    3589437.248479
 Mol. α(0) /au        :        584.870524


Wiberg/Mayer (AO) data.
largest (>0.10) Wiberg bond orders for each atom

 ---------------------------------------------------------------------------
     #   Z sym  total        # sym  WBO       # sym  WBO       # sym  WBO
 ---------------------------------------------------------------------------
     1   8 O    2.076 --     2 C    1.689     9 S    0.110
     2   6 C    3.912 --     1 O    1.689     6 C    1.067     3 C    1.026
     3   6 C    3.975 --    59 C    1.422     4 C    1.290     2 C    1.026
     4   6 C    3.980 --    56 C    1.407     3 C    1.290     5 C    1.082
     5   6 C    3.966 --    51 C    1.468     6 C    1.149     4 C    1.082
     6   6 C    3.963 --     7 C    1.482     5 C    1.149     2 C    1.067
     7   6 C    3.952 --     6 C    1.482     8 C    1.312    60 H    0.940
     8   6 C    3.942 --    10 C    1.346     7 C    1.312     9 S    1.112
     9  16 S    2.767 --    12 C    1.207     8 C    1.112     1 O    0.110
    10   6 C    3.962 --    11 C    1.446     8 C    1.346    61 H    0.962
    11   6 C    3.965 --    10 C    1.446    12 C    1.394    62 H    0.959
    12   6 C    3.932 --    11 C    1.394     9 S    1.207    13 C    1.137
    13   6 C    3.961 --    50 C    1.341    14 C    1.328    12 C    1.137
    14   6 C    3.974 --    15 C    1.479    13 C    1.328    63 H    0.954
    15   6 C    3.975 --    14 C    1.479    48 C    1.296    16 C    0.992
    16   6 C    3.988 --    15 C    0.992    19 C    0.987    17 C    0.965
                            46 C    0.950
    17   6 C    3.994 --    18 C    1.020    65 H    0.974    64 H    0.972
                            16 C    0.965
    18   6 C    3.996 --    17 C    1.020    68 H    0.987    67 H    0.986
                            66 H    0.986
    19   6 C    3.974 --    45 C    1.479    20 C    1.298    16 C    0.987
    20   6 C    3.948 --    21 C    1.367    19 C    1.298    48 C    1.106
    21   6 C    3.971 --    22 C    1.478    20 C    1.367    69 H    0.966
    22   6 C    3.969 --    21 C    1.478    23 C    1.339    70 H    0.965
    23   6 C    3.961 --    22 C    1.339    45 C    1.330    24 C    1.138
    24   6 C    3.932 --    25 C    1.394    44 S    1.207    23 C    1.138
    25   6 C    3.965 --    26 C    1.446    24 C    1.394    71 H    0.959
    26   6 C    3.962 --    25 C    1.446    27 C    1.346    72 H    0.962
    27   6 C    3.942 --    26 C    1.346    28 C    1.311    44 S    1.112
    28   6 C    3.952 --    29 C    1.483    27 C    1.311    73 H    0.940
    29   6 C    3.963 --    28 C    1.483    30 C    1.148    37 C    1.067
    30   6 C    3.966 --    39 C    1.469    29 C    1.148    31 C    1.082
    31   6 C    3.980 --    32 C    1.407    36 C    1.290    30 C    1.082
    32   6 C    3.976 --    33 C    1.423    31 C    1.407    74 H    0.961
    33   6 C    3.976 --    34 C    1.439    32 C    1.423    75 H    0.967
    34   6 C    3.965 --    33 C    1.439    35 C    1.417    76 H    0.966
    35   6 C    3.978 --    36 C    1.422    34 C    1.417    77 H    0.965
    36   6 C    3.975 --    35 C    1.422    31 C    1.290    37 C    1.026
    37   6 C    3.912 --    38 O    1.689    29 C    1.067    36 C    1.026
    38   8 O    2.075 --    37 C    1.689    44 S    0.108
    39   6 C    3.945 --    30 C    1.469    42 C    1.103    40 C    1.100
    40   6 C    3.939 --    41 N    2.748    39 C    1.100
    41   7 N    2.956 --    40 C    2.748
    42   6 C    3.940 --    43 N    2.737    39 C    1.103
    43   7 N    2.953 --    42 C    2.737
    44  16 S    2.750 --    24 C    1.207    27 C    1.112    38 O    0.108
    45   6 C    3.974 --    19 C    1.479    23 C    1.330    78 H    0.956
    46   6 C    3.993 --    47 C    1.019    80 H    0.978    79 H    0.973
                            16 C    0.950
    47   6 C    3.993 --    46 C    1.019    82 H    0.984    81 H    0.984
                            83 H    0.983
    48   6 C    3.962 --    49 C    1.369    15 C    1.296    20 C    1.106
    49   6 C    3.971 --    50 C    1.475    48 C    1.369    84 H    0.966
    50   6 C    3.969 --    49 C    1.475    13 C    1.341    85 H    0.965
    51   6 C    3.945 --     5 C    1.468    54 C    1.103    52 C    1.100
    52   6 C    3.939 --    53 N    2.747    51 C    1.100
    53   7 N    2.956 --    52 C    2.747
    54   6 C    3.940 --    55 N    2.736    51 C    1.103
    55   7 N    2.952 --    54 C    2.736
    56   6 C    3.976 --    57 C    1.423     4 C    1.407    86 H    0.961
    57   6 C    3.976 --    58 C    1.439    56 C    1.423    87 H    0.967
    58   6 C    3.965 --    57 C    1.439    59 C    1.417    88 H    0.966
    59   6 C    3.978 --     3 C    1.422    58 C    1.417    89 H    0.965
    60   1 H    0.995 --     7 C    0.940
    61   1 H    0.995 --    10 C    0.962
    62   1 H    0.994 --    11 C    0.959
    63   1 H    0.996 --    14 C    0.954
    64   1 H    0.997 --    17 C    0.972
    65   1 H    0.997 --    17 C    0.974
    66   1 H    0.999 --    18 C    0.986
    67   1 H    0.998 --    18 C    0.986
    68   1 H    0.999 --    18 C    0.987
    69   1 H    0.996 --    21 C    0.966
    70   1 H    0.996 --    22 C    0.965
    71   1 H    0.994 --    25 C    0.959
    72   1 H    0.995 --    26 C    0.962
    73   1 H    0.995 --    28 C    0.940
    74   1 H    0.996 --    32 C    0.961
    75   1 H    0.994 --    33 C    0.967
    76   1 H    0.993 --    34 C    0.966
    77   1 H    0.995 --    35 C    0.965
    78   1 H    0.997 --    45 C    0.956
    79   1 H    0.997 --    46 C    0.973
    80   1 H    0.998 --    46 C    0.978
    81   1 H    0.997 --    47 C    0.984
    82   1 H    0.998 --    47 C    0.984
    83   1 H    0.998 --    47 C    0.983
    84   1 H    0.996 --    49 C    0.966
    85   1 H    0.996 --    50 C    0.965
    86   1 H    0.996 --    56 C    0.961
    87   1 H    0.994 --    57 C    0.967
    88   1 H    0.993 --    58 C    0.966
    89   1 H    0.994 --    59 C    0.965
 ---------------------------------------------------------------------------

Topologies differ in bond orders
Writing corrected topology to xtbtopo.mol

molecular dipole:
                 x           y           z       tot (Debye)
 q only:        0.347       0.201       0.167
   full:        0.374       0.079       0.273       1.193
molecular quadrupole (traceless):
                xx          xy          yy          xz          yz          zz
 q only:      -27.141      93.448      57.447     113.729    -128.687     -30.305
  q+dip:      -32.567      93.621      64.034     112.766    -137.653     -31.467
   full:      -23.135     100.187      55.766     124.718    -133.328     -32.631


           -------------------------------------------------
          | TOTAL ENERGY             -150.694776779546 Eh   |
          | GRADIENT NORM               0.032904026350 Eh/α |
          | HOMO-LUMO GAP               1.135920251057 eV   |
           -------------------------------------------------

------------------------------------------------------------------------
 * finished run on 2022/01/11 at 10:04:05.431     
------------------------------------------------------------------------
 total:
 * wall-time:     0 d,  0 h,  0 min,  0.393 sec
 *  cpu-time:     0 d,  0 h,  0 min,  0.393 sec
 * ratio c/w:     0.999 speedup
 SCF:
 * wall-time:     0 d,  0 h,  0 min,  0.350 sec
 *  cpu-time:     0 d,  0 h,  0 min,  0.349 sec
 * ratio c/w:     0.999 speedup

