      -----------------------------------------------------------      
     |                   =====================                   |     
     |                           x T B                           |     
     |                   =====================                   |     
     |                         S. Grimme                         |     
     |          Mulliken Center for Theoretical Chemistry        |     
     |                    University of Bonn                     |     
      -----------------------------------------------------------      

   * xtb version 6.4.1 (unknown) compiled by 'oda6@login1.crc.pitt.edu' on 2021-06-25

   xtb is free software: you can redistribute it and/or modify it under
   the terms of the GNU Lesser General Public License as published by
   the Free Software Foundation, either version 3 of the License, or
   (at your option) any later version.
   
   xtb is distributed in the hope that it will be useful,
   but WITHOUT ANY WARRANTY; without even the implied warranty of
   MERCHANTABILITY or FITNESS FOR A PARTICULAR PURPOSE.  See the
   GNU Lesser General Public License for more details.
   
   Cite this work as:
   * C. Bannwarth, E. Caldeweyher, S. Ehlert, A. Hansen, P. Pracht,
     J. Seibert, S. Spicher, S. Grimme, WIREs Comput. Mol. Sci., 2020, 11,
     e01493. DOI: 10.1002/wcms.1493
   
   for GFN2-xTB:
   * C. Bannwarth, S. Ehlert and S. Grimme., J. Chem. Theory Comput., 2019,
     15, 1652-1671. DOI: 10.1021/acs.jctc.8b01176
   for GFN1-xTB:
   * S. Grimme, C. Bannwarth, P. Shushkov, J. Chem. Theory Comput., 2017,
     13, 1989-2009. DOI: 10.1021/acs.jctc.7b00118
   for GFN0-xTB:
   * P. Pracht, E. Caldeweyher, S. Ehlert, S. Grimme, ChemRxiv, 2019, preprint.
     DOI: 10.26434/chemrxiv.8326202.v1
   for GFN-FF:
   * S. Spicher and S. Grimme, Angew. Chem. Int. Ed., 2020, 59, 15665-15673.
     DOI: 10.1002/anie.202004239
   
   for DFT-D4:
   * E. Caldeweyher, C. Bannwarth and S. Grimme, J. Chem. Phys., 2017,
     147, 034112. DOI: 10.1063/1.4993215
   * E. Caldeweyher, S. Ehlert, A. Hansen, H. Neugebauer, S. Spicher,
     C. Bannwarth and S. Grimme, J. Chem. Phys., 2019, 150, 154122.
     DOI: 10.1063/1.5090222
   * E. Caldeweyher, J.-M. Mewes, S. Ehlert and S. Grimme, Phys. Chem. Chem. Phys.
     2020, 22, 8499-8512. DOI: 10.1039/D0CP00502A
   
   for sTDA-xTB:
   * S. Grimme and C. Bannwarth, J. Chem. Phys., 2016, 145, 054103.
     DOI: 10.1063/1.4959605
   
   in the mass-spec context:
   * V. Asgeirsson, C. Bauer and S. Grimme, Chem. Sci., 2017, 8, 4879.
     DOI: 10.1039/c7sc00601b
   * J. Koopman and S. Grimme, ACS Omega 2019, 4, 12, 15120-15133.
     DOI: 10.1021/acsomega.9b02011
   
   for metadynamics refer to:
   * S. Grimme, J. Chem. Theory Comput., 2019, 155, 2847-2862
     DOI: 10.1021/acs.jctc.9b00143
   
   for SPH calculations refer to:
   * S. Spicher and S. Grimme, J. Chem. Theory Comput., 2021, 17, 1701-1714
     DOI: 10.1021/acs.jctc.0c01306
   
   with help from (in alphabetical order)
   P. Atkinson, C. Bannwarth, F. Bohle, G. Brandenburg, E. Caldeweyher
   M. Checinski, S. Dohm, S. Ehlert, S. Ehrlich, I. Gerasimov, J. Koopman
   C. Lavigne, S. Lehtola, F. März, M. Müller, F. Musil, H. Neugebauer
   J. Pisarek, C. Plett, P. Pracht, J. Seibert, P. Shushkov, S. Spicher
   M. Stahn, M. Steiner, T. Strunk, J. Stückrath, T. Rose, and J. Unsleber
   
 * started run on 2021/12/28 at 11:42:59.715     

           -------------------------------------------------
          |                Calculation Setup                |
           -------------------------------------------------

          program call               : /ihome/ghutchison/oda6/xtb/xtb-641/bin//xtb EH-IDTBR.mol --sp --alpb water
          hostname                   : smp-n39
          coordinate file            : EH-IDTBR.mol
          omp threads                :                     1
          number of atoms            :                   104
          number of electrons        :                   322
          charge                     :                     0
          spin                       :                   0.0
          first test random number   :      0.39223426829088

   ID    Z sym.   atoms
    1   16 S      1, 3, 14, 24, 43, 49, 57, 59
    2    6 C      2, 5-7, 9-12, 16-23, 25-42, 44-47, 51-56, 58, 61-63
    3    7 N      4, 13, 15, 48, 50, 60
    4    8 O      8, 64
    5    1 H      65-104

           -------------------------------------------------
          |                 G F N 2 - x T B                 |
           -------------------------------------------------

        Reference                      10.1021/acs.jctc.8b01176
      * Hamiltonian:
        H0-scaling (s, p, d)           1.850000    2.230000    2.230000
        zeta-weighting                 0.500000
      * Dispersion:
        s8                             2.700000
        a1                             0.520000
        a2                             5.000000
        s9                             5.000000
      * Repulsion:
        kExp                           1.500000    1.000000
        rExp                           1.000000
      * Coulomb:
        alpha                          2.000000
        third order                    shell-resolved
        anisotropic                    true
        a3                             3.000000
        a5                             4.000000
        cn-shift                       1.200000
        cn-exp                         4.000000
        max-rad                        5.000000

      * Solvation model:               ALPB
        Solvent                        water
        Parameter file                 internal GFN2-xTB/ALPB
        Dielectric constant                8.0200E+01
        Reference state                gsolv [1 M gas/solution]
        Free energy shift                  1.0808E-03 Eh       6.7819E-01 kcal/mol
        Temperature                        2.9815E+02 K
        Density                            1.0000E+00 kg/L
        Solvent mass                       1.8000E+01 g/mol
        Interaction kernel             P16
        Born radius scaling (c1)           1.4744E+00
        Born radii integrator          GBOBC
        Born offset                        0.0000E+00 a0       0.0000E+00 AA
        H-bond correction              true
        Ion screening                  false
        Surface tension                    1.0000E-05 Eh       1.5569E+01 dyn/cm
        Grid points                               230 per atom

          ...................................................
          :                      SETUP                      :
          :.................................................:
          :  # basis functions                 344          :
          :  # atomic orbitals                 336          :
          :  # shells                          176          :
          :  # electrons                       322          :
          :  max. iterations                   250          :
          :  Hamiltonian                  GFN2-xTB          :
          :  restarted?                      false          :
          :  GBSA solvation                   true          :
          :  PC potential                    false          :
          :  electronic temp.          300.0000000     K    :
          :  accuracy                    1.0000000          :
          :  -> integral cutoff          0.2500000E+02      :
          :  -> integral neglect         0.1000000E-07      :
          :  -> SCF convergence          0.1000000E-05 Eh   :
          :  -> wf. convergence          0.1000000E-03 e    :
          :  Broyden damping             0.4000000          :
          ...................................................

 iter      E             dE          RMSdq      gap      omega  full diag
   1   -177.1359071 -0.177136E+03  0.426E+00    0.84       0.0  T
   2   -177.3733348 -0.237428E+00  0.239E+00    0.82       1.0  T
   3   -177.3787818 -0.544699E-02  0.121E+00    0.87       1.0  T
   4   -177.4123934 -0.336117E-01  0.387E-01    0.83       1.0  T
   5   -177.4186391 -0.624564E-02  0.155E-01    0.83       1.0  T
   6   -177.4192458 -0.606738E-03  0.739E-02    0.83       1.0  T
   7   -177.4193631 -0.117302E-03  0.272E-02    0.83       1.0  T
   8   -177.4193809 -0.177612E-04  0.158E-02    0.83       1.0  T
   9   -177.4193861 -0.528055E-05  0.927E-03    0.83       1.1  T
  10   -177.4193874 -0.123799E-05  0.444E-03    0.83       2.2  T
  11   -177.4193877 -0.329356E-06  0.255E-03    0.83       3.8  T
  12   -177.4193878 -0.123181E-06  0.119E-03    0.83       8.2  T
  13   -177.4193879 -0.400460E-07  0.496E-04    0.83      19.8  T
  14   -177.4193879 -0.507379E-08  0.208E-04    0.83      47.1  T

   *** convergence criteria satisfied after 14 iterations ***

         #    Occupation            Energy/Eh            Energy/eV
      -------------------------------------------------------------
         1        2.0000           -0.7734267             -21.0460
       ...           ...                  ...                  ...
       155        2.0000           -0.4007052             -10.9037
       156        2.0000           -0.3987404             -10.8503
       157        2.0000           -0.3949330             -10.7467
       158        2.0000           -0.3807246             -10.3600
       159        2.0000           -0.3794881             -10.3264
       160        2.0000           -0.3791025             -10.3159
       161        2.0000           -0.3649470              -9.9307 (HOMO)
       162        0.0000           -0.3343818              -9.0990 (LUMO)
       163                         -0.3296076              -8.9691
       164                         -0.3079508              -8.3798
       165                         -0.3073390              -8.3631
       166                         -0.2858869              -7.7794
       ...                                ...                  ...
       336                          0.7205984              19.6085
      -------------------------------------------------------------
                  HL-Gap            0.0305652 Eh            0.8317 eV
             Fermi-level           -0.3496675 Eh           -9.5149 eV

 SCC (total)                   0 d,  0 h,  0 min,  0.519 sec
 SCC setup                      ...        0 min,  0.005 sec (  0.917%)
 Dispersion                     ...        0 min,  0.004 sec (  0.745%)
 classical contributions        ...        0 min,  0.000 sec (  0.078%)
 integral evaluation            ...        0 min,  0.048 sec (  9.314%)
 iterations                     ...        0 min,  0.296 sec ( 57.025%)
 molecular gradient             ...        0 min,  0.164 sec ( 31.531%)
 printout                       ...        0 min,  0.002 sec (  0.378%)

         :::::::::::::::::::::::::::::::::::::::::::::::::::::
         ::                     SUMMARY                     ::
         :::::::::::::::::::::::::::::::::::::::::::::::::::::
         :: total energy            -174.995911362981 Eh    ::
         :: total w/o Gsasa/hb      -174.999447043121 Eh    ::
         :: gradient norm              0.039361907506 Eh/a0 ::
         :: HOMO-LUMO gap              0.831720442690 eV    ::
         ::.................................................::
         :: SCC energy              -177.419387875601 Eh    ::
         :: -> isotropic ES            0.152334724483 Eh    ::
         :: -> anisotropic ES          0.004768265368 Eh    ::
         :: -> anisotropic XC          0.079337842367 Eh    ::
         :: -> dispersion             -0.157539579780 Eh    ::
         :: -> Gsolv                  -0.025923553564 Eh    ::
         ::    -> Gelec               -0.029459233704 Eh    ::
         ::    -> Gsasa                0.007169075886 Eh    ::
         ::    -> Ghb                 -0.004714155444 Eh    ::
         ::    -> Gshift               0.001080759698 Eh    ::
         :: repulsion energy           2.424141263920 Eh    ::
         :: add. restraining           0.000000000000 Eh    ::
         :: total charge              -0.000000001356 e     ::
         :::::::::::::::::::::::::::::::::::::::::::::::::::::

           -------------------------------------------------
          |                Property Printout                |
           -------------------------------------------------

    * Orbital Energies and Occupations

         #    Occupation            Energy/Eh            Energy/eV
      -------------------------------------------------------------
         1        2.0000           -0.7734267             -21.0460
       ...           ...                  ...                  ...
       149        2.0000           -0.4211938             -11.4613
       150        2.0000           -0.4201666             -11.4333
       151        2.0000           -0.4165727             -11.3355
       152        2.0000           -0.4152426             -11.2993
       153        2.0000           -0.4090776             -11.1316
       154        2.0000           -0.4050910             -11.0231
       155        2.0000           -0.4007052             -10.9037
       156        2.0000           -0.3987404             -10.8503
       157        2.0000           -0.3949330             -10.7467
       158        2.0000           -0.3807246             -10.3600
       159        2.0000           -0.3794881             -10.3264
       160        2.0000           -0.3791025             -10.3159
       161        2.0000           -0.3649470              -9.9307 (HOMO)
       162        0.0000           -0.3343818              -9.0990 (LUMO)
       163                         -0.3296076              -8.9691
       164                         -0.3079508              -8.3798
       165                         -0.3073390              -8.3631
       166                         -0.2858869              -7.7794
       167                         -0.2753318              -7.4922
       168                         -0.2696755              -7.3382
       169                         -0.2581536              -7.0247
       170                         -0.2420511              -6.5865
       171                         -0.2415562              -6.5731
       172                         -0.2332997              -6.3484
       ...                                ...                  ...
       336                          0.7205984              19.6085
      -------------------------------------------------------------
                  HL-Gap            0.0305652 Eh            0.8317 eV
             Fermi-level           -0.3496675 Eh           -9.5149 eV

     #   Z          covCN         q      C6AA      α(0)
     1  16 S        2.318    -0.043   142.826    20.114
     2   6 C        2.904     0.159    24.565     8.127
     3  16 S        1.165    -0.382   155.951    21.114
     4   7 N        2.896    -0.056    22.309     7.015
     5   6 C        3.746     0.003    20.593     6.473
     6   6 C        3.752    -0.118    22.820     6.812
     7   6 C        2.897     0.274    22.388     7.758
     8   8 O        0.858    -0.457    22.860     6.410
     9   6 C        2.953    -0.009    28.248     8.717
    10   6 C        2.927    -0.019    28.472     8.751
    11   6 C        2.958    -0.001    28.053     8.688
    12   6 C        3.352     0.071    23.755     7.674
    13   7 N        1.855    -0.300    28.616     7.929
    14  16 S        2.672     0.388   126.236    18.910
    15   7 N        1.895    -0.280    28.103     7.859
    16   6 C        3.352     0.070    23.770     7.677
    17   6 C        2.995     0.007    27.859     8.658
    18   6 C        2.921    -0.043    29.067     8.841
    19   6 C        2.919    -0.029    28.734     8.790
    20   6 C        3.002     0.017    27.606     8.619
    21   6 C        3.067    -0.045    29.051     8.838
    22   6 C        3.217    -0.005    27.458     8.523
    23   6 C        3.080     0.022    27.435     8.587
    24  16 S        2.304    -0.004   141.233    20.002
    25   6 C        3.043     0.005    27.866     8.658
    26   6 C        3.078     0.003    27.863     8.654
    27   6 C        3.938     0.016    20.247     6.394
    28   6 C        3.807    -0.055    21.557     6.610
    29   6 C        3.751    -0.114    22.739     6.801
    30   6 C        3.805    -0.058    21.606     6.617
    31   6 C        3.751    -0.108    22.633     6.784
    32   6 C        2.908    -0.038    28.937     8.821
    33   6 C        3.040     0.006    27.854     8.656
    34   6 C        3.080     0.007    27.771     8.639
    35   6 C        2.908    -0.037    28.909     8.816
    36   6 C        3.941     0.015    20.256     6.396
    37   6 C        3.806    -0.059    21.627     6.620
    38   6 C        3.751    -0.108    22.631     6.784
    39   6 C        3.806    -0.059    21.625     6.620
    40   6 C        3.751    -0.109    22.642     6.786
    41   6 C        3.233    -0.003    27.245     8.472
    42   6 C        3.076     0.027    27.330     8.571
    43  16 S        2.268    -0.022   141.982    20.055
    44   6 C        3.003     0.019    27.575     8.614
    45   6 C        3.064    -0.047    29.095     8.845
    46   6 C        2.989     0.008    27.833     8.654
    47   6 C        3.339     0.069    24.055     7.759
    48   7 N        1.854    -0.284    28.211     7.872
    49  16 S        2.670     0.382   126.448    18.926
    50   7 N        1.854    -0.301    28.653     7.934
    51   6 C        3.357     0.072    23.639     7.642
    52   6 C        2.959    -0.001    28.042     8.686
    53   6 C        2.918    -0.028    28.712     8.787
    54   6 C        2.922    -0.041    29.021     8.834
    55   6 C        2.927    -0.018    28.471     8.750
    56   6 C        2.953    -0.009    28.244     8.717
    57  16 S        2.317    -0.042   142.779    20.111
    58   6 C        2.904     0.159    24.566     8.127
    59  16 S        1.165    -0.381   155.912    21.112
    60   7 N        2.896    -0.055    22.306     7.015
    61   6 C        3.746     0.003    20.593     6.473
    62   6 C        3.752    -0.118    22.823     6.813
    63   6 C        2.897     0.274    22.387     7.758
    64   8 O        0.858    -0.457    22.856     6.410
    65   1 H        0.924     0.083     1.946     2.182
    66   1 H        0.924     0.078     2.003     2.213
    67   1 H        0.925     0.053     2.288     2.365
    68   1 H        0.925     0.074     2.045     2.236
    69   1 H        0.925     0.055     2.255     2.348
    70   1 H        0.925     0.091     1.867     2.137
    71   1 H        0.926     0.071     2.070     2.250
    72   1 H        0.926     0.075     2.031     2.228
    73   1 H        0.926     0.062     2.170     2.304
    74   1 H        0.924     0.048     2.341     2.393
    75   1 H        0.924     0.038     2.481     2.463
    76   1 H        0.925     0.045     2.377     2.411
    77   1 H        0.925     0.045     2.388     2.416
    78   1 H        0.925     0.042     2.416     2.431
    79   1 H        0.924     0.048     2.347     2.396
    80   1 H        0.924     0.049     2.326     2.385
    81   1 H        0.925     0.036     2.507     2.476
    82   1 H        0.925     0.044     2.396     2.421
    83   1 H        0.925     0.034     2.527     2.486
    84   1 H        0.926     0.054     2.270     2.356
    85   1 H        0.926     0.056     2.249     2.345
    86   1 H        0.924     0.049     2.330     2.387
    87   1 H        0.924     0.048     2.344     2.394
    88   1 H        0.925     0.037     2.492     2.469
    89   1 H        0.925     0.046     2.376     2.410
    90   1 H        0.925     0.034     2.528     2.486
    91   1 H        0.924     0.048     2.343     2.394
    92   1 H        0.924     0.049     2.332     2.388
    93   1 H        0.925     0.034     2.523     2.484
    94   1 H        0.925     0.046     2.376     2.410
    95   1 H        0.925     0.038     2.482     2.464
    96   1 H        0.926     0.074     2.045     2.236
    97   1 H        0.926     0.075     2.035     2.231
    98   1 H        0.926     0.075     2.036     2.231
    99   1 H        0.925     0.091     1.865     2.136
   100   1 H        0.924     0.078     2.002     2.213
   101   1 H        0.924     0.083     1.948     2.183
   102   1 H        0.925     0.056     2.251     2.346
   103   1 H        0.925     0.074     2.046     2.237
   104   1 H        0.925     0.053     2.285     2.364

 Mol. C6AA /au·bohr⁶  :     190741.052872
 Mol. C8AA /au·bohr⁸  :    5567555.996663
 Mol. α(0) /au        :        694.186972


Wiberg/Mayer (AO) data.
largest (>0.10) Wiberg bond orders for each atom

 ---------------------------------------------------------------------------
     #   Z sym  total        # sym  WBO       # sym  WBO       # sym  WBO
 ---------------------------------------------------------------------------
     1  16 S    2.535 --     2 C    1.089     9 C    1.064     3 S    0.140
     2   6 C    3.945 --     3 S    1.536     4 N    1.234     1 S    1.089
     3  16 S    1.866 --     2 C    1.536     1 S    0.140     4 N    0.103
     4   7 N    3.610 --     2 C    1.234     7 C    1.107     5 C    0.955
                             8 O    0.123     3 S    0.103
     5   6 C    3.942 --     6 C    1.007    66 H    0.965    65 H    0.964
                             4 N    0.955
     6   6 C    3.988 --     5 C    1.007    67 H    0.986    69 H    0.985
                            68 H    0.979
     7   6 C    3.931 --     8 O    1.645     4 N    1.107     9 C    1.060
     8   8 O    1.976 --     7 C    1.645     4 N    0.123
     9   6 C    3.889 --    10 C    1.574     1 S    1.064     7 C    1.060
    10   6 C    3.925 --     9 C    1.574    11 C    1.210    70 H    0.944
    11   6 C    3.938 --    19 C    1.371    10 C    1.210    12 C    1.176
    12   6 C    3.968 --    13 N    1.397    16 C    1.181    11 C    1.176
    13   7 N    3.066 --    14 S    1.420    12 C    1.397    15 N    0.155
    14  16 S    3.159 --    13 N    1.420    15 N    1.416    16 C    0.101
    15   7 N    3.101 --    14 S    1.416    16 C    1.395    13 N    0.155
    16   6 C    3.971 --    15 N    1.395    12 C    1.181    17 C    1.179
                            14 S    0.101
    17   6 C    3.931 --    18 C    1.371    20 C    1.198    16 C    1.179
    18   6 C    3.966 --    19 C    1.427    17 C    1.371    71 H    0.962
    19   6 C    3.955 --    18 C    1.427    11 C    1.371    72 H    0.949
    20   6 C    3.916 --    21 C    1.407    17 C    1.198    24 S    1.121
    21   6 C    3.941 --    20 C    1.407    22 C    1.383    73 H    0.956
    22   6 C    3.950 --    21 C    1.383    23 C    1.366    27 C    0.991
    23   6 C    3.898 --    22 C    1.366    24 S    1.184    25 C    1.158
    24  16 S    2.648 --    23 C    1.184    20 C    1.121
    25   6 C    3.950 --    35 C    1.339    26 C    1.278    23 C    1.158
    26   6 C    3.961 --    32 C    1.473    25 C    1.278    27 C    0.984
    27   6 C    3.988 --    22 C    0.991    26 C    0.984    30 C    0.964
                            28 C    0.950
    28   6 C    3.992 --    29 C    1.019    75 H    0.977    74 H    0.973
                            27 C    0.950
    29   6 C    3.993 --    28 C    1.019    76 H    0.984    77 H    0.984
                            78 H    0.984
    30   6 C    3.993 --    31 C    1.020    79 H    0.974    80 H    0.972
                            27 C    0.964
    31   6 C    3.996 --    30 C    1.020    83 H    0.987    81 H    0.986
                            82 H    0.986
    32   6 C    3.973 --    26 C    1.473    33 C    1.343    84 H    0.963
    33   6 C    3.950 --    32 C    1.343    34 C    1.273    42 C    1.156
    34   6 C    3.963 --    35 C    1.477    33 C    1.273    36 C    0.988
    35   6 C    3.973 --    34 C    1.477    25 C    1.339    85 H    0.963
    36   6 C    3.989 --    41 C    0.991    34 C    0.988    37 C    0.956
                            39 C    0.955
    37   6 C    3.992 --    38 C    1.020    87 H    0.975    86 H    0.974
                            36 C    0.956
    38   6 C    3.995 --    37 C    1.020    90 H    0.987    88 H    0.986
                            89 H    0.986
    39   6 C    3.992 --    40 C    1.021    91 H    0.975    92 H    0.974
                            36 C    0.955
    40   6 C    3.995 --    39 C    1.021    93 H    0.987    95 H    0.986
                            94 H    0.986
    41   6 C    3.950 --    42 C    1.377    45 C    1.372    36 C    0.991
    42   6 C    3.900 --    41 C    1.377    43 S    1.173    33 C    1.156
    43  16 S    2.583 --    42 C    1.173    44 C    1.105
    44   6 C    3.915 --    45 C    1.425    46 C    1.195    43 S    1.105
    45   6 C    3.949 --    44 C    1.425    41 C    1.372    96 H    0.950
    46   6 C    3.931 --    54 C    1.380    44 C    1.195    47 C    1.173
    47   6 C    3.971 --    48 N    1.396    51 C    1.180    46 C    1.173
                            49 S    0.101
    48   7 N    3.075 --    49 S    1.425    47 C    1.396    50 N    0.156
    49  16 S    3.167 --    48 N    1.425    50 N    1.417    47 C    0.101
    50   7 N    3.067 --    49 S    1.417    51 C    1.399    48 N    0.156
    51   6 C    3.969 --    50 N    1.399    47 C    1.180    52 C    1.175
    52   6 C    3.938 --    53 C    1.373    55 C    1.210    51 C    1.175
    53   6 C    3.954 --    54 C    1.424    52 C    1.373    97 H    0.950
    54   6 C    3.966 --    53 C    1.424    46 C    1.380    98 H    0.958
    55   6 C    3.926 --    56 C    1.575    52 C    1.210    99 H    0.944
    56   6 C    3.890 --    55 C    1.575    57 S    1.064    63 C    1.059
    57  16 S    2.535 --    58 C    1.089    56 C    1.064    59 S    0.140
    58   6 C    3.945 --    59 S    1.537    60 N    1.234    57 S    1.089
    59  16 S    1.866 --    58 C    1.537    57 S    0.140    60 N    0.103
    60   7 N    3.610 --    58 C    1.234    63 C    1.108    61 C    0.955
                            64 O    0.123    59 S    0.103
    61   6 C    3.942 --    62 C    1.007   100 H    0.964   101 H    0.964
                            60 N    0.955
    62   6 C    3.988 --    61 C    1.007   104 H    0.986   102 H    0.985
                           103 H    0.979
    63   6 C    3.931 --    64 O    1.645    60 N    1.108    56 C    1.059
    64   8 O    1.977 --    63 C    1.645    60 N    0.123
    65   1 H    0.993 --     5 C    0.964
    66   1 H    0.994 --     5 C    0.965
    67   1 H    0.997 --     6 C    0.986
    68   1 H    0.993 --     6 C    0.979
    69   1 H    0.997 --     6 C    0.985
    70   1 H    0.991 --    10 C    0.944
    71   1 H    0.993 --    18 C    0.962
    72   1 H    0.992 --    19 C    0.949
    73   1 H    0.996 --    21 C    0.956
    74   1 H    0.996 --    28 C    0.973
    75   1 H    0.998 --    28 C    0.977
    76   1 H    0.998 --    29 C    0.984
    77   1 H    0.997 --    29 C    0.984
    78   1 H    0.998 --    29 C    0.984
    79   1 H    0.997 --    30 C    0.974
    80   1 H    0.997 --    30 C    0.972
    81   1 H    0.999 --    31 C    0.986
    82   1 H    0.998 --    31 C    0.986
    83   1 H    0.999 --    31 C    0.987
    84   1 H    0.996 --    32 C    0.963
    85   1 H    0.996 --    35 C    0.963
    86   1 H    0.997 --    37 C    0.974
    87   1 H    0.997 --    37 C    0.975
    88   1 H    0.999 --    38 C    0.986
    89   1 H    0.997 --    38 C    0.986
    90   1 H    0.999 --    38 C    0.987
    91   1 H    0.997 --    39 C    0.975
    92   1 H    0.997 --    39 C    0.974
    93   1 H    0.999 --    40 C    0.987
    94   1 H    0.997 --    40 C    0.986
    95   1 H    0.999 --    40 C    0.986
    96   1 H    0.994 --    45 C    0.950
    97   1 H    0.993 --    53 C    0.950
    98   1 H    0.993 --    54 C    0.958
    99   1 H    0.991 --    55 C    0.944
   100   1 H    0.994 --    61 C    0.964
   101   1 H    0.993 --    61 C    0.964
   102   1 H    0.997 --    62 C    0.985
   103   1 H    0.993 --    62 C    0.979
   104   1 H    0.997 --    62 C    0.986
 ---------------------------------------------------------------------------

Topologies differ in bond orders
Writing corrected topology to xtbtopo.mol

molecular dipole:
                 x           y           z       tot (Debye)
 q only:        1.989      -0.398       1.148
   full:        1.886      -0.299       0.983       5.460
molecular quadrupole (traceless):
                xx          xy          yy          xz          yz          zz
 q only:       13.560    -126.551    -151.113      22.757      58.366     137.554
  q+dip:        4.712    -117.946    -134.261      21.277      52.892     129.549
   full:        0.075    -120.574    -138.915      17.153      59.278     138.840


           -------------------------------------------------
          | TOTAL ENERGY             -174.995911362981 Eh   |
          | GRADIENT NORM               0.039361907506 Eh/α |
          | HOMO-LUMO GAP               0.831720442690 eV   |
           -------------------------------------------------

------------------------------------------------------------------------
 * finished run on 2021/12/28 at 11:43:00.292     
------------------------------------------------------------------------
 total:
 * wall-time:     0 d,  0 h,  0 min,  0.577 sec
 *  cpu-time:     0 d,  0 h,  0 min,  0.576 sec
 * ratio c/w:     1.000 speedup
 SCF:
 * wall-time:     0 d,  0 h,  0 min,  0.520 sec
 *  cpu-time:     0 d,  0 h,  0 min,  0.520 sec
 * ratio c/w:     1.000 speedup

