      -----------------------------------------------------------      
     |                   =====================                   |     
     |                           x T B                           |     
     |                   =====================                   |     
     |                         S. Grimme                         |     
     |          Mulliken Center for Theoretical Chemistry        |     
     |                    University of Bonn                     |     
      -----------------------------------------------------------      

   * xtb version 6.4.1 (unknown) compiled by 'oda6@login1.crc.pitt.edu' on 2021-06-25

   xtb is free software: you can redistribute it and/or modify it under
   the terms of the GNU Lesser General Public License as published by
   the Free Software Foundation, either version 3 of the License, or
   (at your option) any later version.
   
   xtb is distributed in the hope that it will be useful,
   but WITHOUT ANY WARRANTY; without even the implied warranty of
   MERCHANTABILITY or FITNESS FOR A PARTICULAR PURPOSE.  See the
   GNU Lesser General Public License for more details.
   
   Cite this work as:
   * C. Bannwarth, E. Caldeweyher, S. Ehlert, A. Hansen, P. Pracht,
     J. Seibert, S. Spicher, S. Grimme, WIREs Comput. Mol. Sci., 2020, 11,
     e01493. DOI: 10.1002/wcms.1493
   
   for GFN2-xTB:
   * C. Bannwarth, S. Ehlert and S. Grimme., J. Chem. Theory Comput., 2019,
     15, 1652-1671. DOI: 10.1021/acs.jctc.8b01176
   for GFN1-xTB:
   * S. Grimme, C. Bannwarth, P. Shushkov, J. Chem. Theory Comput., 2017,
     13, 1989-2009. DOI: 10.1021/acs.jctc.7b00118
   for GFN0-xTB:
   * P. Pracht, E. Caldeweyher, S. Ehlert, S. Grimme, ChemRxiv, 2019, preprint.
     DOI: 10.26434/chemrxiv.8326202.v1
   for GFN-FF:
   * S. Spicher and S. Grimme, Angew. Chem. Int. Ed., 2020, 59, 15665-15673.
     DOI: 10.1002/anie.202004239
   
   for DFT-D4:
   * E. Caldeweyher, C. Bannwarth and S. Grimme, J. Chem. Phys., 2017,
     147, 034112. DOI: 10.1063/1.4993215
   * E. Caldeweyher, S. Ehlert, A. Hansen, H. Neugebauer, S. Spicher,
     C. Bannwarth and S. Grimme, J. Chem. Phys., 2019, 150, 154122.
     DOI: 10.1063/1.5090222
   * E. Caldeweyher, J.-M. Mewes, S. Ehlert and S. Grimme, Phys. Chem. Chem. Phys.
     2020, 22, 8499-8512. DOI: 10.1039/D0CP00502A
   
   for sTDA-xTB:
   * S. Grimme and C. Bannwarth, J. Chem. Phys., 2016, 145, 054103.
     DOI: 10.1063/1.4959605
   
   in the mass-spec context:
   * V. Asgeirsson, C. Bauer and S. Grimme, Chem. Sci., 2017, 8, 4879.
     DOI: 10.1039/c7sc00601b
   * J. Koopman and S. Grimme, ACS Omega 2019, 4, 12, 15120-15133.
     DOI: 10.1021/acsomega.9b02011
   
   for metadynamics refer to:
   * S. Grimme, J. Chem. Theory Comput., 2019, 155, 2847-2862
     DOI: 10.1021/acs.jctc.9b00143
   
   for SPH calculations refer to:
   * S. Spicher and S. Grimme, J. Chem. Theory Comput., 2021, 17, 1701-1714
     DOI: 10.1021/acs.jctc.0c01306
   
   with help from (in alphabetical order)
   P. Atkinson, C. Bannwarth, F. Bohle, G. Brandenburg, E. Caldeweyher
   M. Checinski, S. Dohm, S. Ehlert, S. Ehrlich, I. Gerasimov, J. Koopman
   C. Lavigne, S. Lehtola, F. März, M. Müller, F. Musil, H. Neugebauer
   J. Pisarek, C. Plett, P. Pracht, J. Seibert, P. Shushkov, S. Spicher
   M. Stahn, M. Steiner, T. Strunk, J. Stückrath, T. Rose, and J. Unsleber
   
 * started run on 2021/12/28 at 11:43:18.375     

           -------------------------------------------------
          |                Calculation Setup                |
           -------------------------------------------------

          program call               : /ihome/ghutchison/oda6/xtb/xtb-641/bin//xtb FNIC2.mol --sp --alpb water
          hostname                   : smp-n39
          coordinate file            : FNIC2.mol
          omp threads                :                     1
          number of atoms            :                   170
          number of electrons        :                   542
          charge                     :                     0
          spin                       :                   0.0
          first test random number   :      0.07999662905918

   ID    Z sym.   atoms
    1    6 C      1-6, 8, 9, 11, 13-26, 28-30, 33, 35-39, 41-45, 47-50,
                  52-56, 58-61, 67-99, 101-107, 109-112
    2    8 O      7, 27
    3    7 N      10, 12, 31, 32
    4   16 S      34, 40, 46, 51, 57, 62, 100, 108
    5    9 F      63-66
    6    1 H      113-170

           -------------------------------------------------
          |                 G F N 2 - x T B                 |
           -------------------------------------------------

        Reference                      10.1021/acs.jctc.8b01176
      * Hamiltonian:
        H0-scaling (s, p, d)           1.850000    2.230000    2.230000
        zeta-weighting                 0.500000
      * Dispersion:
        s8                             2.700000
        a1                             0.520000
        a2                             5.000000
        s9                             5.000000
      * Repulsion:
        kExp                           1.500000    1.000000
        rExp                           1.000000
      * Coulomb:
        alpha                          2.000000
        third order                    shell-resolved
        anisotropic                    true
        a3                             3.000000
        a5                             4.000000
        cn-shift                       1.200000
        cn-exp                         4.000000
        max-rad                        5.000000

      * Solvation model:               ALPB
        Solvent                        water
        Parameter file                 internal GFN2-xTB/ALPB
        Dielectric constant                8.0200E+01
        Reference state                gsolv [1 M gas/solution]
        Free energy shift                  1.0808E-03 Eh       6.7819E-01 kcal/mol
        Temperature                        2.9815E+02 K
        Density                            1.0000E+00 kg/L
        Solvent mass                       1.8000E+01 g/mol
        Interaction kernel             P16
        Born radius scaling (c1)           1.4744E+00
        Born radii integrator          GBOBC
        Born offset                        0.0000E+00 a0       0.0000E+00 AA
        H-bond correction              true
        Ion screening                  false
        Surface tension                    1.0000E-05 Eh       1.5569E+01 dyn/cm
        Grid points                               230 per atom

          ...................................................
          :                      SETUP                      :
          :.................................................:
          :  # basis functions                 554          :
          :  # atomic orbitals                 546          :
          :  # shells                          290          :
          :  # electrons                       542          :
          :  max. iterations                   250          :
          :  Hamiltonian                  GFN2-xTB          :
          :  restarted?                      false          :
          :  GBSA solvation                   true          :
          :  PC potential                    false          :
          :  electronic temp.          300.0000000     K    :
          :  accuracy                    1.0000000          :
          :  -> integral cutoff          0.2500000E+02      :
          :  -> integral neglect         0.1000000E-07      :
          :  -> SCF convergence          0.1000000E-05 Eh   :
          :  -> wf. convergence          0.1000000E-03 e    :
          :  Broyden damping             0.4000000          :
          ...................................................

 iter      E             dE          RMSdq      gap      omega  full diag
   1   -300.0585256 -0.300059E+03  0.476E+00    0.75       0.0  T
   2   -300.1939789 -0.135453E+00  0.275E+00    0.85       1.0  T
   3   -300.0091965  0.184782E+00  0.140E+00    0.53       1.0  T
   4   -300.2468822 -0.237686E+00  0.413E-01    0.74       1.0  T
   5   -300.2589497 -0.120675E-01  0.150E-01    0.67       1.0  T
   6   -300.2600711 -0.112137E-02  0.614E-02    0.69       1.0  T
   7   -300.2601802 -0.109130E-03  0.275E-02    0.68       1.0  T
   8   -300.2602395 -0.593492E-04  0.139E-02    0.69       1.0  T
   9   -300.2602463 -0.674370E-05  0.783E-03    0.69       1.0  T
  10   -300.2602507 -0.439083E-05  0.372E-03    0.69       2.1  T
  11   -300.2602510 -0.328686E-06  0.207E-03    0.69       3.7  T
  12   -300.2602511 -0.951853E-07  0.115E-03    0.69       6.7  T
  13   -300.2602512 -0.631526E-07  0.431E-04    0.69      17.8  T
  14   -300.2602512 -0.100305E-07  0.224E-04    0.69      34.2  T

   *** convergence criteria satisfied after 14 iterations ***

         #    Occupation            Energy/Eh            Energy/eV
      -------------------------------------------------------------
         1        2.0000           -0.8585053             -23.3611
       ...           ...                  ...                  ...
       265        2.0000           -0.3902523             -10.6193
       266        2.0000           -0.3879344             -10.5562
       267        2.0000           -0.3875571             -10.5460
       268        2.0000           -0.3864372             -10.5155
       269        2.0000           -0.3809093             -10.3651
       270        2.0000           -0.3791741             -10.3179
       271        2.0000           -0.3677079             -10.0058 (HOMO)
       272        0.0000           -0.3423580              -9.3160 (LUMO)
       273        0.0000           -0.3400853              -9.2542
       274                         -0.3322837              -9.0419
       275                         -0.3291910              -8.9577
       276                         -0.2994266              -8.1478
       ...                                ...                  ...
       546                          1.1476229              31.2284
      -------------------------------------------------------------
                  HL-Gap            0.0253499 Eh            0.6898 eV
             Fermi-level           -0.3550745 Eh           -9.6621 eV

 SCC (total)                   0 d,  0 h,  0 min,  1.515 sec
 SCC setup                      ...        0 min,  0.010 sec (  0.679%)
 Dispersion                     ...        0 min,  0.010 sec (  0.648%)
 classical contributions        ...        0 min,  0.001 sec (  0.071%)
 integral evaluation            ...        0 min,  0.113 sec (  7.440%)
 iterations                     ...        0 min,  0.902 sec ( 59.504%)
 molecular gradient             ...        0 min,  0.473 sec ( 31.204%)
 printout                       ...        0 min,  0.007 sec (  0.451%)

         :::::::::::::::::::::::::::::::::::::::::::::::::::::
         ::                     SUMMARY                     ::
         :::::::::::::::::::::::::::::::::::::::::::::::::::::
         :: total energy            -295.533090941634 Eh    ::
         :: total w/o Gsasa/hb      -295.517150030122 Eh    ::
         :: gradient norm              0.034863329443 Eh/a0 ::
         :: HOMO-LUMO gap              0.689805674629 eV    ::
         ::.................................................::
         :: SCC energy              -300.260251174359 Eh    ::
         :: -> isotropic ES            0.171266543288 Eh    ::
         :: -> anisotropic ES          0.019419253177 Eh    ::
         :: -> anisotropic XC          0.153494489597 Eh    ::
         :: -> dispersion             -0.302298571143 Eh    ::
         :: -> Gsolv                  -0.045061824397 Eh    ::
         ::    -> Gelec               -0.029120912885 Eh    ::
         ::    -> Gsasa               -0.009869260007 Eh    ::
         ::    -> Ghb                 -0.007152411203 Eh    ::
         ::    -> Gshift               0.001080759698 Eh    ::
         :: repulsion energy           4.718587002979 Eh    ::
         :: add. restraining           0.000000000000 Eh    ::
         :: total charge              -0.000000000187 e     ::
         :::::::::::::::::::::::::::::::::::::::::::::::::::::

           -------------------------------------------------
          |                Property Printout                |
           -------------------------------------------------

    * Orbital Energies and Occupations

         #    Occupation            Energy/Eh            Energy/eV
      -------------------------------------------------------------
         1        2.0000           -0.8585053             -23.3611
       ...           ...                  ...                  ...
       259        2.0000           -0.3996606             -10.8753
       260        2.0000           -0.3985375             -10.8448
       261        2.0000           -0.3974374             -10.8148
       262        2.0000           -0.3957065             -10.7677
       263        2.0000           -0.3944614             -10.7338
       264        2.0000           -0.3941922             -10.7265
       265        2.0000           -0.3902523             -10.6193
       266        2.0000           -0.3879344             -10.5562
       267        2.0000           -0.3875571             -10.5460
       268        2.0000           -0.3864372             -10.5155
       269        2.0000           -0.3809093             -10.3651
       270        2.0000           -0.3791741             -10.3179
       271        2.0000           -0.3677079             -10.0058 (HOMO)
       272        0.0000           -0.3423580              -9.3160 (LUMO)
       273        0.0000           -0.3400853              -9.2542
       274                         -0.3322837              -9.0419
       275                         -0.3291910              -8.9577
       276                         -0.2994266              -8.1478
       277                         -0.2870524              -7.8111
       278                         -0.2759508              -7.5090
       279                         -0.2678581              -7.2888
       280                         -0.2617121              -7.1215
       281                         -0.2567280              -6.9859
       282                         -0.2567015              -6.9852
       ...                                ...                  ...
       546                          1.1476229              31.2284
      -------------------------------------------------------------
                  HL-Gap            0.0253499 Eh            0.6898 eV
             Fermi-level           -0.3550745 Eh           -9.6621 eV

     #   Z          covCN         q      C6AA      α(0)
     1   6 C        2.960    -0.009    28.238     8.716
     2   6 C        3.001    -0.038    28.922     8.822
     3   6 C        3.020     0.040    27.082     8.536
     4   6 C        3.032     0.013    27.703     8.633
     5   6 C        3.048    -0.015    28.343     8.731
     6   6 C        2.866     0.236    23.074     7.874
     7   8 O        0.856    -0.413    21.936     6.279
     8   6 C        2.947     0.010    27.801     8.648
     9   6 C        1.951     0.135    27.790     8.513
    10   7 N        0.911    -0.273    27.052     7.522
    11   6 C        1.949     0.134    27.808     8.516
    12   7 N        0.911    -0.269    26.966     7.510
    13   6 C        2.914    -0.045    29.127     8.850
    14   6 C        2.782     0.170    24.328     8.079
    15   6 C        2.783     0.169    24.353     8.083
    16   6 C        2.913    -0.039    28.960     8.824
    17   6 C        2.918    -0.011    28.279     8.720
    18   6 C        3.007    -0.038    28.919     8.821
    19   6 C        3.019     0.039    27.094     8.538
    20   6 C        3.036     0.012    27.704     8.633
    21   6 C        3.048    -0.014    28.319     8.728
    22   6 C        2.872     0.234    23.108     7.880
    23   6 C        2.914    -0.045    29.115     8.848
    24   6 C        2.782     0.170    24.324     8.078
    25   6 C        2.783     0.169    24.347     8.082
    26   6 C        2.913    -0.039    28.958     8.824
    27   8 O        0.950    -0.388    21.397     6.204
    28   6 C        2.947     0.010    27.805     8.648
    29   6 C        1.946     0.134    27.799     8.515
    30   6 C        1.944     0.135    27.794     8.514
    31   7 N        0.911    -0.273    27.046     7.522
    32   7 N        0.911    -0.273    27.066     7.524
    33   6 C        2.994     0.030    27.311     8.573
    34  16 S        2.295    -0.003   141.161    19.997
    35   6 C        3.134     0.028    27.162     8.531
    36   6 C        3.194     0.022    27.000     8.473
    37   6 C        3.046    -0.043    29.010     8.834
    38   6 C        3.210    -0.012    27.670     8.563
    39   6 C        3.090     0.024    27.361     8.574
    40  16 S        2.179    -0.003   141.176    19.998
    41   6 C        3.952     0.024    20.097     6.370
    42   6 C        3.198    -0.006    27.626     8.567
    43   6 C        3.077     0.024    27.394     8.581
    44   6 C        3.095    -0.001    27.933     8.662
    45   6 C        3.024     0.022    27.500     8.602
    46  16 S        2.196    -0.046   142.941    20.122
    47   6 C        3.023     0.001    27.987     8.678
    48   6 C        3.025     0.022    27.484     8.599
    49   6 C        3.091    -0.001    27.957     8.667
    50   6 C        3.022     0.001    27.992     8.678
    51  16 S        2.195    -0.043   142.837    20.115
    52   6 C        3.078     0.024    27.378     8.578
    53   6 C        3.193    -0.007    27.668     8.577
    54   6 C        3.085     0.025    27.361     8.575
    55   6 C        3.219    -0.011    27.569     8.539
    56   6 C        3.954     0.024    20.103     6.371
    57  16 S        2.173    -0.009   141.441    20.017
    58   6 C        3.172     0.024    27.090     8.502
    59   6 C        3.131     0.015    27.473     8.581
    60   6 C        3.058    -0.045    29.048     8.839
    61   6 C        2.991     0.030    27.331     8.576
    62  16 S        2.316     0.026   139.995    19.914
    63   9 F        0.787    -0.217    11.410     3.990
    64   9 F        0.787    -0.217    11.409     3.990
    65   9 F        0.787    -0.216    11.401     3.989
    66   9 F        0.787    -0.217    11.407     3.990
    67   6 C        2.976     0.009    27.823     8.652
    68   6 C        2.986     0.011    27.756     8.642
    69   6 C        2.923    -0.038    28.942     8.822
    70   6 C        2.925    -0.040    29.006     8.832
    71   6 C        2.971     0.015    27.664     8.627
    72   6 C        2.925    -0.041    29.014     8.833
    73   6 C        2.923    -0.036    28.894     8.815
    74   6 C        2.926    -0.039    28.968     8.826
    75   6 C        2.925    -0.042    29.039     8.837
    76   6 C        2.971     0.014    27.698     8.633
    77   6 C        2.927    -0.039    28.968     8.826
    78   6 C        2.921    -0.036    28.891     8.814
    79   6 C        3.807    -0.064    21.726     6.635
    80   6 C        3.754    -0.104    22.546     6.771
    81   6 C        3.806    -0.063    21.713     6.633
    82   6 C        3.754    -0.103    22.522     6.767
    83   6 C        2.981     0.010    27.777     8.645
    84   6 C        2.976     0.008    27.831     8.654
    85   6 C        2.923    -0.036    28.892     8.815
    86   6 C        2.926    -0.040    29.002     8.832
    87   6 C        2.971     0.016    27.646     8.625
    88   6 C        2.925    -0.041    29.018     8.834
    89   6 C        2.924    -0.039    28.959     8.825
    90   6 C        2.925    -0.039    28.971     8.827
    91   6 C        2.925    -0.041    29.025     8.835
    92   6 C        2.971     0.014    27.687     8.631
    93   6 C        2.927    -0.039    28.962     8.826
    94   6 C        2.921    -0.037    28.921     8.819
    95   6 C        3.807    -0.064    21.728     6.636
    96   6 C        3.754    -0.105    22.562     6.773
    97   6 C        3.806    -0.063    21.697     6.631
    98   6 C        3.754    -0.107    22.598     6.779
    99   6 C        2.988     0.025    27.435     8.592
   100  16 S        2.363    -0.039   142.672    20.103
   101   6 C        3.001     0.013    27.715     8.636
   102   6 C        3.115    -0.050    29.062     8.831
   103   6 C        3.118    -0.059    29.275     8.862
   104   6 C        3.000     0.012    27.736     8.639
   105   6 C        3.115    -0.051    29.107     8.837
   106   6 C        3.117    -0.060    29.323     8.870
   107   6 C        2.988     0.025    27.434     8.592
   108  16 S        2.358    -0.041   142.740    20.108
   109   6 C        3.827    -0.057    21.584     6.611
   110   6 C        3.753    -0.110    22.661     6.788
   111   6 C        3.827    -0.058    21.592     6.612
   112   6 C        3.753    -0.111    22.673     6.790
   113   1 H        0.925     0.078     1.995     2.209
   114   1 H        0.926     0.099     1.793     2.094
   115   1 H        0.926     0.116     1.649     2.008
   116   1 H        0.925     0.080     1.984     2.202
   117   1 H        0.926     0.099     1.796     2.096
   118   1 H        0.926     0.118     1.627     1.995
   119   1 H        0.926     0.105     1.736     2.061
   120   1 H        0.926     0.084     1.933     2.174
   121   1 H        0.926     0.046     2.372     2.409
   122   1 H        0.926     0.040     2.446     2.445
   123   1 H        0.926     0.042     2.421     2.433
   124   1 H        0.926     0.031     2.568     2.506
   125   1 H        0.925     0.023     2.684     2.562
   126   1 H        0.926     0.038     2.470     2.458
   127   1 H        0.926     0.040     2.446     2.446
   128   1 H        0.926     0.041     2.433     2.439
   129   1 H        0.924     0.042     2.418     2.432
   130   1 H        0.924     0.043     2.412     2.429
   131   1 H        0.925     0.044     2.399     2.422
   132   1 H        0.925     0.038     2.473     2.459
   133   1 H        0.925     0.040     2.449     2.447
   134   1 H        0.924     0.042     2.424     2.435
   135   1 H        0.924     0.043     2.410     2.428
   136   1 H        0.925     0.044     2.399     2.422
   137   1 H        0.925     0.038     2.469     2.457
   138   1 H        0.925     0.036     2.501     2.473
   139   1 H        0.926     0.030     2.590     2.517
   140   1 H        0.926     0.041     2.432     2.439
   141   1 H        0.926     0.044     2.399     2.422
   142   1 H        0.926     0.047     2.355     2.400
   143   1 H        0.925     0.022     2.699     2.569
   144   1 H        0.926     0.038     2.481     2.463
   145   1 H        0.926     0.042     2.427     2.436
   146   1 H        0.926     0.044     2.394     2.420
   147   1 H        0.924     0.043     2.415     2.430
   148   1 H        0.924     0.043     2.409     2.427
   149   1 H        0.925     0.044     2.398     2.422
   150   1 H        0.925     0.040     2.451     2.448
   151   1 H        0.925     0.040     2.454     2.450
   152   1 H        0.924     0.043     2.410     2.428
   153   1 H        0.924     0.043     2.416     2.431
   154   1 H        0.925     0.037     2.483     2.464
   155   1 H        0.925     0.040     2.451     2.448
   156   1 H        0.925     0.044     2.402     2.424
   157   1 H        0.926     0.037     2.491     2.468
   158   1 H        0.926     0.042     2.420     2.433
   159   1 H        0.926     0.033     2.539     2.492
   160   1 H        0.926     0.043     2.405     2.425
   161   1 H        0.924     0.053     2.281     2.362
   162   1 H        0.924     0.051     2.308     2.376
   163   1 H        0.925     0.050     2.315     2.379
   164   1 H        0.925     0.045     2.389     2.417
   165   1 H        0.925     0.044     2.400     2.423
   166   1 H        0.924     0.052     2.293     2.368
   167   1 H        0.924     0.053     2.287     2.365
   168   1 H        0.925     0.043     2.403     2.424
   169   1 H        0.925     0.045     2.383     2.414
   170   1 H        0.925     0.050     2.314     2.379

 Mol. C6AA /au·bohr⁶  :     509380.512140
 Mol. C8AA /au·bohr⁸  :   14330118.462433
 Mol. α(0) /au        :       1141.954259


Wiberg/Mayer (AO) data.
largest (>0.10) Wiberg bond orders for each atom

 ---------------------------------------------------------------------------
     #   Z sym  total        # sym  WBO       # sym  WBO       # sym  WBO
 ---------------------------------------------------------------------------
     1   6 C    3.931 --     2 C    1.467    33 C    1.317   113 H    0.939
     2   6 C    3.947 --     1 C    1.467     3 C    1.153     6 C    1.061
     3   6 C    3.964 --     8 C    1.473     2 C    1.153     4 C    1.078
     4   6 C    3.982 --    13 C    1.401     5 C    1.304     3 C    1.078
     5   6 C    3.977 --    16 C    1.419     4 C    1.304     6 C    1.014
     6   6 C    3.913 --     7 O    1.722     2 C    1.061     5 C    1.014
     7   8 O    2.019 --     6 C    1.722
     8   6 C    3.941 --     3 C    1.473    11 C    1.100     9 C    1.098
     9   6 C    3.940 --    10 N    2.752     8 C    1.098
    10   7 N    2.958 --     9 C    2.752
    11   6 C    3.942 --    12 N    2.742     8 C    1.100
    12   7 N    2.954 --    11 C    2.742
    13   6 C    3.967 --     4 C    1.401    14 C    1.390   114 H    0.952
    14   6 C    3.874 --    13 C    1.390    15 C    1.339    63 F    0.968
    15   6 C    3.868 --    16 C    1.385    14 C    1.339    64 F    0.967
    16   6 C    3.970 --     5 C    1.419    15 C    1.385   115 H    0.955
    17   6 C    3.933 --    18 C    1.449    61 C    1.337   116 H    0.937
    18   6 C    3.948 --    17 C    1.449    19 C    1.159    22 C    1.081
    19   6 C    3.962 --    28 C    1.468    18 C    1.159    20 C    1.076
    20   6 C    3.982 --    23 C    1.404    21 C    1.302    19 C    1.076
    21   6 C    3.975 --    26 C    1.420    20 C    1.302    22 C    1.016
    22   6 C    3.912 --    27 O    1.693    18 C    1.081    21 C    1.016
    23   6 C    3.966 --    20 C    1.404    24 C    1.387   117 H    0.953
    24   6 C    3.874 --    23 C    1.387    25 C    1.341    66 F    0.968
    25   6 C    3.868 --    26 C    1.383    24 C    1.341    65 F    0.967
    26   6 C    3.968 --    21 C    1.420    25 C    1.383   118 H    0.954
    27   8 O    2.084 --    22 C    1.693    62 S    0.118
    28   6 C    3.938 --    19 C    1.468    30 C    1.102    29 C    1.100
    29   6 C    3.940 --    32 N    2.752    28 C    1.100
    30   6 C    3.942 --    31 N    2.742    28 C    1.102
    31   7 N    2.954 --    30 C    2.742
    32   7 N    2.956 --    29 C    2.752
    33   6 C    3.928 --    37 C    1.372     1 C    1.317    34 S    1.061
    34  16 S    2.575 --    35 C    1.155    33 C    1.061
    35   6 C    3.936 --    38 C    1.331    36 C    1.248    34 S    1.155
    36   6 C    3.928 --    37 C    1.404    35 C    1.248    40 S    1.092
    37   6 C    3.947 --    36 C    1.404    33 C    1.372   119 H    0.937
    38   6 C    3.954 --    39 C    1.366    35 C    1.331    41 C    0.960
    39   6 C    3.904 --    38 C    1.366    43 C    1.201    40 S    1.143
    40  16 S    2.550 --    39 C    1.143    36 C    1.092
    41   6 C    3.983 --    42 C    0.982    38 C    0.960    84 C    0.950
                            83 C    0.944
    42   6 C    3.926 --    43 C    1.423    44 C    1.234    41 C    0.982
    43   6 C    3.927 --    42 C    1.423    39 C    1.201    46 S    1.120
    44   6 C    3.964 --    47 C    1.276    42 C    1.234    45 C    1.229
    45   6 C    3.936 --    50 C    1.395    44 C    1.229    46 S    1.087
    46  16 S    2.524 --    43 C    1.120    45 C    1.087
    47   6 C    3.955 --    48 C    1.402    44 C    1.276   104 C    1.039
    48   6 C    3.936 --    47 C    1.402    49 C    1.226    51 S    1.088
    49   6 C    3.963 --    50 C    1.274    53 C    1.239    48 C    1.226
    50   6 C    3.956 --    45 C    1.395    49 C    1.274   101 C    1.052
    51  16 S    2.521 --    52 C    1.120    48 C    1.088
    52   6 C    3.925 --    53 C    1.419    54 C    1.204    51 S    1.120
    53   6 C    3.924 --    52 C    1.419    49 C    1.239    56 C    0.979
    54   6 C    3.901 --    55 C    1.369    52 C    1.204    57 S    1.136
    55   6 C    3.953 --    54 C    1.369    59 C    1.328    56 C    0.959
    56   6 C    3.983 --    53 C    0.979    55 C    0.959    67 C    0.952
                            68 C    0.945
    57  16 S    2.539 --    54 C    1.136    58 C    1.087
    58   6 C    3.926 --    60 C    1.428    59 C    1.241    57 S    1.087
    59   6 C    3.945 --    55 C    1.328    58 C    1.241    62 S    1.159
    60   6 C    3.953 --    58 C    1.428    61 C    1.336   120 H    0.957
    61   6 C    3.933 --    17 C    1.337    60 C    1.336    62 S    1.084
    62  16 S    2.723 --    59 C    1.159    61 C    1.084    27 O    0.118
    63   9 F    1.100 --    14 C    0.968
    64   9 F    1.097 --    15 C    0.967
    65   9 F    1.098 --    25 C    0.967
    66   9 F    1.100 --    24 C    0.968
    67   6 C    3.982 --    78 C    1.419    74 C    1.398    56 C    0.952
                            76 C    0.105
    68   6 C    3.979 --    73 C    1.409    69 C    1.398    56 C    0.945
                            71 C    0.104
    69   6 C    3.987 --    70 C    1.451    68 C    1.398   121 H    0.958
                            72 C    0.107
    70   6 C    3.988 --    69 C    1.451    71 C    1.403   122 H    0.968
                            73 C    0.106
    71   6 C    3.984 --    72 C    1.413    70 C    1.403    79 C    1.014
                            68 C    0.104
    72   6 C    3.990 --    73 C    1.441    71 C    1.413   123 H    0.968
                            69 C    0.107
    73   6 C    3.990 --    72 C    1.441    68 C    1.409   124 H    0.964
                            70 C    0.106
    74   6 C    3.991 --    75 C    1.459    67 C    1.398   125 H    0.969
                            77 C    0.109
    75   6 C    3.990 --    74 C    1.459    76 C    1.400   126 H    0.968
                            78 C    0.107
    76   6 C    3.985 --    77 C    1.416    75 C    1.400    81 C    1.014
                            67 C    0.105
    77   6 C    3.989 --    78 C    1.437    76 C    1.416   127 H    0.968
                            74 C    0.109
    78   6 C    3.988 --    77 C    1.437    67 C    1.419   128 H    0.960
                            75 C    0.107
    79   6 C    3.996 --    71 C    1.014    80 C    0.999   130 H    0.974
                           129 H    0.973
    80   6 C    3.995 --    79 C    0.999   132 H    0.988   133 H    0.988
                           131 H    0.986
    81   6 C    3.996 --    76 C    1.014    82 C    1.000   134 H    0.974
                           135 H    0.974
    82   6 C    3.995 --    81 C    1.000   138 H    0.988   137 H    0.987
                           136 H    0.986
    83   6 C    3.979 --    85 C    1.410    89 C    1.399    41 C    0.944
                            87 C    0.104
    84   6 C    3.981 --    94 C    1.420    90 C    1.398    41 C    0.950
                            92 C    0.105
    85   6 C    3.988 --    86 C    1.441    83 C    1.410   139 H    0.963
                            88 C    0.106
    86   6 C    3.990 --    85 C    1.441    87 C    1.413   140 H    0.968
                            89 C    0.107
    87   6 C    3.984 --    86 C    1.413    88 C    1.403    95 C    1.014
                            83 C    0.104
    88   6 C    3.988 --    89 C    1.450    87 C    1.403   141 H    0.968
                            85 C    0.106
    89   6 C    3.987 --    88 C    1.450    83 C    1.399   142 H    0.957
                            86 C    0.107
    90   6 C    3.991 --    91 C    1.459    84 C    1.398   143 H    0.969
                            93 C    0.109
    91   6 C    3.990 --    90 C    1.459    92 C    1.400   144 H    0.968
                            94 C    0.106
    92   6 C    3.985 --    93 C    1.416    91 C    1.400    97 C    1.014
                            84 C    0.105
    93   6 C    3.989 --    94 C    1.437    92 C    1.416   145 H    0.968
                            90 C    0.109
    94   6 C    3.988 --    93 C    1.437    84 C    1.420   146 H    0.960
                            91 C    0.106
    95   6 C    3.996 --    87 C    1.014    96 C    0.999   147 H    0.974
                           148 H    0.973
    96   6 C    3.995 --    95 C    0.999   150 H    0.988   151 H    0.988
                           149 H    0.985
    97   6 C    3.996 --    92 C    1.014    98 C    1.000   152 H    0.974
                           153 H    0.973
    98   6 C    3.995 --    97 C    1.000   154 H    0.988   155 H    0.988
                           156 H    0.986
    99   6 C    3.941 --   103 C    1.590   100 S    1.160   109 C    1.026
                           101 C    0.105
   100  16 S    2.605 --    99 C    1.160   101 C    1.135
   101   6 C    3.945 --   102 C    1.561   100 S    1.135    50 C    1.052
                            99 C    0.105
   102   6 C    3.978 --   101 C    1.561   103 C    1.277   157 H    0.964
   103   6 C    3.982 --    99 C    1.590   102 C    1.277   158 H    0.963
   104   6 C    3.945 --   105 C    1.574   108 S    1.134    47 C    1.039
                           107 C    0.108
   105   6 C    3.980 --   104 C    1.574   106 C    1.272   159 H    0.965
   106   6 C    3.983 --   107 C    1.596   105 C    1.272   160 H    0.963
   107   6 C    3.944 --   106 C    1.596   108 S    1.157   111 C    1.026
                           104 C    0.108
   108  16 S    2.600 --   107 C    1.157   104 C    1.134
   109   6 C    3.994 --    99 C    1.026   110 C    1.001   161 H    0.970
                           162 H    0.963
   110   6 C    3.993 --   109 C    1.001   165 H    0.988   164 H    0.986
                           163 H    0.985
   111   6 C    3.994 --   107 C    1.026   112 C    1.001   167 H    0.970
                           166 H    0.964
   112   6 C    3.993 --   111 C    1.001   168 H    0.988   169 H    0.986
                           170 H    0.985
   113   1 H    0.993 --     1 C    0.939
   114   1 H    0.990 --    13 C    0.952
   115   1 H    0.986 --    16 C    0.955
   116   1 H    0.993 --    17 C    0.937
   117   1 H    0.990 --    23 C    0.953
   118   1 H    0.985 --    26 C    0.954
   119   1 H    0.988 --    37 C    0.937
   120   1 H    0.992 --    60 C    0.957
   121   1 H    0.997 --    69 C    0.958
   122   1 H    0.998 --    70 C    0.968
   123   1 H    0.997 --    72 C    0.968
   124   1 H    0.999 --    73 C    0.964
   125   1 H    0.999 --    74 C    0.969
   126   1 H    0.998 --    75 C    0.968
   127   1 H    0.998 --    77 C    0.968
   128   1 H    0.998 --    78 C    0.960
   129   1 H    0.998 --    79 C    0.973
   130   1 H    0.998 --    79 C    0.974
   131   1 H    0.997 --    80 C    0.986
   132   1 H    0.999 --    80 C    0.988
   133   1 H    0.998 --    80 C    0.988
   134   1 H    0.998 --    81 C    0.974
   135   1 H    0.998 --    81 C    0.974
   136   1 H    0.997 --    82 C    0.986
   137   1 H    0.999 --    82 C    0.987
   138   1 H    0.999 --    82 C    0.988
   139   1 H    0.999 --    85 C    0.963
   140   1 H    0.997 --    86 C    0.968
   141   1 H    0.997 --    88 C    0.968
   142   1 H    0.997 --    89 C    0.957
   143   1 H    0.999 --    90 C    0.969
   144   1 H    0.998 --    91 C    0.968
   145   1 H    0.998 --    93 C    0.968
   146   1 H    0.998 --    94 C    0.960
   147   1 H    0.998 --    95 C    0.974
   148   1 H    0.998 --    95 C    0.973
   149   1 H    0.997 --    96 C    0.985
   150   1 H    0.998 --    96 C    0.988
   151   1 H    0.998 --    96 C    0.988
   152   1 H    0.998 --    97 C    0.974
   153   1 H    0.998 --    97 C    0.973
   154   1 H    0.999 --    98 C    0.988
   155   1 H    0.998 --    98 C    0.988
   156   1 H    0.997 --    98 C    0.986
   157   1 H    0.998 --   102 C    0.964
   158   1 H    0.998 --   103 C    0.963
   159   1 H    0.999 --   105 C    0.965
   160   1 H    0.997 --   106 C    0.963
   161   1 H    0.997 --   109 C    0.970
   162   1 H    0.996 --   109 C    0.963
   163   1 H    0.997 --   110 C    0.985
   164   1 H    0.998 --   110 C    0.986
   165   1 H    0.998 --   110 C    0.988
   166   1 H    0.997 --   111 C    0.964
   167   1 H    0.997 --   111 C    0.970
   168   1 H    0.998 --   112 C    0.988
   169   1 H    0.998 --   112 C    0.986
   170   1 H    0.997 --   112 C    0.985
 ---------------------------------------------------------------------------

Topologies differ in bond orders
Writing corrected topology to xtbtopo.mol

molecular dipole:
                 x           y           z       tot (Debye)
 q only:       -1.091       0.371       0.758
   full:       -1.110      -0.395       0.157       3.020
molecular quadrupole (traceless):
                xx          xy          yy          xz          yz          zz
 q only:      209.497      17.660      47.112      -9.051     233.126    -256.609
  q+dip:      211.951      10.462      42.908      -6.962     223.249    -254.858
   full:      222.720      10.526      31.614      -8.528     223.890    -254.334


           -------------------------------------------------
          | TOTAL ENERGY             -295.533090941634 Eh   |
          | GRADIENT NORM               0.034863329443 Eh/α |
          | HOMO-LUMO GAP               0.689805674629 eV   |
           -------------------------------------------------

------------------------------------------------------------------------
 * finished run on 2021/12/28 at 11:43:20.014     
------------------------------------------------------------------------
 total:
 * wall-time:     0 d,  0 h,  0 min,  1.639 sec
 *  cpu-time:     0 d,  0 h,  0 min,  1.639 sec
 * ratio c/w:     1.000 speedup
 SCF:
 * wall-time:     0 d,  0 h,  0 min,  1.518 sec
 *  cpu-time:     0 d,  0 h,  0 min,  1.518 sec
 * ratio c/w:     1.000 speedup

