      -----------------------------------------------------------      
     |                   =====================                   |     
     |                           x T B                           |     
     |                   =====================                   |     
     |                         S. Grimme                         |     
     |          Mulliken Center for Theoretical Chemistry        |     
     |                    University of Bonn                     |     
      -----------------------------------------------------------      

   * xtb version 6.4.1 (unknown) compiled by 'oda6@login1.crc.pitt.edu' on 2021-06-25

   xtb is free software: you can redistribute it and/or modify it under
   the terms of the GNU Lesser General Public License as published by
   the Free Software Foundation, either version 3 of the License, or
   (at your option) any later version.
   
   xtb is distributed in the hope that it will be useful,
   but WITHOUT ANY WARRANTY; without even the implied warranty of
   MERCHANTABILITY or FITNESS FOR A PARTICULAR PURPOSE.  See the
   GNU Lesser General Public License for more details.
   
   Cite this work as:
   * C. Bannwarth, E. Caldeweyher, S. Ehlert, A. Hansen, P. Pracht,
     J. Seibert, S. Spicher, S. Grimme, WIREs Comput. Mol. Sci., 2020, 11,
     e01493. DOI: 10.1002/wcms.1493
   
   for GFN2-xTB:
   * C. Bannwarth, S. Ehlert and S. Grimme., J. Chem. Theory Comput., 2019,
     15, 1652-1671. DOI: 10.1021/acs.jctc.8b01176
   for GFN1-xTB:
   * S. Grimme, C. Bannwarth, P. Shushkov, J. Chem. Theory Comput., 2017,
     13, 1989-2009. DOI: 10.1021/acs.jctc.7b00118
   for GFN0-xTB:
   * P. Pracht, E. Caldeweyher, S. Ehlert, S. Grimme, ChemRxiv, 2019, preprint.
     DOI: 10.26434/chemrxiv.8326202.v1
   for GFN-FF:
   * S. Spicher and S. Grimme, Angew. Chem. Int. Ed., 2020, 59, 15665-15673.
     DOI: 10.1002/anie.202004239
   
   for DFT-D4:
   * E. Caldeweyher, C. Bannwarth and S. Grimme, J. Chem. Phys., 2017,
     147, 034112. DOI: 10.1063/1.4993215
   * E. Caldeweyher, S. Ehlert, A. Hansen, H. Neugebauer, S. Spicher,
     C. Bannwarth and S. Grimme, J. Chem. Phys., 2019, 150, 154122.
     DOI: 10.1063/1.5090222
   * E. Caldeweyher, J.-M. Mewes, S. Ehlert and S. Grimme, Phys. Chem. Chem. Phys.
     2020, 22, 8499-8512. DOI: 10.1039/D0CP00502A
   
   for sTDA-xTB:
   * S. Grimme and C. Bannwarth, J. Chem. Phys., 2016, 145, 054103.
     DOI: 10.1063/1.4959605
   
   in the mass-spec context:
   * V. Asgeirsson, C. Bauer and S. Grimme, Chem. Sci., 2017, 8, 4879.
     DOI: 10.1039/c7sc00601b
   * J. Koopman and S. Grimme, ACS Omega 2019, 4, 12, 15120-15133.
     DOI: 10.1021/acsomega.9b02011
   
   for metadynamics refer to:
   * S. Grimme, J. Chem. Theory Comput., 2019, 155, 2847-2862
     DOI: 10.1021/acs.jctc.9b00143
   
   for SPH calculations refer to:
   * S. Spicher and S. Grimme, J. Chem. Theory Comput., 2021, 17, 1701-1714
     DOI: 10.1021/acs.jctc.0c01306
   
   with help from (in alphabetical order)
   P. Atkinson, C. Bannwarth, F. Bohle, G. Brandenburg, E. Caldeweyher
   M. Checinski, S. Dohm, S. Ehlert, S. Ehrlich, I. Gerasimov, J. Koopman
   C. Lavigne, S. Lehtola, F. März, M. Müller, F. Musil, H. Neugebauer
   J. Pisarek, C. Plett, P. Pracht, J. Seibert, P. Shushkov, S. Spicher
   M. Stahn, M. Steiner, T. Strunk, J. Stückrath, T. Rose, and J. Unsleber
   
 * started run on 2021/12/28 at 11:43:26.417     

           -------------------------------------------------
          |                Calculation Setup                |
           -------------------------------------------------

          program call               : /ihome/ghutchison/oda6/xtb/xtb-641/bin//xtb GL1.mol --sp --alpb water
          hostname                   : smp-n39
          coordinate file            : GL1.mol
          omp threads                :                     1
          number of atoms            :                   115
          number of electrons        :                   378
          charge                     :                     0
          spin                       :                   0.0
          first test random number   :      0.89589654987268

   ID    Z sym.   atoms
    1    6 C      1-9, 11-16, 18, 19, 21, 23-28, 32-35, 37-45, 48-56, 58-65,
                  67, 68, 70, 72-75
    2   16 S      10, 31, 36, 46, 47, 57
    3    8 O      17, 66
    4    7 N      20, 22, 69, 71
    5    9 F      29, 30, 76, 77
    6    1 H      78-115

           -------------------------------------------------
          |                 G F N 2 - x T B                 |
           -------------------------------------------------

        Reference                      10.1021/acs.jctc.8b01176
      * Hamiltonian:
        H0-scaling (s, p, d)           1.850000    2.230000    2.230000
        zeta-weighting                 0.500000
      * Dispersion:
        s8                             2.700000
        a1                             0.520000
        a2                             5.000000
        s9                             5.000000
      * Repulsion:
        kExp                           1.500000    1.000000
        rExp                           1.000000
      * Coulomb:
        alpha                          2.000000
        third order                    shell-resolved
        anisotropic                    true
        a3                             3.000000
        a5                             4.000000
        cn-shift                       1.200000
        cn-exp                         4.000000
        max-rad                        5.000000

      * Solvation model:               ALPB
        Solvent                        water
        Parameter file                 internal GFN2-xTB/ALPB
        Dielectric constant                8.0200E+01
        Reference state                gsolv [1 M gas/solution]
        Free energy shift                  1.0808E-03 Eh       6.7819E-01 kcal/mol
        Temperature                        2.9815E+02 K
        Density                            1.0000E+00 kg/L
        Solvent mass                       1.8000E+01 g/mol
        Interaction kernel             P16
        Born radius scaling (c1)           1.4744E+00
        Born radii integrator          GBOBC
        Born offset                        0.0000E+00 a0       0.0000E+00 AA
        H-bond correction              true
        Ion screening                  false
        Surface tension                    1.0000E-05 Eh       1.5569E+01 dyn/cm
        Grid points                               230 per atom

          ...................................................
          :                      SETUP                      :
          :.................................................:
          :  # basis functions                 382          :
          :  # atomic orbitals                 376          :
          :  # shells                          198          :
          :  # electrons                       378          :
          :  max. iterations                   250          :
          :  Hamiltonian                  GFN2-xTB          :
          :  restarted?                      false          :
          :  GBSA solvation                   true          :
          :  PC potential                    false          :
          :  electronic temp.          300.0000000     K    :
          :  accuracy                    1.0000000          :
          :  -> integral cutoff          0.2500000E+02      :
          :  -> integral neglect         0.1000000E-07      :
          :  -> SCF convergence          0.1000000E-05 Eh   :
          :  -> wf. convergence          0.1000000E-03 e    :
          :  Broyden damping             0.4000000          :
          ...................................................

 iter      E             dE          RMSdq      gap      omega  full diag
   1   -211.0632938 -0.211063E+03  0.460E+00    0.61       0.0  T
   2   -211.1830918 -0.119798E+00  0.265E+00    0.94       1.0  T
   3   -211.0415767  0.141515E+00  0.151E+00    0.50       1.0  T
   4   -211.2338204 -0.192244E+00  0.470E-01    0.86       1.0  T
   5   -211.2484901 -0.146697E-01  0.147E-01    0.75       1.0  T
   6   -211.2490649 -0.574786E-03  0.661E-02    0.75       1.0  T
   7   -211.2491116 -0.466760E-04  0.237E-02    0.75       1.0  T
   8   -211.2491435 -0.318984E-04  0.102E-02    0.75       1.0  T
   9   -211.2491456 -0.215221E-05  0.529E-03    0.75       1.8  T
  10   -211.2491472 -0.155322E-05  0.223E-03    0.75       4.2  T
  11   -211.2491473 -0.144314E-06  0.125E-03    0.75       7.5  T
  12   -211.2491474 -0.268003E-07  0.752E-04    0.75      12.4  T
  13   -211.2491474 -0.164016E-07  0.351E-04    0.75      26.6  T

   *** convergence criteria satisfied after 13 iterations ***

         #    Occupation            Energy/Eh            Energy/eV
      -------------------------------------------------------------
         1        2.0000           -0.8579282             -23.3454
       ...           ...                  ...                  ...
       183        2.0000           -0.4135292             -11.2527
       184        2.0000           -0.4116322             -11.2011
       185        2.0000           -0.4059796             -11.0473
       186        2.0000           -0.3952618             -10.7556
       187        2.0000           -0.3930665             -10.6959
       188        2.0000           -0.3856651             -10.4945
       189        2.0000           -0.3671083              -9.9895 (HOMO)
       190        0.0000           -0.3395985              -9.2409 (LUMO)
       191                         -0.3366860              -9.1617
       192                         -0.3297462              -8.9729
       193                         -0.3245246              -8.8308
       194                         -0.2979617              -8.1080
       ...                                ...                  ...
       376                          1.1494340              31.2777
      -------------------------------------------------------------
                  HL-Gap            0.0275097 Eh            0.7486 eV
             Fermi-level           -0.3533750 Eh           -9.6158 eV

 SCC (total)                   0 d,  0 h,  0 min,  0.624 sec
 SCC setup                      ...        0 min,  0.006 sec (  0.887%)
 Dispersion                     ...        0 min,  0.005 sec (  0.821%)
 classical contributions        ...        0 min,  0.000 sec (  0.078%)
 integral evaluation            ...        0 min,  0.059 sec (  9.375%)
 iterations                     ...        0 min,  0.349 sec ( 55.947%)
 molecular gradient             ...        0 min,  0.203 sec ( 32.463%)
 printout                       ...        0 min,  0.003 sec (  0.419%)

         :::::::::::::::::::::::::::::::::::::::::::::::::::::
         ::                     SUMMARY                     ::
         :::::::::::::::::::::::::::::::::::::::::::::::::::::
         :: total energy            -208.163780239770 Eh    ::
         :: total w/o Gsasa/hb      -208.150580545108 Eh    ::
         :: gradient norm              0.044413011592 Eh/a0 ::
         :: HOMO-LUMO gap              0.748578200476 eV    ::
         ::.................................................::
         :: SCC energy              -211.249147372257 Eh    ::
         :: -> isotropic ES            0.175562751518 Eh    ::
         :: -> anisotropic ES          0.010010275344 Eh    ::
         :: -> anisotropic XC          0.102754177864 Eh    ::
         :: -> dispersion             -0.184968300568 Eh    ::
         :: -> Gsolv                  -0.049235493919 Eh    ::
         ::    -> Gelec               -0.036035799257 Eh    ::
         ::    -> Gsasa               -0.007864255426 Eh    ::
         ::    -> Ghb                 -0.006416198934 Eh    ::
         ::    -> Gshift               0.001080759698 Eh    ::
         :: repulsion energy           3.085572421731 Eh    ::
         :: add. restraining           0.000000000000 Eh    ::
         :: total charge              -0.000000000008 e     ::
         :::::::::::::::::::::::::::::::::::::::::::::::::::::

           -------------------------------------------------
          |                Property Printout                |
           -------------------------------------------------

    * Orbital Energies and Occupations

         #    Occupation            Energy/Eh            Energy/eV
      -------------------------------------------------------------
         1        2.0000           -0.8579282             -23.3454
       ...           ...                  ...                  ...
       177        2.0000           -0.4289885             -11.6734
       178        2.0000           -0.4278187             -11.6415
       179        2.0000           -0.4259829             -11.5916
       180        2.0000           -0.4230510             -11.5118
       181        2.0000           -0.4150616             -11.2944
       182        2.0000           -0.4145533             -11.2806
       183        2.0000           -0.4135292             -11.2527
       184        2.0000           -0.4116322             -11.2011
       185        2.0000           -0.4059796             -11.0473
       186        2.0000           -0.3952618             -10.7556
       187        2.0000           -0.3930665             -10.6959
       188        2.0000           -0.3856651             -10.4945
       189        2.0000           -0.3671083              -9.9895 (HOMO)
       190        0.0000           -0.3395985              -9.2409 (LUMO)
       191                         -0.3366860              -9.1617
       192                         -0.3297462              -8.9729
       193                         -0.3245246              -8.8308
       194                         -0.2979617              -8.1080
       195                         -0.2840005              -7.7280
       196                         -0.2741376              -7.4597
       197                         -0.2632630              -7.1638
       198                         -0.2548237              -6.9341
       199                         -0.2547940              -6.9333
       200                         -0.2506116              -6.8195
       ...                                ...                  ...
       376                          1.1494340              31.2777
      -------------------------------------------------------------
                  HL-Gap            0.0275097 Eh            0.7486 eV
             Fermi-level           -0.3533750 Eh           -9.6158 eV

     #   Z          covCN         q      C6AA      α(0)
     1   6 C        3.216    -0.006    27.471     8.526
     2   6 C        3.082     0.012    27.656     8.621
     3   6 C        3.937     0.023    20.117     6.374
     4   6 C        3.234    -0.003    27.228     8.468
     5   6 C        3.074     0.035    27.140     8.542
     6   6 C        3.807    -0.054    21.547     6.608
     7   6 C        3.805    -0.060    21.649     6.624
     8   6 C        3.046    -0.037    28.869     8.812
     9   6 C        2.991     0.027    27.396     8.586
    10  16 S        2.273    -0.001   141.080    19.991
    11   6 C        2.959    -0.013    28.328     8.730
    12   6 C        3.001    -0.043    29.043     8.840
    13   6 C        3.021     0.037    27.140     8.545
    14   6 C        3.032     0.011    27.736     8.638
    15   6 C        3.049    -0.016    28.368     8.735
    16   6 C        2.867     0.233    23.122     7.882
    17   8 O        0.856    -0.415    21.991     6.287
    18   6 C        2.947     0.004    27.925     8.667
    19   6 C        1.952     0.133    27.824     8.518
    20   7 N        0.911    -0.281    27.262     7.551
    21   6 C        1.949     0.133    27.819     8.518
    22   7 N        0.911    -0.280    27.227     7.547
    23   6 C        2.914    -0.047    29.157     8.854
    24   6 C        2.782     0.168    24.362     8.085
    25   6 C        2.783     0.167    24.385     8.088
    26   6 C        2.913    -0.040    28.992     8.829
    27   6 C        3.751    -0.116    22.791     6.808
    28   6 C        3.751    -0.109    22.654     6.788
    29   9 F        0.787    -0.220    11.440     3.995
    30   9 F        0.787    -0.219    11.431     3.994
    31  16 S        2.187    -0.005   141.272    20.005
    32   6 C        3.148     0.020    27.286     8.545
    33   6 C        3.154     0.013    27.425     8.564
    34   6 C        3.201    -0.013    27.750     8.584
    35   6 C        3.092     0.018    27.489     8.594
    36  16 S        2.180    -0.005   141.266    20.004
    37   6 C        3.938     0.025    20.088     6.369
    38   6 C        3.223    -0.015    27.616     8.542
    39   6 C        3.083     0.016    27.551     8.605
    40   6 C        3.808    -0.055    21.556     6.609
    41   6 C        3.805    -0.059    21.633     6.621
    42   6 C        3.751    -0.109    22.655     6.788
    43   6 C        3.751    -0.118    22.815     6.812
    44   6 C        3.154     0.019    27.291     8.543
    45   6 C        3.147     0.015    27.414     8.565
    46  16 S        2.189    -0.001   141.090    19.992
    47  16 S        2.180    -0.012   141.566    20.025
    48   6 C        3.091     0.015    27.563     8.605
    49   6 C        3.195    -0.003    27.564     8.560
    50   6 C        3.075     0.022    27.438     8.588
    51   6 C        3.226    -0.005    27.362     8.499
    52   6 C        3.935     0.023    20.119     6.374
    53   6 C        3.808    -0.056    21.578     6.613
    54   6 C        3.804    -0.060    21.654     6.625
    55   6 C        3.751    -0.110    22.673     6.790
    56   6 C        3.751    -0.118    22.819     6.812
    57  16 S        2.305     0.030   139.847    19.903
    58   6 C        2.990     0.026    27.403     8.587
    59   6 C        3.059    -0.040    28.934     8.821
    60   6 C        2.918    -0.015    28.386     8.737
    61   6 C        3.008    -0.043    29.054     8.842
    62   6 C        3.020     0.037    27.147     8.547
    63   6 C        3.037     0.011    27.735     8.638
    64   6 C        3.048    -0.016    28.363     8.735
    65   6 C        2.873     0.232    23.155     7.888
    66   8 O        0.955    -0.401    21.661     6.242
    67   6 C        2.947     0.006    27.898     8.663
    68   6 C        1.946     0.133    27.832     8.520
    69   7 N        0.911    -0.280    27.231     7.547
    70   6 C        1.944     0.134    27.809     8.516
    71   7 N        0.911    -0.277    27.162     7.538
    72   6 C        2.914    -0.046    29.145     8.853
    73   6 C        2.782     0.169    24.357     8.084
    74   6 C        2.783     0.167    24.381     8.088
    75   6 C        2.912    -0.040    28.989     8.829
    76   9 F        0.787    -0.219    11.429     3.993
    77   9 F        0.787    -0.218    11.424     3.993
    78   1 H        0.924     0.042     2.426     2.436
    79   1 H        0.924     0.055     2.255     2.348
    80   1 H        0.925     0.058     2.221     2.330
    81   1 H        0.924     0.056     2.241     2.341
    82   1 H        0.926     0.100     1.782     2.088
    83   1 H        0.925     0.068     2.104     2.268
    84   1 H        0.926     0.095     1.831     2.116
    85   1 H        0.926     0.115     1.652     2.010
    86   1 H        0.925     0.044     2.395     2.420
    87   1 H        0.925     0.050     2.318     2.381
    88   1 H        0.925     0.050     2.321     2.382
    89   1 H        0.925     0.033     2.540     2.492
    90   1 H        0.925     0.050     2.323     2.384
    91   1 H        0.925     0.037     2.483     2.464
    92   1 H        0.924     0.043     2.408     2.427
    93   1 H        0.924     0.053     2.284     2.364
    94   1 H        0.924     0.058     2.224     2.332
    95   1 H        0.924     0.054     2.265     2.353
    96   1 H        0.925     0.036     2.496     2.471
    97   1 H        0.925     0.049     2.328     2.386
    98   1 H        0.925     0.037     2.493     2.469
    99   1 H        0.925     0.048     2.347     2.396
   100   1 H        0.925     0.051     2.306     2.375
   101   1 H        0.925     0.050     2.315     2.380
   102   1 H        0.924     0.054     2.273     2.358
   103   1 H        0.924     0.041     2.435     2.440
   104   1 H        0.924     0.056     2.252     2.347
   105   1 H        0.924     0.060     2.200     2.320
   106   1 H        0.925     0.035     2.514     2.480
   107   1 H        0.925     0.051     2.313     2.379
   108   1 H        0.925     0.036     2.509     2.477
   109   1 H        0.925     0.052     2.296     2.370
   110   1 H        0.925     0.051     2.302     2.373
   111   1 H        0.925     0.048     2.346     2.395
   112   1 H        0.926     0.076     2.019     2.222
   113   1 H        0.925     0.076     2.022     2.224
   114   1 H        0.926     0.096     1.817     2.108
   115   1 H        0.926     0.114     1.660     2.015

 Mol. C6AA /au·bohr⁶  :     231600.959449
 Mol. C8AA /au·bohr⁸  :    6536928.714035
 Mol. α(0) /au        :        760.768651


Wiberg/Mayer (AO) data.
largest (>0.10) Wiberg bond orders for each atom

 ---------------------------------------------------------------------------
     #   Z sym  total        # sym  WBO       # sym  WBO       # sym  WBO
 ---------------------------------------------------------------------------
     1   6 C    3.938 --     2 C    1.348    33 C    1.344     3 C    0.987
     2   6 C    3.916 --     1 C    1.348     5 C    1.239    31 S    1.116
     3   6 C    3.986 --     4 C    0.988     1 C    0.987     7 C    0.959
                             6 C    0.943
     4   6 C    3.950 --     8 C    1.456     5 C    1.280     3 C    0.988
     5   6 C    3.923 --     4 C    1.280     2 C    1.239    10 S    1.206
     6   6 C    3.989 --    27 C    1.019    78 H    0.977    79 H    0.972
                             3 C    0.943
     7   6 C    3.990 --    28 C    1.020    81 H    0.972    80 H    0.971
                             3 C    0.959
     8   6 C    3.953 --     4 C    1.456     9 C    1.332    82 H    0.935
     9   6 C    3.915 --    11 C    1.345     8 C    1.332    10 S    1.064
    10  16 S    2.592 --     5 C    1.206     9 C    1.064
    11   6 C    3.933 --    12 C    1.437     9 C    1.345    83 H    0.940
    12   6 C    3.948 --    11 C    1.437    13 C    1.165    16 C    1.071
    13   6 C    3.959 --    18 C    1.461    12 C    1.165    14 C    1.076
    14   6 C    3.982 --    23 C    1.403    15 C    1.306    13 C    1.076
    15   6 C    3.976 --    26 C    1.420    14 C    1.306    16 C    1.012
    16   6 C    3.912 --    17 O    1.713    12 C    1.071    15 C    1.012
    17   8 O    2.012 --    16 C    1.713
    18   6 C    3.938 --    13 C    1.461    21 C    1.102    19 C    1.100
    19   6 C    3.939 --    20 N    2.747    18 C    1.100
    20   7 N    2.953 --    19 C    2.747
    21   6 C    3.941 --    22 N    2.735    18 C    1.102
    22   7 N    2.949 --    21 C    2.735
    23   6 C    3.966 --    14 C    1.403    24 C    1.388    84 H    0.953
    24   6 C    3.873 --    23 C    1.388    25 C    1.342    29 F    0.966
    25   6 C    3.867 --    26 C    1.383    24 C    1.342    30 F    0.965
    26   6 C    3.968 --    15 C    1.420    25 C    1.383    85 H    0.955
    27   6 C    3.991 --     6 C    1.019    88 H    0.984    86 H    0.983
                            87 H    0.983
    28   6 C    3.995 --     7 C    1.020    89 H    0.987    91 H    0.986
                            90 H    0.985
    29   9 F    1.097 --    24 C    0.966
    30   9 F    1.095 --    25 C    0.965
    31  16 S    2.559 --     2 C    1.116    32 C    1.113
    32   6 C    3.920 --    34 C    1.332    33 C    1.275    31 S    1.113
    33   6 C    3.922 --     1 C    1.344    32 C    1.275    36 S    1.103
    34   6 C    3.944 --    35 C    1.366    32 C    1.332    37 C    0.989
    35   6 C    3.907 --    34 C    1.366    39 C    1.212    36 S    1.133
    36  16 S    2.555 --    35 C    1.133    33 C    1.103
    37   6 C    3.986 --    34 C    0.989    38 C    0.986    41 C    0.957
                            40 C    0.944
    38   6 C    3.944 --    39 C    1.369    44 C    1.331    37 C    0.986
    39   6 C    3.908 --    38 C    1.369    35 C    1.212    46 S    1.130
    40   6 C    3.990 --    43 C    1.019    92 H    0.977    93 H    0.971
                            37 C    0.944
    41   6 C    3.990 --    42 C    1.020    95 H    0.972    94 H    0.970
                            37 C    0.957
    42   6 C    3.995 --    41 C    1.020    96 H    0.987    98 H    0.986
                            97 H    0.985
    43   6 C    3.991 --    40 C    1.019   101 H    0.984   100 H    0.982
                            99 H    0.979
    44   6 C    3.920 --    38 C    1.331    45 C    1.275    47 S    1.116
    45   6 C    3.922 --    49 C    1.343    44 C    1.275    46 S    1.101
    46  16 S    2.559 --    39 C    1.130    45 C    1.101
    47  16 S    2.558 --    48 C    1.116    44 C    1.116
    48   6 C    3.916 --    49 C    1.348    50 C    1.240    47 S    1.116
    49   6 C    3.936 --    48 C    1.348    45 C    1.343    52 C    0.989
    50   6 C    3.932 --    51 C    1.268    48 C    1.240    57 S    1.214
    51   6 C    3.948 --    59 C    1.482    50 C    1.268    52 C    0.984
    52   6 C    3.985 --    49 C    0.989    51 C    0.984    54 C    0.960
                            53 C    0.944
    53   6 C    3.989 --    56 C    1.020   103 H    0.977   102 H    0.972
                            52 C    0.944
    54   6 C    3.990 --    55 C    1.020   104 H    0.973   105 H    0.970
                            52 C    0.960
    55   6 C    3.995 --    54 C    1.020   108 H    0.987   106 H    0.986
                           107 H    0.985
    56   6 C    3.991 --    53 C    1.020   109 H    0.984   110 H    0.982
                           111 H    0.980
    57  16 S    2.737 --    50 C    1.214    58 C    1.086    66 O    0.117
    58   6 C    3.927 --    60 C    1.366    59 C    1.299    57 S    1.086
    59   6 C    3.959 --    51 C    1.482    58 C    1.299   112 H    0.958
    60   6 C    3.933 --    61 C    1.420    58 C    1.366   113 H    0.937
    61   6 C    3.950 --    60 C    1.420    62 C    1.169    65 C    1.091
    62   6 C    3.958 --    67 C    1.458    61 C    1.169    63 C    1.074
    63   6 C    3.982 --    72 C    1.407    64 C    1.303    62 C    1.074
    64   6 C    3.975 --    75 C    1.423    63 C    1.303    65 C    1.014
    65   6 C    3.910 --    66 O    1.679    61 C    1.091    64 C    1.014
    66   8 O    2.070 --    65 C    1.679    57 S    0.117
    67   6 C    3.937 --    62 C    1.458    70 C    1.104    68 C    1.102
    68   6 C    3.939 --    69 N    2.748    67 C    1.102
    69   7 N    2.953 --    68 C    2.748
    70   6 C    3.941 --    71 N    2.738    67 C    1.104
    71   7 N    2.949 --    70 C    2.738
    72   6 C    3.965 --    63 C    1.407    73 C    1.385   114 H    0.953
    73   6 C    3.873 --    72 C    1.385    74 C    1.344    76 F    0.966
    74   6 C    3.867 --    75 C    1.380    73 C    1.344    77 F    0.966
    75   6 C    3.967 --    64 C    1.423    74 C    1.380   115 H    0.955
    76   9 F    1.098 --    73 C    0.966
    77   9 F    1.096 --    74 C    0.966
    78   1 H    0.998 --     6 C    0.977
    79   1 H    0.996 --     6 C    0.972
    80   1 H    0.995 --     7 C    0.971
    81   1 H    0.996 --     7 C    0.972
    82   1 H    0.989 --     8 C    0.935
    83   1 H    0.994 --    11 C    0.940
    84   1 H    0.990 --    23 C    0.953
    85   1 H    0.986 --    26 C    0.955
    86   1 H    0.998 --    27 C    0.983
    87   1 H    0.996 --    27 C    0.983
    88   1 H    0.997 --    27 C    0.984
    89   1 H    0.999 --    28 C    0.987
    90   1 H    0.997 --    28 C    0.985
    91   1 H    0.999 --    28 C    0.986
    92   1 H    0.998 --    40 C    0.977
    93   1 H    0.996 --    40 C    0.971
    94   1 H    0.996 --    41 C    0.970
    95   1 H    0.996 --    41 C    0.972
    96   1 H    0.999 --    42 C    0.987
    97   1 H    0.997 --    42 C    0.985
    98   1 H    0.999 --    42 C    0.986
    99   1 H    0.998 --    43 C    0.979
   100   1 H    0.996 --    43 C    0.982
   101   1 H    0.997 --    43 C    0.984
   102   1 H    0.996 --    53 C    0.972
   103   1 H    0.998 --    53 C    0.977
   104   1 H    0.996 --    54 C    0.973
   105   1 H    0.995 --    54 C    0.970
   106   1 H    0.999 --    55 C    0.986
   107   1 H    0.997 --    55 C    0.985
   108   1 H    0.999 --    55 C    0.987
   109   1 H    0.997 --    56 C    0.984
   110   1 H    0.996 --    56 C    0.982
   111   1 H    0.998 --    56 C    0.980
   112   1 H    0.993 --    59 C    0.958
   113   1 H    0.993 --    60 C    0.937
   114   1 H    0.990 --    72 C    0.953
   115   1 H    0.986 --    75 C    0.955
 ---------------------------------------------------------------------------

Topologies differ in bond orders
Writing corrected topology to xtbtopo.mol

molecular dipole:
                 x           y           z       tot (Debye)
 q only:       -1.310      -1.502      -2.879
   full:       -1.309      -1.380      -2.693       8.380
molecular quadrupole (traceless):
                xx          xy          yy          xz          yz          zz
 q only:      196.417      92.015    -349.234     -89.775     144.519     152.817
  q+dip:      190.930      71.495    -344.009     -82.417     115.156     153.079
   full:      199.078      71.812    -353.310     -93.419     114.885     154.232


           -------------------------------------------------
          | TOTAL ENERGY             -208.163780239770 Eh   |
          | GRADIENT NORM               0.044413011592 Eh/α |
          | HOMO-LUMO GAP               0.748578200476 eV   |
           -------------------------------------------------

------------------------------------------------------------------------
 * finished run on 2021/12/28 at 11:43:27.111     
------------------------------------------------------------------------
 total:
 * wall-time:     0 d,  0 h,  0 min,  0.694 sec
 *  cpu-time:     0 d,  0 h,  0 min,  0.693 sec
 * ratio c/w:     0.999 speedup
 SCF:
 * wall-time:     0 d,  0 h,  0 min,  0.626 sec
 *  cpu-time:     0 d,  0 h,  0 min,  0.626 sec
 * ratio c/w:     1.000 speedup

