      -----------------------------------------------------------      
     |                   =====================                   |     
     |                           x T B                           |     
     |                   =====================                   |     
     |                         S. Grimme                         |     
     |          Mulliken Center for Theoretical Chemistry        |     
     |                    University of Bonn                     |     
      -----------------------------------------------------------      

   * xtb version 6.4.1 (unknown) compiled by 'oda6@login1.crc.pitt.edu' on 2021-06-25

   xtb is free software: you can redistribute it and/or modify it under
   the terms of the GNU Lesser General Public License as published by
   the Free Software Foundation, either version 3 of the License, or
   (at your option) any later version.
   
   xtb is distributed in the hope that it will be useful,
   but WITHOUT ANY WARRANTY; without even the implied warranty of
   MERCHANTABILITY or FITNESS FOR A PARTICULAR PURPOSE.  See the
   GNU Lesser General Public License for more details.
   
   Cite this work as:
   * C. Bannwarth, E. Caldeweyher, S. Ehlert, A. Hansen, P. Pracht,
     J. Seibert, S. Spicher, S. Grimme, WIREs Comput. Mol. Sci., 2020, 11,
     e01493. DOI: 10.1002/wcms.1493
   
   for GFN2-xTB:
   * C. Bannwarth, S. Ehlert and S. Grimme., J. Chem. Theory Comput., 2019,
     15, 1652-1671. DOI: 10.1021/acs.jctc.8b01176
   for GFN1-xTB:
   * S. Grimme, C. Bannwarth, P. Shushkov, J. Chem. Theory Comput., 2017,
     13, 1989-2009. DOI: 10.1021/acs.jctc.7b00118
   for GFN0-xTB:
   * P. Pracht, E. Caldeweyher, S. Ehlert, S. Grimme, ChemRxiv, 2019, preprint.
     DOI: 10.26434/chemrxiv.8326202.v1
   for GFN-FF:
   * S. Spicher and S. Grimme, Angew. Chem. Int. Ed., 2020, 59, 15665-15673.
     DOI: 10.1002/anie.202004239
   
   for DFT-D4:
   * E. Caldeweyher, C. Bannwarth and S. Grimme, J. Chem. Phys., 2017,
     147, 034112. DOI: 10.1063/1.4993215
   * E. Caldeweyher, S. Ehlert, A. Hansen, H. Neugebauer, S. Spicher,
     C. Bannwarth and S. Grimme, J. Chem. Phys., 2019, 150, 154122.
     DOI: 10.1063/1.5090222
   * E. Caldeweyher, J.-M. Mewes, S. Ehlert and S. Grimme, Phys. Chem. Chem. Phys.
     2020, 22, 8499-8512. DOI: 10.1039/D0CP00502A
   
   for sTDA-xTB:
   * S. Grimme and C. Bannwarth, J. Chem. Phys., 2016, 145, 054103.
     DOI: 10.1063/1.4959605
   
   in the mass-spec context:
   * V. Asgeirsson, C. Bauer and S. Grimme, Chem. Sci., 2017, 8, 4879.
     DOI: 10.1039/c7sc00601b
   * J. Koopman and S. Grimme, ACS Omega 2019, 4, 12, 15120-15133.
     DOI: 10.1021/acsomega.9b02011
   
   for metadynamics refer to:
   * S. Grimme, J. Chem. Theory Comput., 2019, 155, 2847-2862
     DOI: 10.1021/acs.jctc.9b00143
   
   for SPH calculations refer to:
   * S. Spicher and S. Grimme, J. Chem. Theory Comput., 2021, 17, 1701-1714
     DOI: 10.1021/acs.jctc.0c01306
   
   with help from (in alphabetical order)
   P. Atkinson, C. Bannwarth, F. Bohle, G. Brandenburg, E. Caldeweyher
   M. Checinski, S. Dohm, S. Ehlert, S. Ehrlich, I. Gerasimov, J. Koopman
   C. Lavigne, S. Lehtola, F. März, M. Müller, F. Musil, H. Neugebauer
   J. Pisarek, C. Plett, P. Pracht, J. Seibert, P. Shushkov, S. Spicher
   M. Stahn, M. Steiner, T. Strunk, J. Stückrath, T. Rose, and J. Unsleber
   
 * started run on 2021/12/28 at 11:45:28.381     

           -------------------------------------------------
          |                Calculation Setup                |
           -------------------------------------------------

          program call               : /ihome/ghutchison/oda6/xtb/xtb-641/bin//xtb IT-BT-ICN.mol --sp --alpb water
          hostname                   : smp-n39
          coordinate file            : IT-BT-ICN.mol
          omp threads                :                     1
          number of atoms            :                   160
          number of electrons        :                   502
          charge                     :                     0
          spin                       :                   0.0
          first test random number   :      0.83837040665628

   ID    Z sym.   atoms
    1    6 C      1-4, 6-26, 28-50, 52, 53, 55-62, 66-71, 75-81, 83, 84,
                  87-95, 97-104
    2   16 S      5, 27, 51, 54, 64, 73
    3    7 N      63, 65, 72, 74, 85, 86, 105, 106
    4    8 O      82, 96
    5    1 H      107-160

           -------------------------------------------------
          |                 G F N 2 - x T B                 |
           -------------------------------------------------

        Reference                      10.1021/acs.jctc.8b01176
      * Hamiltonian:
        H0-scaling (s, p, d)           1.850000    2.230000    2.230000
        zeta-weighting                 0.500000
      * Dispersion:
        s8                             2.700000
        a1                             0.520000
        a2                             5.000000
        s9                             5.000000
      * Repulsion:
        kExp                           1.500000    1.000000
        rExp                           1.000000
      * Coulomb:
        alpha                          2.000000
        third order                    shell-resolved
        anisotropic                    true
        a3                             3.000000
        a5                             4.000000
        cn-shift                       1.200000
        cn-exp                         4.000000
        max-rad                        5.000000

      * Solvation model:               ALPB
        Solvent                        water
        Parameter file                 internal GFN2-xTB/ALPB
        Dielectric constant                8.0200E+01
        Reference state                gsolv [1 M gas/solution]
        Free energy shift                  1.0808E-03 Eh       6.7819E-01 kcal/mol
        Temperature                        2.9815E+02 K
        Density                            1.0000E+00 kg/L
        Solvent mass                       1.8000E+01 g/mol
        Interaction kernel             P16
        Born radius scaling (c1)           1.4744E+00
        Born radii integrator          GBOBC
        Born offset                        0.0000E+00 a0       0.0000E+00 AA
        H-bond correction              true
        Ion screening                  false
        Surface tension                    1.0000E-05 Eh       1.5569E+01 dyn/cm
        Grid points                               230 per atom

          ...................................................
          :                      SETUP                      :
          :.................................................:
          :  # basis functions                 514          :
          :  # atomic orbitals                 508          :
          :  # shells                          272          :
          :  # electrons                       502          :
          :  max. iterations                   250          :
          :  Hamiltonian                  GFN2-xTB          :
          :  restarted?                      false          :
          :  GBSA solvation                   true          :
          :  PC potential                    false          :
          :  electronic temp.          300.0000000     K    :
          :  accuracy                    1.0000000          :
          :  -> integral cutoff          0.2500000E+02      :
          :  -> integral neglect         0.1000000E-07      :
          :  -> SCF convergence          0.1000000E-05 Eh   :
          :  -> wf. convergence          0.1000000E-03 e    :
          :  Broyden damping             0.4000000          :
          ...................................................

 iter      E             dE          RMSdq      gap      omega  full diag
   1   -275.5922175 -0.275592E+03  0.454E+00    0.72       0.0  T
   2   -275.7578403 -0.165623E+00  0.269E+00    0.87       1.0  T
   3   -275.6122602  0.145580E+00  0.148E+00    0.63       1.0  T
   4   -275.8296128 -0.217353E+00  0.414E-01    0.77       1.0  T
   5   -275.8455629 -0.159502E-01  0.136E-01    0.75       1.0  T
   6   -275.8464400 -0.877010E-03  0.564E-02    0.75       1.0  T
   7   -275.8465209 -0.809238E-04  0.265E-02    0.75       1.0  T
   8   -275.8465684 -0.475572E-04  0.109E-02    0.75       1.0  T
   9   -275.8465752 -0.672363E-05  0.507E-03    0.75       1.6  T
  10   -275.8465764 -0.121515E-05  0.265E-03    0.75       3.0  T
  11   -275.8465766 -0.229846E-06  0.144E-03    0.75       5.5  T
  12   -275.8465767 -0.733699E-07  0.810E-04    0.75       9.8  T
  13   -275.8465767 -0.224789E-07  0.369E-04    0.75      21.4  T

   *** convergence criteria satisfied after 13 iterations ***

         #    Occupation            Energy/Eh            Energy/eV
      -------------------------------------------------------------
         1        2.0000           -0.7793656             -21.2076
       ...           ...                  ...                  ...
       245        2.0000           -0.3930014             -10.6941
       246        2.0000           -0.3896625             -10.6033
       247        2.0000           -0.3892941             -10.5932
       248        2.0000           -0.3869744             -10.5301
       249        2.0000           -0.3866143             -10.5203
       250        2.0000           -0.3818022             -10.3894
       251        2.0000           -0.3665750              -9.9750 (HOMO)
       252        0.0000           -0.3388408              -9.2203 (LUMO)
       253                         -0.3364767              -9.1560
       254                         -0.3248625              -8.8400
       255                         -0.3241701              -8.8211
       256                         -0.3087540              -8.4016
       ...                                ...                  ...
       508                          1.1497551              31.2864
      -------------------------------------------------------------
                  HL-Gap            0.0277342 Eh            0.7547 eV
             Fermi-level           -0.3527458 Eh           -9.5987 eV

 SCC (total)                   0 d,  0 h,  0 min,  1.185 sec
 SCC setup                      ...        0 min,  0.009 sec (  0.765%)
 Dispersion                     ...        0 min,  0.009 sec (  0.733%)
 classical contributions        ...        0 min,  0.001 sec (  0.077%)
 integral evaluation            ...        0 min,  0.094 sec (  7.923%)
 iterations                     ...        0 min,  0.691 sec ( 58.314%)
 molecular gradient             ...        0 min,  0.376 sec ( 31.714%)
 printout                       ...        0 min,  0.006 sec (  0.470%)

         :::::::::::::::::::::::::::::::::::::::::::::::::::::
         ::                     SUMMARY                     ::
         :::::::::::::::::::::::::::::::::::::::::::::::::::::
         :: total energy            -271.195209508254 Eh    ::
         :: total w/o Gsasa/hb      -271.172819912281 Eh    ::
         :: gradient norm              0.034345886830 Eh/a0 ::
         :: HOMO-LUMO gap              0.754686268704 eV    ::
         ::.................................................::
         :: SCC energy              -275.846576698691 Eh    ::
         :: -> isotropic ES            0.170619927785 Eh    ::
         :: -> anisotropic ES          0.007481986259 Eh    ::
         :: -> anisotropic XC          0.187544906964 Eh    ::
         :: -> dispersion             -0.262985587672 Eh    ::
         :: -> Gsolv                  -0.054541450286 Eh    ::
         ::    -> Gelec               -0.032151854313 Eh    ::
         ::    -> Gsasa               -0.017242235029 Eh    ::
         ::    -> Ghb                 -0.006228120642 Eh    ::
         ::    -> Gshift               0.001080759698 Eh    ::
         :: repulsion energy           4.648625517051 Eh    ::
         :: add. restraining           0.000000000000 Eh    ::
         :: total charge              -0.000000000040 e     ::
         :::::::::::::::::::::::::::::::::::::::::::::::::::::

           -------------------------------------------------
          |                Property Printout                |
           -------------------------------------------------

    * Orbital Energies and Occupations

         #    Occupation            Energy/Eh            Energy/eV
      -------------------------------------------------------------
         1        2.0000           -0.7793656             -21.2076
       ...           ...                  ...                  ...
       239        2.0000           -0.4044745             -11.0063
       240        2.0000           -0.4041986             -10.9988
       241        2.0000           -0.4026328             -10.9562
       242        2.0000           -0.4023619             -10.9488
       243        2.0000           -0.4019099             -10.9365
       244        2.0000           -0.3946246             -10.7383
       245        2.0000           -0.3930014             -10.6941
       246        2.0000           -0.3896625             -10.6033
       247        2.0000           -0.3892941             -10.5932
       248        2.0000           -0.3869744             -10.5301
       249        2.0000           -0.3866143             -10.5203
       250        2.0000           -0.3818022             -10.3894
       251        2.0000           -0.3665750              -9.9750 (HOMO)
       252        0.0000           -0.3388408              -9.2203 (LUMO)
       253                         -0.3364767              -9.1560
       254                         -0.3248625              -8.8400
       255                         -0.3241701              -8.8211
       256                         -0.3087540              -8.4016
       257                         -0.3075912              -8.3700
       258                         -0.2940987              -8.0028
       259                         -0.2776011              -7.5539
       260                         -0.2568552              -6.9894
       261                         -0.2542265              -6.9179
       262                         -0.2534746              -6.8974
       ...                                ...                  ...
       508                          1.1497551              31.2864
      -------------------------------------------------------------
                  HL-Gap            0.0277342 Eh            0.7547 eV
             Fermi-level           -0.3527458 Eh           -9.5987 eV

     #   Z          covCN         q      C6AA      α(0)
     1   6 C        3.005     0.022    27.498     8.602
     2   6 C        3.057    -0.052    29.232     8.867
     3   6 C        3.192     0.017    27.133     8.495
     4   6 C        3.146     0.020    27.311     8.550
     5  16 S        2.268    -0.025   142.068    20.061
     6   6 C        3.205    -0.011    27.678     8.569
     7   6 C        3.951     0.016    20.231     6.391
     8   6 C        2.978     0.009    27.818     8.652
     9   6 C        2.923    -0.037    28.931     8.821
    10   6 C        2.925    -0.042    29.034     8.836
    11   6 C        2.971     0.013    27.723     8.637
    12   6 C        3.806    -0.064    21.723     6.635
    13   6 C        3.754    -0.106    22.593     6.778
    14   6 C        2.925    -0.041    29.022     8.835
    15   6 C        2.922    -0.038    28.948     8.823
    16   6 C        2.984     0.010    27.777     8.645
    17   6 C        2.923    -0.037    28.925     8.820
    18   6 C        2.925    -0.041    29.022     8.835
    19   6 C        2.971     0.013    27.726     8.637
    20   6 C        3.806    -0.064    21.729     6.636
    21   6 C        3.754    -0.107    22.594     6.778
    22   6 C        2.926    -0.042    29.049     8.839
    23   6 C        2.921    -0.040    28.999     8.831
    24   6 C        3.081     0.006    27.796     8.643
    25   6 C        3.045     0.004    27.884     8.661
    26   6 C        3.087     0.019    27.481     8.593
    27  16 S        2.198    -0.032   142.386    20.083
    28   6 C        2.908    -0.036    28.898     8.815
    29   6 C        3.082     0.006    27.800     8.644
    30   6 C        3.951     0.017    20.230     6.391
    31   6 C        2.984     0.010    27.779     8.646
    32   6 C        2.923    -0.037    28.926     8.820
    33   6 C        2.925    -0.041    29.020     8.834
    34   6 C        2.971     0.013    27.731     8.638
    35   6 C        3.806    -0.064    21.721     6.635
    36   6 C        3.754    -0.107    22.599     6.779
    37   6 C        2.925    -0.042    29.052     8.839
    38   6 C        2.921    -0.040    29.001     8.831
    39   6 C        2.979     0.009    27.818     8.652
    40   6 C        2.922    -0.039    28.962     8.825
    41   6 C        2.925    -0.042    29.038     8.837
    42   6 C        2.971     0.013    27.728     8.637
    43   6 C        3.806    -0.064    21.723     6.635
    44   6 C        3.754    -0.106    22.589     6.777
    45   6 C        2.925    -0.041    29.028     8.836
    46   6 C        2.923    -0.037    28.932     8.821
    47   6 C        3.204    -0.011    27.701     8.573
    48   6 C        3.087     0.019    27.496     8.595
    49   6 C        3.044     0.004    27.883     8.661
    50   6 C        2.908    -0.036    28.901     8.815
    51  16 S        2.198    -0.032   142.363    20.082
    52   6 C        3.193     0.017    27.133     8.495
    53   6 C        3.147     0.019    27.324     8.552
    54  16 S        2.268    -0.031   142.325    20.079
    55   6 C        3.004     0.022    27.504     8.603
    56   6 C        3.057    -0.053    29.248     8.869
    57   6 C        2.991     0.008    27.840     8.655
    58   6 C        2.923    -0.040    28.991     8.830
    59   6 C        2.923    -0.030    28.760     8.795
    60   6 C        2.962     0.004    27.923     8.667
    61   6 C        3.356     0.084    23.427     7.611
    62   6 C        3.346     0.070    23.913     7.718
    63   7 N        1.854    -0.303    28.715     7.942
    64  16 S        2.681     0.391   126.141    18.903
    65   7 N        1.854    -0.288    28.308     7.886
    66   6 C        2.993     0.009    27.797     8.648
    67   6 C        2.923    -0.038    28.940     8.822
    68   6 C        2.924    -0.028    28.699     8.785
    69   6 C        2.959    -0.002    28.081     8.692
    70   6 C        3.344     0.077    23.787     7.702
    71   6 C        3.341     0.072    23.969     7.740
    72   7 N        1.854    -0.309    28.862     7.963
    73  16 S        2.664     0.370   126.892    18.959
    74   7 N        1.855    -0.287    28.280     7.882
    75   6 C        2.905    -0.009    28.233     8.713
    76   6 C        3.007    -0.030    28.727     8.792
    77   6 C        2.872     0.234    23.103     7.879
    78   6 C        3.041    -0.017    28.396     8.740
    79   6 C        3.038     0.012    27.719     8.636
    80   6 C        3.018     0.048    26.891     8.506
    81   6 C        2.948     0.005    27.917     8.666
    82   8 O        0.856    -0.420    22.082     6.300
    83   6 C        1.936     0.133    27.844     8.521
    84   6 C        1.937     0.132    27.863     8.524
    85   7 N        0.911    -0.291    27.501     7.585
    86   7 N        0.911    -0.276    27.136     7.534
    87   6 C        2.902    -0.005    28.151     8.700
    88   6 C        3.004    -0.028    28.688     8.786
    89   6 C        3.014     0.040    27.092     8.538
    90   6 C        3.032     0.010    27.758     8.642
    91   6 C        3.041    -0.017    28.396     8.740
    92   6 C        2.865     0.239    23.013     7.863
    93   6 C        2.947     0.005    27.902     8.664
    94   6 C        1.944     0.133    27.829     8.519
    95   6 C        1.946     0.136    27.765     8.509
    96   8 O        0.856    -0.428    22.242     6.323
    97   6 C        2.913    -0.016    28.398     8.738
    98   6 C        2.921    -0.022    28.548     8.762
    99   6 C        2.921    -0.021    28.527     8.759
   100   6 C        2.913    -0.024    28.591     8.768
   101   6 C        2.913    -0.023    28.580     8.766
   102   6 C        2.921    -0.020    28.509     8.756
   103   6 C        2.921    -0.022    28.562     8.764
   104   6 C        2.912    -0.016    28.398     8.738
   105   7 N        0.911    -0.280    27.231     7.547
   106   7 N        0.911    -0.276    27.124     7.532
   107   1 H        0.926     0.078     2.003     2.213
   108   1 H        0.926     0.037     2.490     2.468
   109   1 H        0.926     0.041     2.431     2.438
   110   1 H        0.924     0.044     2.400     2.423
   111   1 H        0.924     0.041     2.440     2.443
   112   1 H        0.925     0.037     2.487     2.466
   113   1 H        0.925     0.043     2.408     2.427
   114   1 H        0.925     0.040     2.444     2.445
   115   1 H        0.926     0.035     2.520     2.482
   116   1 H        0.926     0.022     2.696     2.568
   117   1 H        0.926     0.037     2.485     2.465
   118   1 H        0.926     0.041     2.440     2.443
   119   1 H        0.924     0.043     2.414     2.430
   120   1 H        0.924     0.043     2.405     2.425
   121   1 H        0.925     0.043     2.404     2.425
   122   1 H        0.925     0.038     2.470     2.458
   123   1 H        0.925     0.038     2.473     2.459
   124   1 H        0.926     0.039     2.460     2.453
   125   1 H        0.926     0.031     2.572     2.508
   126   1 H        0.926     0.055     2.263     2.353
   127   1 H        0.926     0.037     2.486     2.465
   128   1 H        0.926     0.040     2.450     2.448
   129   1 H        0.924     0.042     2.420     2.433
   130   1 H        0.924     0.042     2.427     2.436
   131   1 H        0.925     0.043     2.408     2.427
   132   1 H        0.925     0.039     2.460     2.453
   133   1 H        0.925     0.040     2.454     2.450
   134   1 H        0.926     0.039     2.462     2.454
   135   1 H        0.926     0.031     2.571     2.508
   136   1 H        0.926     0.024     2.672     2.556
   137   1 H        0.926     0.036     2.508     2.477
   138   1 H        0.924     0.041     2.437     2.441
   139   1 H        0.924     0.044     2.397     2.421
   140   1 H        0.925     0.037     2.492     2.469
   141   1 H        0.925     0.043     2.409     2.427
   142   1 H        0.925     0.040     2.453     2.449
   143   1 H        0.926     0.041     2.440     2.443
   144   1 H        0.926     0.037     2.496     2.470
   145   1 H        0.926     0.055     2.257     2.349
   146   1 H        0.926     0.080     1.976     2.198
   147   1 H        0.926     0.077     2.009     2.217
   148   1 H        0.926     0.074     2.045     2.236
   149   1 H        0.926     0.079     1.986     2.204
   150   1 H        0.926     0.077     2.007     2.215
   151   1 H        0.925     0.086     1.922     2.168
   152   1 H        0.925     0.072     2.061     2.245
   153   1 H        0.926     0.068     2.103     2.268
   154   1 H        0.926     0.079     1.992     2.207
   155   1 H        0.926     0.078     2.005     2.214
   156   1 H        0.926     0.060     2.196     2.317
   157   1 H        0.926     0.060     2.198     2.318
   158   1 H        0.926     0.079     1.992     2.207
   159   1 H        0.926     0.079     1.986     2.204
   160   1 H        0.926     0.072     2.069     2.249

 Mol. C6AA /au·bohr⁶  :     452243.376186
 Mol. C8AA /au·bohr⁸  :   12508873.605018
 Mol. α(0) /au        :       1078.611953


Wiberg/Mayer (AO) data.
largest (>0.10) Wiberg bond orders for each atom

 ---------------------------------------------------------------------------
     #   Z sym  total        # sym  WBO       # sym  WBO       # sym  WBO
 ---------------------------------------------------------------------------
     1   6 C    3.922 --     2 C    1.452    66 C    1.185     5 S    1.090
     2   6 C    3.965 --     1 C    1.452     3 C    1.342   107 H    0.950
     3   6 C    3.918 --     2 C    1.342     4 C    1.296    27 S    1.101
     4   6 C    3.924 --     6 C    1.303     3 C    1.296     5 S    1.128
     5  16 S    2.554 --     4 C    1.128     1 C    1.090
     6   6 C    3.956 --    26 C    1.414     4 C    1.303     7 C    0.973
     7   6 C    3.987 --     6 C    0.973    24 C    0.972     8 C    0.956
                            16 C    0.944
     8   6 C    3.983 --    15 C    1.413     9 C    1.404     7 C    0.956
                            11 C    0.105
     9   6 C    3.990 --    10 C    1.451     8 C    1.404   108 H    0.967
                            14 C    0.109
    10   6 C    3.990 --     9 C    1.451    11 C    1.407   109 H    0.968
                            15 C    0.108
    11   6 C    3.986 --    14 C    1.411    10 C    1.407    12 C    1.013
                             8 C    0.105
    12   6 C    3.997 --    11 C    1.013    13 C    1.000   111 H    0.974
                           110 H    0.973
    13   6 C    3.995 --    12 C    1.000   112 H    0.988   114 H    0.988
                           113 H    0.986
    14   6 C    3.991 --    15 C    1.446    11 C    1.411   115 H    0.969
                             9 C    0.109
    15   6 C    3.991 --    14 C    1.446     8 C    1.413   116 H    0.968
                            10 C    0.108
    16   6 C    3.981 --    23 C    1.417    17 C    1.400     7 C    0.944
                            19 C    0.105
    17   6 C    3.989 --    18 C    1.456    16 C    1.400   117 H    0.964
                            22 C    0.109
    18   6 C    3.989 --    17 C    1.456    19 C    1.403   118 H    0.968
                            23 C    0.107
    19   6 C    3.985 --    22 C    1.415    18 C    1.403    20 C    1.013
                            16 C    0.105
    20   6 C    3.996 --    19 C    1.013    21 C    1.000   119 H    0.974
                           120 H    0.973
    21   6 C    3.995 --    20 C    1.000   123 H    0.988   122 H    0.988
                           121 H    0.986
    22   6 C    3.990 --    23 C    1.441    19 C    1.415   124 H    0.968
                            17 C    0.109
    23   6 C    3.989 --    22 C    1.441    16 C    1.417   125 H    0.966
                            18 C    0.107
    24   6 C    3.963 --    50 C    1.470    25 C    1.277     7 C    0.972
    25   6 C    3.955 --    28 C    1.344    24 C    1.277    26 C    1.152
    26   6 C    3.899 --     6 C    1.414    25 C    1.152    27 S    1.131
    27  16 S    2.538 --    26 C    1.131     3 C    1.101
    28   6 C    3.970 --    29 C    1.470    25 C    1.344   126 H    0.963
    29   6 C    3.964 --    28 C    1.470    49 C    1.278    30 C    0.972
    30   6 C    3.987 --    47 C    0.973    29 C    0.972    39 C    0.957
                            31 C    0.945
    31   6 C    3.981 --    38 C    1.417    32 C    1.399    30 C    0.945
                            34 C    0.105
    32   6 C    3.989 --    33 C    1.457    31 C    1.399   127 H    0.964
                            37 C    0.109
    33   6 C    3.989 --    32 C    1.457    34 C    1.402   128 H    0.968
                            38 C    0.107
    34   6 C    3.985 --    37 C    1.416    33 C    1.402    35 C    1.013
                            31 C    0.105
    35   6 C    3.996 --    34 C    1.013    36 C    1.000   130 H    0.974
                           129 H    0.973
    36   6 C    3.995 --    35 C    1.000   132 H    0.988   133 H    0.988
                           131 H    0.986
    37   6 C    3.990 --    38 C    1.441    34 C    1.416   134 H    0.968
                            32 C    0.109
    38   6 C    3.990 --    37 C    1.441    31 C    1.417   135 H    0.966
                            33 C    0.107
    39   6 C    3.983 --    40 C    1.414    46 C    1.403    30 C    0.957
                            42 C    0.105
    40   6 C    3.991 --    41 C    1.445    39 C    1.414   136 H    0.968
                            45 C    0.108
    41   6 C    3.991 --    40 C    1.445    42 C    1.413   137 H    0.969
                            46 C    0.108
    42   6 C    3.986 --    41 C    1.413    45 C    1.406    43 C    1.013
                            39 C    0.105
    43   6 C    3.997 --    42 C    1.013    44 C    1.000   138 H    0.975
                           139 H    0.973
    44   6 C    3.995 --    43 C    1.000   140 H    0.988   142 H    0.988
                           141 H    0.986
    45   6 C    3.990 --    46 C    1.453    42 C    1.406   143 H    0.968
                            40 C    0.108
    46   6 C    3.990 --    45 C    1.453    39 C    1.403   144 H    0.967
                            41 C    0.108
    47   6 C    3.956 --    48 C    1.415    53 C    1.302    30 C    0.973
    48   6 C    3.900 --    47 C    1.415    49 C    1.151    51 S    1.131
    49   6 C    3.954 --    50 C    1.344    29 C    1.278    48 C    1.151
    50   6 C    3.971 --    24 C    1.470    49 C    1.344   145 H    0.963
    51  16 S    2.541 --    48 C    1.131    52 C    1.102
    52   6 C    3.919 --    56 C    1.338    53 C    1.299    51 S    1.102
    53   6 C    3.924 --    47 C    1.302    52 C    1.299    54 S    1.127
    54  16 S    2.551 --    53 C    1.127    55 C    1.089
    55   6 C    3.920 --    56 C    1.457    57 C    1.181    54 S    1.089
    56   6 C    3.946 --    55 C    1.457    52 C    1.338   146 H    0.950
    57   6 C    3.961 --    58 C    1.392    55 C    1.181    62 C    1.177
    58   6 C    3.962 --    59 C    1.411    57 C    1.392   147 H    0.956
    59   6 C    3.960 --    58 C    1.411    60 C    1.391   148 H    0.964
    60   6 C    3.936 --    59 C    1.391    61 C    1.184    87 C    1.176
    61   6 C    3.967 --    63 N    1.394    60 C    1.184    62 C    1.176
    62   6 C    3.970 --    65 N    1.394    57 C    1.177    61 C    1.176
    63   7 N    3.069 --    64 S    1.420    61 C    1.394    65 N    0.156
    64  16 S    3.177 --    65 N    1.426    63 N    1.420
    65   7 N    3.077 --    64 S    1.426    62 C    1.394    63 N    0.156
    66   6 C    3.963 --    67 C    1.391     1 C    1.185    71 C    1.173
    67   6 C    3.962 --    68 C    1.413    66 C    1.391   149 H    0.956
    68   6 C    3.963 --    67 C    1.413    69 C    1.384   150 H    0.963
    69   6 C    3.952 --    68 C    1.384    70 C    1.183    75 C    1.182
    70   6 C    3.972 --    72 N    1.392    69 C    1.183    71 C    1.171
    71   6 C    3.970 --    74 N    1.402    66 C    1.173    70 C    1.171
                            73 S    0.103
    72   7 N    3.061 --    73 S    1.406    70 C    1.392    74 N    0.154
    73  16 S    3.167 --    74 N    1.422    72 N    1.406    71 C    0.103
    74   7 N    3.079 --    73 S    1.422    71 C    1.402    72 N    0.154
    75   6 C    3.937 --    76 C    1.583    69 C    1.182   151 H    0.948
    76   6 C    3.958 --    75 C    1.583    80 C    1.133    77 C    1.011
    77   6 C    3.913 --    82 O    1.748    78 C    1.025    76 C    1.011
    78   6 C    3.973 --   104 C    1.419    79 C    1.284    77 C    1.025
    79   6 C    3.981 --   101 C    1.405    78 C    1.284    80 C    1.082
    80   6 C    3.968 --    81 C    1.473    76 C    1.133    79 C    1.082
    81   6 C    3.971 --    80 C    1.473    84 C    1.103    83 C    1.102
    82   8 O    2.022 --    77 C    1.748
    83   6 C    3.943 --    86 N    2.753    81 C    1.102
    84   6 C    3.941 --    85 N    2.748    81 C    1.103
    85   7 N    2.966 --    84 C    2.748
    86   7 N    2.963 --    83 C    2.753
    87   6 C    3.936 --    88 C    1.587    60 C    1.176   152 H    0.942
    88   6 C    3.961 --    87 C    1.587    89 C    1.130    92 C    1.022
    89   6 C    3.968 --    93 C    1.481    88 C    1.130    90 C    1.088
    90   6 C    3.982 --   100 C    1.400    91 C    1.287    89 C    1.088
    91   6 C    3.976 --    97 C    1.420    90 C    1.287    92 C    1.026
    92   6 C    3.909 --    96 O    1.743    91 C    1.026    88 C    1.022
    93   6 C    3.953 --    89 C    1.481    94 C    1.100    95 C    1.099
    94   6 C    3.941 --   105 N    2.745    93 C    1.100
    95   6 C    3.941 --   106 N    2.753    93 C    1.099
    96   8 O    2.017 --    92 C    1.743
    97   6 C    3.981 --    98 C    1.420    91 C    1.420   153 H    0.965
    98   6 C    3.963 --    99 C    1.433    97 C    1.420   154 H    0.966
    99   6 C    3.975 --    98 C    1.433   100 C    1.429   155 H    0.966
   100   6 C    3.976 --    99 C    1.429    90 C    1.400   156 H    0.961
   101   6 C    3.977 --   102 C    1.426    79 C    1.405   157 H    0.962
   102   6 C    3.975 --   103 C    1.435   101 C    1.426   158 H    0.966
   103   6 C    3.964 --   102 C    1.435   104 C    1.420   159 H    0.966
   104   6 C    3.980 --   103 C    1.420    78 C    1.419   160 H    0.964
   105   7 N    2.958 --    94 C    2.745
   106   7 N    2.960 --    95 C    2.753
   107   1 H    0.993 --     2 C    0.950
   108   1 H    0.998 --     9 C    0.967
   109   1 H    0.998 --    10 C    0.968
   110   1 H    0.998 --    12 C    0.973
   111   1 H    0.998 --    12 C    0.974
   112   1 H    0.999 --    13 C    0.988
   113   1 H    0.997 --    13 C    0.986
   114   1 H    0.998 --    13 C    0.988
   115   1 H    0.998 --    14 C    0.969
   116   1 H    0.999 --    15 C    0.968
   117   1 H    0.998 --    17 C    0.964
   118   1 H    0.998 --    18 C    0.968
   119   1 H    0.998 --    20 C    0.974
   120   1 H    0.998 --    20 C    0.973
   121   1 H    0.997 --    21 C    0.986
   122   1 H    0.999 --    21 C    0.988
   123   1 H    0.999 --    21 C    0.988
   124   1 H    0.998 --    22 C    0.968
   125   1 H    0.999 --    23 C    0.966
   126   1 H    0.996 --    28 C    0.963
   127   1 H    0.998 --    32 C    0.964
   128   1 H    0.998 --    33 C    0.968
   129   1 H    0.998 --    35 C    0.973
   130   1 H    0.998 --    35 C    0.974
   131   1 H    0.997 --    36 C    0.986
   132   1 H    0.998 --    36 C    0.988
   133   1 H    0.998 --    36 C    0.988
   134   1 H    0.998 --    37 C    0.968
   135   1 H    0.999 --    38 C    0.966
   136   1 H    0.999 --    40 C    0.968
   137   1 H    0.998 --    41 C    0.969
   138   1 H    0.998 --    43 C    0.975
   139   1 H    0.998 --    43 C    0.973
   140   1 H    0.999 --    44 C    0.988
   141   1 H    0.997 --    44 C    0.986
   142   1 H    0.998 --    44 C    0.988
   143   1 H    0.998 --    45 C    0.968
   144   1 H    0.998 --    46 C    0.967
   145   1 H    0.996 --    50 C    0.963
   146   1 H    0.993 --    56 C    0.950
   147   1 H    0.992 --    58 C    0.956
   148   1 H    0.993 --    59 C    0.964
   149   1 H    0.992 --    67 C    0.956
   150   1 H    0.992 --    68 C    0.963
   151   1 H    0.989 --    75 C    0.948
   152   1 H    0.991 --    87 C    0.942
   153   1 H    0.995 --    97 C    0.965
   154   1 H    0.993 --    98 C    0.966
   155   1 H    0.994 --    99 C    0.966
   156   1 H    0.996 --   100 C    0.961
   157   1 H    0.996 --   101 C    0.962
   158   1 H    0.993 --   102 C    0.966
   159   1 H    0.993 --   103 C    0.966
   160   1 H    0.994 --   104 C    0.964
 ---------------------------------------------------------------------------

Topologies differ in bond orders
Writing corrected topology to xtbtopo.mol

molecular dipole:
                 x           y           z       tot (Debye)
 q only:        1.402      -3.477       0.102
   full:        1.488      -3.848       0.374      10.530
molecular quadrupole (traceless):
                xx          xy          yy          xz          yz          zz
 q only:       89.399      62.599     -29.712      -4.882     100.248     -59.686
  q+dip:       80.556      64.475     -42.361       3.056     102.999     -38.195
   full:       83.959      57.218     -47.158      -2.912     107.416     -36.801


           -------------------------------------------------
          | TOTAL ENERGY             -271.195209508254 Eh   |
          | GRADIENT NORM               0.034345886830 Eh/α |
          | HOMO-LUMO GAP               0.754686268704 eV   |
           -------------------------------------------------

------------------------------------------------------------------------
 * finished run on 2021/12/28 at 11:45:29.672     
------------------------------------------------------------------------
 total:
 * wall-time:     0 d,  0 h,  0 min,  1.291 sec
 *  cpu-time:     0 d,  0 h,  0 min,  1.290 sec
 * ratio c/w:     0.999 speedup
 SCF:
 * wall-time:     0 d,  0 h,  0 min,  1.188 sec
 *  cpu-time:     0 d,  0 h,  0 min,  1.188 sec
 * ratio c/w:     1.000 speedup

