      -----------------------------------------------------------      
     |                   =====================                   |     
     |                           x T B                           |     
     |                   =====================                   |     
     |                         S. Grimme                         |     
     |          Mulliken Center for Theoretical Chemistry        |     
     |                    University of Bonn                     |     
      -----------------------------------------------------------      

   * xtb version 6.4.1 (unknown) compiled by 'oda6@login1.crc.pitt.edu' on 2021-06-25

   xtb is free software: you can redistribute it and/or modify it under
   the terms of the GNU Lesser General Public License as published by
   the Free Software Foundation, either version 3 of the License, or
   (at your option) any later version.
   
   xtb is distributed in the hope that it will be useful,
   but WITHOUT ANY WARRANTY; without even the implied warranty of
   MERCHANTABILITY or FITNESS FOR A PARTICULAR PURPOSE.  See the
   GNU Lesser General Public License for more details.
   
   Cite this work as:
   * C. Bannwarth, E. Caldeweyher, S. Ehlert, A. Hansen, P. Pracht,
     J. Seibert, S. Spicher, S. Grimme, WIREs Comput. Mol. Sci., 2020, 11,
     e01493. DOI: 10.1002/wcms.1493
   
   for GFN2-xTB:
   * C. Bannwarth, S. Ehlert and S. Grimme., J. Chem. Theory Comput., 2019,
     15, 1652-1671. DOI: 10.1021/acs.jctc.8b01176
   for GFN1-xTB:
   * S. Grimme, C. Bannwarth, P. Shushkov, J. Chem. Theory Comput., 2017,
     13, 1989-2009. DOI: 10.1021/acs.jctc.7b00118
   for GFN0-xTB:
   * P. Pracht, E. Caldeweyher, S. Ehlert, S. Grimme, ChemRxiv, 2019, preprint.
     DOI: 10.26434/chemrxiv.8326202.v1
   for GFN-FF:
   * S. Spicher and S. Grimme, Angew. Chem. Int. Ed., 2020, 59, 15665-15673.
     DOI: 10.1002/anie.202004239
   
   for DFT-D4:
   * E. Caldeweyher, C. Bannwarth and S. Grimme, J. Chem. Phys., 2017,
     147, 034112. DOI: 10.1063/1.4993215
   * E. Caldeweyher, S. Ehlert, A. Hansen, H. Neugebauer, S. Spicher,
     C. Bannwarth and S. Grimme, J. Chem. Phys., 2019, 150, 154122.
     DOI: 10.1063/1.5090222
   * E. Caldeweyher, J.-M. Mewes, S. Ehlert and S. Grimme, Phys. Chem. Chem. Phys.
     2020, 22, 8499-8512. DOI: 10.1039/D0CP00502A
   
   for sTDA-xTB:
   * S. Grimme and C. Bannwarth, J. Chem. Phys., 2016, 145, 054103.
     DOI: 10.1063/1.4959605
   
   in the mass-spec context:
   * V. Asgeirsson, C. Bauer and S. Grimme, Chem. Sci., 2017, 8, 4879.
     DOI: 10.1039/c7sc00601b
   * J. Koopman and S. Grimme, ACS Omega 2019, 4, 12, 15120-15133.
     DOI: 10.1021/acsomega.9b02011
   
   for metadynamics refer to:
   * S. Grimme, J. Chem. Theory Comput., 2019, 155, 2847-2862
     DOI: 10.1021/acs.jctc.9b00143
   
   for SPH calculations refer to:
   * S. Spicher and S. Grimme, J. Chem. Theory Comput., 2021, 17, 1701-1714
     DOI: 10.1021/acs.jctc.0c01306
   
   with help from (in alphabetical order)
   P. Atkinson, C. Bannwarth, F. Bohle, G. Brandenburg, E. Caldeweyher
   M. Checinski, S. Dohm, S. Ehlert, S. Ehrlich, I. Gerasimov, J. Koopman
   C. Lavigne, S. Lehtola, F. März, M. Müller, F. Musil, H. Neugebauer
   J. Pisarek, C. Plett, P. Pracht, J. Seibert, P. Shushkov, S. Spicher
   M. Stahn, M. Steiner, T. Strunk, J. Stückrath, T. Rose, and J. Unsleber
   
 * started run on 2021/12/28 at 11:46:52.542     

           -------------------------------------------------
          |                Calculation Setup                |
           -------------------------------------------------

          program call               : /ihome/ghutchison/oda6/xtb/xtb-641/bin//xtb NTIC.mol --sp --alpb water
          hostname                   : smp-n39
          coordinate file            : NTIC.mol
          omp threads                :                     1
          number of atoms            :                   138
          number of electrons        :                   408
          charge                     :                     0
          spin                       :                   0.0
          first test random number   :      0.40531961827174

   ID    Z sym.   atoms
    1    6 C      1-6, 8-10, 13-23, 25-27, 30-36, 38-51, 53-86
    2    8 O      7, 24
    3    7 N      11, 12, 28, 29
    4   16 S      37, 52
    5    1 H      87-138

           -------------------------------------------------
          |                 G F N 2 - x T B                 |
           -------------------------------------------------

        Reference                      10.1021/acs.jctc.8b01176
      * Hamiltonian:
        H0-scaling (s, p, d)           1.850000    2.230000    2.230000
        zeta-weighting                 0.500000
      * Dispersion:
        s8                             2.700000
        a1                             0.520000
        a2                             5.000000
        s9                             5.000000
      * Repulsion:
        kExp                           1.500000    1.000000
        rExp                           1.000000
      * Coulomb:
        alpha                          2.000000
        third order                    shell-resolved
        anisotropic                    true
        a3                             3.000000
        a5                             4.000000
        cn-shift                       1.200000
        cn-exp                         4.000000
        max-rad                        5.000000

      * Solvation model:               ALPB
        Solvent                        water
        Parameter file                 internal GFN2-xTB/ALPB
        Dielectric constant                8.0200E+01
        Reference state                gsolv [1 M gas/solution]
        Free energy shift                  1.0808E-03 Eh       6.7819E-01 kcal/mol
        Temperature                        2.9815E+02 K
        Density                            1.0000E+00 kg/L
        Solvent mass                       1.8000E+01 g/mol
        Interaction kernel             P16
        Born radius scaling (c1)           1.4744E+00
        Born radii integrator          GBOBC
        Born offset                        0.0000E+00 a0       0.0000E+00 AA
        H-bond correction              true
        Ion screening                  false
        Surface tension                    1.0000E-05 Eh       1.5569E+01 dyn/cm
        Grid points                               230 per atom

          ...................................................
          :                      SETUP                      :
          :.................................................:
          :  # basis functions                 408          :
          :  # atomic orbitals                 406          :
          :  # shells                          226          :
          :  # electrons                       408          :
          :  max. iterations                   250          :
          :  Hamiltonian                  GFN2-xTB          :
          :  restarted?                      false          :
          :  GBSA solvation                   true          :
          :  PC potential                    false          :
          :  electronic temp.          300.0000000     K    :
          :  accuracy                    1.0000000          :
          :  -> integral cutoff          0.2500000E+02      :
          :  -> integral neglect         0.1000000E-07      :
          :  -> SCF convergence          0.1000000E-05 Eh   :
          :  -> wf. convergence          0.1000000E-03 e    :
          :  Broyden damping             0.4000000          :
          ...................................................

 iter      E             dE          RMSdq      gap      omega  full diag
   1   -223.6322108 -0.223632E+03  0.471E+00    1.19       0.0  T
   2   -223.7256621 -0.934513E-01  0.276E+00    1.22       1.0  T
   3   -223.5714412  0.154221E+00  0.141E+00    1.04       1.0  T
   4   -223.7654319 -0.193991E+00  0.354E-01    1.15       1.0  T
   5   -223.7736603 -0.822844E-02  0.114E-01    1.11       1.0  T
   6   -223.7741999 -0.539609E-03  0.554E-02    1.13       1.0  T
   7   -223.7742796 -0.797337E-04  0.211E-02    1.12       1.0  T
   8   -223.7743033 -0.236740E-04  0.828E-03    1.13       1.0  T
   9   -223.7743056 -0.224618E-05  0.453E-03    1.12       1.9  T
  10   -223.7743065 -0.981330E-06  0.249E-03    1.13       3.4  T
  11   -223.7743068 -0.220783E-06  0.124E-03    1.12       6.9  T
  12   -223.7743068 -0.499063E-07  0.648E-04    1.12      13.1  T
  13   -223.7743068 -0.134312E-07  0.318E-04    1.12      26.8  T

   *** convergence criteria satisfied after 13 iterations ***

         #    Occupation            Energy/Eh            Energy/eV
      -------------------------------------------------------------
         1        2.0000           -0.7474673             -20.3396
       ...           ...                  ...                  ...
       198        2.0000           -0.4015973             -10.9280
       199        2.0000           -0.3960897             -10.7781
       200        2.0000           -0.3931592             -10.6984
       201        2.0000           -0.3879013             -10.5553
       202        2.0000           -0.3874796             -10.5439
       203        2.0000           -0.3865340             -10.5181
       204        2.0000           -0.3746735             -10.1954 (HOMO)
       205                         -0.3333374              -9.0706 (LUMO)
       206                         -0.3294982              -8.9661
       207                         -0.3201368              -8.7114
       208                         -0.3169488              -8.6246
       209                         -0.2846262              -7.7451
       ...                                ...                  ...
       406                          1.1518614              31.3437
      -------------------------------------------------------------
                  HL-Gap            0.0413361 Eh            1.1248 eV
             Fermi-level           -0.3540137 Eh           -9.6332 eV

 SCC (total)                   0 d,  0 h,  0 min,  0.796 sec
 SCC setup                      ...        0 min,  0.007 sec (  0.891%)
 Dispersion                     ...        0 min,  0.007 sec (  0.912%)
 classical contributions        ...        0 min,  0.001 sec (  0.092%)
 integral evaluation            ...        0 min,  0.065 sec (  8.105%)
 iterations                     ...        0 min,  0.424 sec ( 53.247%)
 molecular gradient             ...        0 min,  0.289 sec ( 36.331%)
 printout                       ...        0 min,  0.003 sec (  0.414%)

         :::::::::::::::::::::::::::::::::::::::::::::::::::::
         ::                     SUMMARY                     ::
         :::::::::::::::::::::::::::::::::::::::::::::::::::::
         :: total energy            -219.768358884197 Eh    ::
         :: total w/o Gsasa/hb      -219.742640455060 Eh    ::
         :: gradient norm              0.032165588501 Eh/a0 ::
         :: HOMO-LUMO gap              1.124811577060 eV    ::
         ::.................................................::
         :: SCC energy              -223.774306819035 Eh    ::
         :: -> isotropic ES            0.125775277844 Eh    ::
         :: -> anisotropic ES          0.011443425968 Eh    ::
         :: -> anisotropic XC          0.160312853736 Eh    ::
         :: -> dispersion             -0.206331518529 Eh    ::
         :: -> Gsolv                  -0.051114071544 Eh    ::
         ::    -> Gelec               -0.025395642406 Eh    ::
         ::    -> Gsasa               -0.021872412928 Eh    ::
         ::    -> Ghb                 -0.004926775908 Eh    ::
         ::    -> Gshift               0.001080759698 Eh    ::
         :: repulsion energy           4.005166509580 Eh    ::
         :: add. restraining           0.000000000000 Eh    ::
         :: total charge              -0.000000000012 e     ::
         :::::::::::::::::::::::::::::::::::::::::::::::::::::

           -------------------------------------------------
          |                Property Printout                |
           -------------------------------------------------

    * Orbital Energies and Occupations

         #    Occupation            Energy/Eh            Energy/eV
      -------------------------------------------------------------
         1        2.0000           -0.7474673             -20.3396
       ...           ...                  ...                  ...
       192        2.0000           -0.4060432             -11.0490
       193        2.0000           -0.4048371             -11.0162
       194        2.0000           -0.4043137             -11.0019
       195        2.0000           -0.4041842             -10.9984
       196        2.0000           -0.4029507             -10.9648
       197        2.0000           -0.4025238             -10.9532
       198        2.0000           -0.4015973             -10.9280
       199        2.0000           -0.3960897             -10.7781
       200        2.0000           -0.3931592             -10.6984
       201        2.0000           -0.3879013             -10.5553
       202        2.0000           -0.3874796             -10.5439
       203        2.0000           -0.3865340             -10.5181
       204        2.0000           -0.3746735             -10.1954 (HOMO)
       205                         -0.3333374              -9.0706 (LUMO)
       206                         -0.3294982              -8.9661
       207                         -0.3201368              -8.7114
       208                         -0.3169488              -8.6246
       209                         -0.2846262              -7.7451
       210                         -0.2667308              -7.2581
       211                         -0.2527413              -6.8774
       212                         -0.2518486              -6.8531
       213                         -0.2518229              -6.8525
       214                         -0.2443147              -6.6481
       215                         -0.2412093              -6.5636
       ...                                ...                  ...
       406                          1.1518614              31.3437
      -------------------------------------------------------------
                  HL-Gap            0.0413361 Eh            1.1248 eV
             Fermi-level           -0.3540137 Eh           -9.6332 eV

     #   Z          covCN         q      C6AA      α(0)
     1   6 C        2.917    -0.013    28.345     8.731
     2   6 C        3.007    -0.043    29.042     8.840
     3   6 C        2.873     0.228    23.226     7.900
     4   6 C        3.045    -0.019    28.431     8.745
     5   6 C        3.036     0.007    27.837     8.654
     6   6 C        3.019     0.036    27.174     8.551
     7   8 O        0.951    -0.412    21.879     6.273
     8   6 C        2.947    -0.000    28.039     8.685
     9   6 C        1.948     0.134    27.804     8.515
    10   6 C        1.946     0.132    27.853     8.523
    11   7 N        0.911    -0.286    27.376     7.567
    12   7 N        0.911    -0.289    27.461     7.579
    13   6 C        2.913    -0.017    28.431     8.744
    14   6 C        2.921    -0.023    28.587     8.768
    15   6 C        2.921    -0.022    28.558     8.763
    16   6 C        2.914    -0.025    28.620     8.773
    17   6 C        2.994     0.024    27.467     8.597
    18   6 C        2.958    -0.012    28.323     8.729
    19   6 C        2.999    -0.042    29.032     8.839
    20   6 C        2.866     0.230    23.181     7.892
    21   6 C        3.046    -0.019    28.447     8.748
    22   6 C        3.030     0.007    27.832     8.654
    23   6 C        3.019     0.036    27.168     8.550
    24   8 O        0.856    -0.432    22.341     6.337
    25   6 C        2.947    -0.001    28.048     8.686
    26   6 C        1.955     0.134    27.794     8.514
    27   6 C        1.952     0.131    27.866     8.525
    28   7 N        0.911    -0.286    27.388     7.569
    29   7 N        0.911    -0.288    27.427     7.574
    30   6 C        2.913    -0.017    28.432     8.744
    31   6 C        2.921    -0.024    28.593     8.769
    32   6 C        2.921    -0.022    28.562     8.764
    33   6 C        2.914    -0.025    28.637     8.775
    34   6 C        3.051    -0.038    28.901     8.817
    35   6 C        3.243    -0.001    27.098     8.436
    36   6 C        3.075     0.033    27.184     8.548
    37  16 S        2.297    -0.002   141.147    19.996
    38   6 C        3.952     0.014    20.267     6.397
    39   6 C        3.081     0.013    27.638     8.619
    40   6 C        3.035     0.001    27.977     8.676
    41   6 C        2.911    -0.028    28.710     8.786
    42   6 C        2.919    -0.029    28.729     8.790
    43   6 C        2.981     0.013    27.714     8.635
    44   6 C        2.981     0.013    27.717     8.636
    45   6 C        3.038     0.002    27.945     8.671
    46   6 C        3.079     0.014    27.627     8.617
    47   6 C        2.910    -0.028    28.712     8.786
    48   6 C        2.919    -0.030    28.751     8.793
    49   6 C        3.078     0.020    27.470     8.593
    50   6 C        3.222    -0.001    27.315     8.496
    51   6 C        3.950     0.014    20.280     6.399
    52  16 S        2.323     0.034   139.691    19.892
    53   6 C        2.992     0.022    27.516     8.605
    54   6 C        3.064    -0.040    28.922     8.819
    55   6 C        2.979     0.011    27.770     8.644
    56   6 C        2.984     0.012    27.747     8.641
    57   6 C        2.920    -0.042    29.031     8.836
    58   6 C        2.926    -0.043    29.058     8.840
    59   6 C        2.971     0.012    27.741     8.639
    60   6 C        2.925    -0.041    29.021     8.834
    61   6 C        2.923    -0.036    28.904     8.817
    62   6 C        2.923    -0.038    28.936     8.821
    63   6 C        2.925    -0.042    29.038     8.837
    64   6 C        2.971     0.012    27.735     8.638
    65   6 C        2.925    -0.042    29.039     8.837
    66   6 C        2.922    -0.039    28.971     8.827
    67   6 C        3.806    -0.064    21.719     6.634
    68   6 C        3.754    -0.107    22.597     6.778
    69   6 C        3.806    -0.064    21.717     6.634
    70   6 C        3.754    -0.107    22.599     6.779
    71   6 C        2.983     0.011    27.756     8.642
    72   6 C        2.979     0.010    27.778     8.645
    73   6 C        2.922    -0.038    28.935     8.821
    74   6 C        2.925    -0.042    29.034     8.836
    75   6 C        2.971     0.012    27.732     8.638
    76   6 C        2.925    -0.042    29.044     8.838
    77   6 C        2.922    -0.040    28.997     8.831
    78   6 C        2.923    -0.038    28.935     8.821
    79   6 C        2.925    -0.042    29.035     8.837
    80   6 C        2.971     0.012    27.739     8.639
    81   6 C        2.926    -0.042    29.051     8.839
    82   6 C        2.921    -0.041    29.023     8.835
    83   6 C        3.806    -0.064    21.727     6.636
    84   6 C        3.754    -0.106    22.587     6.777
    85   6 C        3.806    -0.064    21.723     6.635
    86   6 C        3.754    -0.106    22.590     6.777
    87   1 H        0.925     0.067     2.118     2.276
    88   1 H        0.926     0.069     2.091     2.262
    89   1 H        0.926     0.075     2.036     2.231
    90   1 H        0.926     0.072     2.064     2.246
    91   1 H        0.926     0.055     2.257     2.349
    92   1 H        0.925     0.066     2.129     2.282
    93   1 H        0.926     0.067     2.117     2.276
    94   1 H        0.926     0.073     2.048     2.238
    95   1 H        0.926     0.072     2.068     2.249
    96   1 H        0.926     0.055     2.257     2.349
    97   1 H        0.926     0.088     1.897     2.154
    98   1 H        0.926     0.059     2.206     2.323
    99   1 H        0.926     0.065     2.141     2.288
   100   1 H        0.926     0.060     2.196     2.317
   101   1 H        0.926     0.064     2.149     2.292
   102   1 H        0.926     0.063     2.165     2.301
   103   1 H        0.926     0.035     2.519     2.482
   104   1 H        0.926     0.040     2.450     2.448
   105   1 H        0.926     0.037     2.490     2.468
   106   1 H        0.926     0.035     2.518     2.482
   107   1 H        0.926     0.038     2.480     2.463
   108   1 H        0.926     0.041     2.439     2.442
   109   1 H        0.926     0.035     2.518     2.481
   110   1 H        0.926     0.026     2.650     2.546
   111   1 H        0.924     0.043     2.406     2.425
   112   1 H        0.924     0.040     2.445     2.445
   113   1 H        0.925     0.038     2.479     2.462
   114   1 H        0.925     0.040     2.446     2.446
   115   1 H        0.925     0.043     2.403     2.424
   116   1 H        0.924     0.042     2.422     2.434
   117   1 H        0.924     0.041     2.439     2.442
   118   1 H        0.925     0.040     2.450     2.448
   119   1 H        0.925     0.043     2.404     2.425
   120   1 H        0.925     0.039     2.460     2.453
   121   1 H        0.926     0.038     2.475     2.460
   122   1 H        0.926     0.040     2.443     2.444
   123   1 H        0.926     0.035     2.512     2.478
   124   1 H        0.926     0.027     2.633     2.537
   125   1 H        0.926     0.035     2.514     2.480
   126   1 H        0.926     0.038     2.473     2.459
   127   1 H        0.926     0.039     2.462     2.454
   128   1 H        0.926     0.034     2.530     2.488
   129   1 H        0.924     0.043     2.411     2.428
   130   1 H        0.924     0.043     2.415     2.430
   131   1 H        0.925     0.037     2.486     2.465
   132   1 H        0.925     0.038     2.475     2.460
   133   1 H        0.925     0.043     2.407     2.426
   134   1 H        0.924     0.041     2.440     2.443
   135   1 H        0.924     0.043     2.404     2.425
   136   1 H        0.925     0.037     2.485     2.465
   137   1 H        0.925     0.040     2.452     2.449
   138   1 H        0.925     0.043     2.411     2.428

 Mol. C6AA /au·bohr⁶  :     292244.379140
 Mol. C8AA /au·bohr⁸  :    7681379.213562
 Mol. α(0) /au        :        864.835097


Wiberg/Mayer (AO) data.
largest (>0.10) Wiberg bond orders for each atom

 ---------------------------------------------------------------------------
     #   Z sym  total        # sym  WBO       # sym  WBO       # sym  WBO
 ---------------------------------------------------------------------------
     1   6 C    3.948 --     2 C    1.467    53 C    1.328    87 H    0.939
     2   6 C    3.957 --     1 C    1.467     6 C    1.153     3 C    1.073
     3   6 C    3.910 --     7 O    1.680     2 C    1.073     4 C    1.026
     4   6 C    3.975 --    13 C    1.423     5 C    1.290     3 C    1.026
     5   6 C    3.979 --    16 C    1.409     4 C    1.290     6 C    1.081
     6   6 C    3.965 --     8 C    1.465     2 C    1.153     5 C    1.081
     7   8 O    2.073 --     3 C    1.680    52 S    0.118
     8   6 C    3.944 --     6 C    1.465    10 C    1.104     9 C    1.101
     9   6 C    3.939 --    11 N    2.746     8 C    1.101
    10   6 C    3.940 --    12 N    2.735     8 C    1.104
    11   7 N    2.955 --     9 C    2.746
    12   7 N    2.951 --    10 C    2.735
    13   6 C    3.978 --     4 C    1.423    14 C    1.415    88 H    0.965
    14   6 C    3.966 --    15 C    1.440    13 C    1.415    89 H    0.966
    15   6 C    3.975 --    14 C    1.440    16 C    1.421    90 H    0.967
    16   6 C    3.976 --    15 C    1.421     5 C    1.409    91 H    0.961
    17   6 C    3.927 --    34 C    1.371    18 C    1.306    37 S    1.072
    18   6 C    3.948 --    19 C    1.487    17 C    1.306    92 H    0.940
    19   6 C    3.956 --    18 C    1.487    23 C    1.149    20 C    1.052
    20   6 C    3.911 --    24 O    1.713    19 C    1.052    21 C    1.025
    21   6 C    3.977 --    30 C    1.421    22 C    1.293    20 C    1.025
    22   6 C    3.980 --    33 C    1.404    21 C    1.293    23 C    1.083
    23   6 C    3.966 --    25 C    1.468    19 C    1.149    22 C    1.083
    24   8 O    2.012 --    20 C    1.713
    25   6 C    3.944 --    23 C    1.468    27 C    1.102    26 C    1.100
    26   6 C    3.939 --    28 N    2.745    25 C    1.100
    27   6 C    3.940 --    29 N    2.732    25 C    1.102
    28   7 N    2.955 --    26 C    2.745
    29   7 N    2.951 --    27 C    2.732
    30   6 C    3.980 --    21 C    1.421    31 C    1.419    93 H    0.965
    31   6 C    3.966 --    32 C    1.437    30 C    1.419    94 H    0.966
    32   6 C    3.976 --    31 C    1.437    33 C    1.426    95 H    0.967
    33   6 C    3.976 --    32 C    1.426    22 C    1.404    96 H    0.961
    34   6 C    3.957 --    35 C    1.412    17 C    1.371    97 H    0.939
    35   6 C    3.962 --    34 C    1.412    36 C    1.337    38 C    0.975
    36   6 C    3.921 --    35 C    1.337    37 S    1.208    40 C    1.166
    37  16 S    2.613 --    36 C    1.208    17 C    1.072
    38   6 C    3.987 --    39 C    0.976    35 C    0.975    55 C    0.955
                            56 C    0.942
    39   6 C    3.949 --    41 C    1.358    40 C    1.356    38 C    0.976
    40   6 C    3.972 --    39 C    1.356    44 C    1.228    36 C    1.166
    41   6 C    3.977 --    42 C    1.500    39 C    1.358    98 H    0.964
    42   6 C    3.934 --    41 C    1.500    43 C    1.300    99 H    0.959
    43   6 C    3.978 --    42 C    1.300    44 C    1.244    45 C    1.228
    44   6 C    3.978 --    48 C    1.301    43 C    1.244    40 C    1.228
    45   6 C    3.973 --    46 C    1.358    43 C    1.228    49 C    1.165
    46   6 C    3.947 --    45 C    1.358    47 C    1.357    51 C    0.974
    47   6 C    3.976 --    48 C    1.500    46 C    1.357   100 H    0.964
    48   6 C    3.932 --    47 C    1.500    44 C    1.301   101 H    0.959
    49   6 C    3.932 --    50 C    1.319    52 S    1.222    45 C    1.165
    50   6 C    3.959 --    54 C    1.442    49 C    1.319    51 C    0.974
    51   6 C    3.986 --    46 C    0.974    50 C    0.974    72 C    0.955
                            71 C    0.946
    52  16 S    2.766 --    49 C    1.222    53 C    1.094     7 O    0.118
    53   6 C    3.933 --    54 C    1.332     1 C    1.328    52 S    1.094
    54   6 C    3.962 --    50 C    1.442    53 C    1.332   102 H    0.960
    55   6 C    3.982 --    66 C    1.414    62 C    1.403    38 C    0.955
                            64 C    0.105
    56   6 C    3.980 --    57 C    1.417    61 C    1.400    38 C    0.942
                            59 C    0.105
    57   6 C    3.990 --    58 C    1.441    56 C    1.417   103 H    0.966
                            60 C    0.107
    58   6 C    3.990 --    57 C    1.441    59 C    1.415   104 H    0.968
                            61 C    0.110
    59   6 C    3.986 --    58 C    1.415    60 C    1.403    69 C    1.013
                            56 C    0.105
    60   6 C    3.990 --    61 C    1.456    59 C    1.403   105 H    0.968
                            57 C    0.107
    61   6 C    3.990 --    60 C    1.456    56 C    1.400   106 H    0.967
                            58 C    0.110
    62   6 C    3.989 --    63 C    1.452    55 C    1.403   107 H    0.966
                            65 C    0.109
    63   6 C    3.990 --    62 C    1.452    64 C    1.406   108 H    0.968
                            66 C    0.108
    64   6 C    3.986 --    65 C    1.412    63 C    1.406    67 C    1.013
                            55 C    0.105
    65   6 C    3.991 --    66 C    1.445    64 C    1.412   109 H    0.969
                            62 C    0.109
    66   6 C    3.991 --    65 C    1.445    55 C    1.414   110 H    0.968
                            63 C    0.108
    67   6 C    3.997 --    64 C    1.013    68 C    1.000   112 H    0.974
                           111 H    0.973
    68   6 C    3.995 --    67 C    1.000   113 H    0.988   114 H    0.988
                           115 H    0.986
    69   6 C    3.997 --    59 C    1.013    70 C    1.000   116 H    0.974
                           117 H    0.974
    70   6 C    3.995 --    69 C    1.000   120 H    0.988   118 H    0.988
                           119 H    0.986
    71   6 C    3.980 --    82 C    1.416    78 C    1.401    51 C    0.946
                            80 C    0.105
    72   6 C    3.982 --    77 C    1.412    73 C    1.403    51 C    0.955
                            75 C    0.105
    73   6 C    3.989 --    74 C    1.452    72 C    1.403   121 H    0.966
                            76 C    0.108
    74   6 C    3.990 --    73 C    1.452    75 C    1.406   122 H    0.968
                            77 C    0.108
    75   6 C    3.986 --    76 C    1.412    74 C    1.406    85 C    1.013
                            72 C    0.105
    76   6 C    3.991 --    77 C    1.446    75 C    1.412   123 H    0.969
                            73 C    0.108
    77   6 C    3.990 --    76 C    1.446    72 C    1.412   124 H    0.967
                            74 C    0.108
    78   6 C    3.990 --    79 C    1.456    71 C    1.401   125 H    0.967
                            81 C    0.109
    79   6 C    3.990 --    78 C    1.456    80 C    1.403   126 H    0.968
                            82 C    0.107
    80   6 C    3.985 --    81 C    1.415    79 C    1.403    83 C    1.013
                            71 C    0.105
    81   6 C    3.991 --    82 C    1.442    80 C    1.415   127 H    0.968
                            78 C    0.109
    82   6 C    3.990 --    81 C    1.442    71 C    1.416   128 H    0.966
                            79 C    0.107
    83   6 C    3.996 --    80 C    1.013    84 C    1.000   129 H    0.974
                           130 H    0.973
    84   6 C    3.995 --    83 C    1.000   132 H    0.988   131 H    0.988
                           133 H    0.986
    85   6 C    3.996 --    75 C    1.013    86 C    1.000   134 H    0.974
                           135 H    0.973
    86   6 C    3.995 --    85 C    1.000   136 H    0.988   137 H    0.988
                           138 H    0.986
    87   1 H    0.994 --     1 C    0.939
    88   1 H    0.995 --    13 C    0.965
    89   1 H    0.993 --    14 C    0.966
    90   1 H    0.994 --    15 C    0.967
    91   1 H    0.996 --    16 C    0.961
    92   1 H    0.995 --    18 C    0.940
    93   1 H    0.995 --    30 C    0.965
    94   1 H    0.994 --    31 C    0.966
    95   1 H    0.995 --    32 C    0.967
    96   1 H    0.997 --    33 C    0.961
    97   1 H    0.992 --    34 C    0.939
    98   1 H    0.995 --    41 C    0.964
    99   1 H    0.995 --    42 C    0.959
   100   1 H    0.995 --    47 C    0.964
   101   1 H    0.995 --    48 C    0.959
   102   1 H    0.995 --    54 C    0.960
   103   1 H    0.998 --    57 C    0.966
   104   1 H    0.998 --    58 C    0.968
   105   1 H    0.998 --    60 C    0.968
   106   1 H    0.998 --    61 C    0.967
   107   1 H    0.998 --    62 C    0.966
   108   1 H    0.998 --    63 C    0.968
   109   1 H    0.998 --    65 C    0.969
   110   1 H    0.999 --    66 C    0.968
   111   1 H    0.998 --    67 C    0.973
   112   1 H    0.998 --    67 C    0.974
   113   1 H    0.999 --    68 C    0.988
   114   1 H    0.998 --    68 C    0.988
   115   1 H    0.997 --    68 C    0.986
   116   1 H    0.998 --    69 C    0.974
   117   1 H    0.998 --    69 C    0.974
   118   1 H    0.998 --    70 C    0.988
   119   1 H    0.997 --    70 C    0.986
   120   1 H    0.998 --    70 C    0.988
   121   1 H    0.998 --    73 C    0.966
   122   1 H    0.998 --    74 C    0.968
   123   1 H    0.998 --    76 C    0.969
   124   1 H    0.999 --    77 C    0.967
   125   1 H    0.998 --    78 C    0.967
   126   1 H    0.998 --    79 C    0.968
   127   1 H    0.998 --    81 C    0.968
   128   1 H    0.998 --    82 C    0.966
   129   1 H    0.998 --    83 C    0.974
   130   1 H    0.998 --    83 C    0.973
   131   1 H    0.999 --    84 C    0.988
   132   1 H    0.999 --    84 C    0.988
   133   1 H    0.997 --    84 C    0.986
   134   1 H    0.998 --    85 C    0.974
   135   1 H    0.998 --    85 C    0.973
   136   1 H    0.999 --    86 C    0.988
   137   1 H    0.998 --    86 C    0.988
   138   1 H    0.997 --    86 C    0.986
 ---------------------------------------------------------------------------

Topologies differ in bond orders
Writing corrected topology to xtbtopo.mol

molecular dipole:
                 x           y           z       tot (Debye)
 q only:       -1.355       2.802       0.102
   full:       -1.552       3.314       0.342       9.341
molecular quadrupole (traceless):
                xx          xy          yy          xz          yz          zz
 q only:      -85.030     -56.835      28.877      29.284      27.707      56.152
  q+dip:      -81.109     -62.609      23.804      26.540      30.605      57.305
   full:      -85.399     -62.525      16.663      32.279      24.728      68.736


           -------------------------------------------------
          | TOTAL ENERGY             -219.768358884197 Eh   |
          | GRADIENT NORM               0.032165588501 Eh/α |
          | HOMO-LUMO GAP               1.124811577060 eV   |
           -------------------------------------------------

------------------------------------------------------------------------
 * finished run on 2021/12/28 at 11:46:53.418     
------------------------------------------------------------------------
 total:
 * wall-time:     0 d,  0 h,  0 min,  0.876 sec
 *  cpu-time:     0 d,  0 h,  0 min,  0.875 sec
 * ratio c/w:     0.999 speedup
 SCF:
 * wall-time:     0 d,  0 h,  0 min,  0.798 sec
 *  cpu-time:     0 d,  0 h,  0 min,  0.798 sec
 * ratio c/w:     0.999 speedup

