      -----------------------------------------------------------      
     |                   =====================                   |     
     |                           x T B                           |     
     |                   =====================                   |     
     |                         S. Grimme                         |     
     |          Mulliken Center for Theoretical Chemistry        |     
     |                    University of Bonn                     |     
      -----------------------------------------------------------      

   * xtb version 6.4.1 (unknown) compiled by 'oda6@login1.crc.pitt.edu' on 2021-06-25

   xtb is free software: you can redistribute it and/or modify it under
   the terms of the GNU Lesser General Public License as published by
   the Free Software Foundation, either version 3 of the License, or
   (at your option) any later version.
   
   xtb is distributed in the hope that it will be useful,
   but WITHOUT ANY WARRANTY; without even the implied warranty of
   MERCHANTABILITY or FITNESS FOR A PARTICULAR PURPOSE.  See the
   GNU Lesser General Public License for more details.
   
   Cite this work as:
   * C. Bannwarth, E. Caldeweyher, S. Ehlert, A. Hansen, P. Pracht,
     J. Seibert, S. Spicher, S. Grimme, WIREs Comput. Mol. Sci., 2020, 11,
     e01493. DOI: 10.1002/wcms.1493
   
   for GFN2-xTB:
   * C. Bannwarth, S. Ehlert and S. Grimme., J. Chem. Theory Comput., 2019,
     15, 1652-1671. DOI: 10.1021/acs.jctc.8b01176
   for GFN1-xTB:
   * S. Grimme, C. Bannwarth, P. Shushkov, J. Chem. Theory Comput., 2017,
     13, 1989-2009. DOI: 10.1021/acs.jctc.7b00118
   for GFN0-xTB:
   * P. Pracht, E. Caldeweyher, S. Ehlert, S. Grimme, ChemRxiv, 2019, preprint.
     DOI: 10.26434/chemrxiv.8326202.v1
   for GFN-FF:
   * S. Spicher and S. Grimme, Angew. Chem. Int. Ed., 2020, 59, 15665-15673.
     DOI: 10.1002/anie.202004239
   
   for DFT-D4:
   * E. Caldeweyher, C. Bannwarth and S. Grimme, J. Chem. Phys., 2017,
     147, 034112. DOI: 10.1063/1.4993215
   * E. Caldeweyher, S. Ehlert, A. Hansen, H. Neugebauer, S. Spicher,
     C. Bannwarth and S. Grimme, J. Chem. Phys., 2019, 150, 154122.
     DOI: 10.1063/1.5090222
   * E. Caldeweyher, J.-M. Mewes, S. Ehlert and S. Grimme, Phys. Chem. Chem. Phys.
     2020, 22, 8499-8512. DOI: 10.1039/D0CP00502A
   
   for sTDA-xTB:
   * S. Grimme and C. Bannwarth, J. Chem. Phys., 2016, 145, 054103.
     DOI: 10.1063/1.4959605
   
   in the mass-spec context:
   * V. Asgeirsson, C. Bauer and S. Grimme, Chem. Sci., 2017, 8, 4879.
     DOI: 10.1039/c7sc00601b
   * J. Koopman and S. Grimme, ACS Omega 2019, 4, 12, 15120-15133.
     DOI: 10.1021/acsomega.9b02011
   
   for metadynamics refer to:
   * S. Grimme, J. Chem. Theory Comput., 2019, 155, 2847-2862
     DOI: 10.1021/acs.jctc.9b00143
   
   for SPH calculations refer to:
   * S. Spicher and S. Grimme, J. Chem. Theory Comput., 2021, 17, 1701-1714
     DOI: 10.1021/acs.jctc.0c01306
   
   with help from (in alphabetical order)
   P. Atkinson, C. Bannwarth, F. Bohle, G. Brandenburg, E. Caldeweyher
   M. Checinski, S. Dohm, S. Ehlert, S. Ehrlich, I. Gerasimov, J. Koopman
   C. Lavigne, S. Lehtola, F. März, M. Müller, F. Musil, H. Neugebauer
   J. Pisarek, C. Plett, P. Pracht, J. Seibert, P. Shushkov, S. Spicher
   M. Stahn, M. Steiner, T. Strunk, J. Stückrath, T. Rose, and J. Unsleber
   
 * started run on 2021/12/28 at 11:49:59.282     

           -------------------------------------------------
          |                Calculation Setup                |
           -------------------------------------------------

          program call               : /ihome/ghutchison/oda6/xtb/xtb-641/bin//xtb P-CIT.mol --sp --alpb hexane
          hostname                   : smp-n64
          coordinate file            : P-CIT.mol
          omp threads                :                     1
          number of atoms            :                   224
          number of electrons        :                   764
          charge                     :                     0
          spin                       :                   0.0
          first test random number   :      0.23641677391502

   ID    Z sym.   atoms
    1    6 C      1-8, 10, 11, 13-16, 19-24, 27-32, 34-39, 45-50, 52-59, 61,
                  62, 64-67, 70-75, 78-83, 85-90, 96-101, 103-110, 112, 113,
                  115-118, 121-126, 129-134, 136-141, 147-152
    2    8 O      9, 12, 60, 63, 111, 114
    3   16 S      17, 25, 33, 51, 68, 76, 84, 102, 119, 127, 135, 153
    4   17 Cl     18, 26, 69, 77, 120, 128
    5    9 F      40, 41, 91, 92, 142, 143
    6    7 N      42-44, 93-95, 144-146
    7    1 H      154-224

           -------------------------------------------------
          |                 G F N 2 - x T B                 |
           -------------------------------------------------

        Reference                      10.1021/acs.jctc.8b01176
      * Hamiltonian:
        H0-scaling (s, p, d)           1.850000    2.230000    2.230000
        zeta-weighting                 0.500000
      * Dispersion:
        s8                             2.700000
        a1                             0.520000
        a2                             5.000000
        s9                             5.000000
      * Repulsion:
        kExp                           1.500000    1.000000
        rExp                           1.000000
      * Coulomb:
        alpha                          2.000000
        third order                    shell-resolved
        anisotropic                    true
        a3                             3.000000
        a5                             4.000000
        cn-shift                       1.200000
        cn-exp                         4.000000
        max-rad                        5.000000

      * Solvation model:               ALPB
        Solvent                        hexane
        Parameter file                 internal GFN2-xTB/ALPB
        Dielectric constant                1.8800E+00
        Reference state                gsolv [1 M gas/solution]
        Free energy shift                  4.8134E-03 Eh       3.0204E+00 kcal/mol
        Temperature                        2.9815E+02 K
        Density                            6.6000E-01 kg/L
        Solvent mass                       8.6180E+01 g/mol
        Interaction kernel             P16
        Born radius scaling (c1)           1.1040E+00
        Born radii integrator          GBOBC
        Born offset                        0.0000E+00 a0       0.0000E+00 AA
        H-bond correction              false
        Ion screening                  false
        Surface tension                    1.0000E-05 Eh       1.5569E+01 dyn/cm
        Grid points                               230 per atom

          ...................................................
          :                      SETUP                      :
          :.................................................:
          :  # basis functions                 791          :
          :  # atomic orbitals                 773          :
          :  # shells                          395          :
          :  # electrons                       764          :
          :  max. iterations                   250          :
          :  Hamiltonian                  GFN2-xTB          :
          :  restarted?                      false          :
          :  GBSA solvation                   true          :
          :  PC potential                    false          :
          :  electronic temp.          300.0000000     K    :
          :  accuracy                    1.0000000          :
          :  -> integral cutoff          0.2500000E+02      :
          :  -> integral neglect         0.1000000E-07      :
          :  -> SCF convergence          0.1000000E-05 Eh   :
          :  -> wf. convergence          0.1000000E-03 e    :
          :  Broyden damping             0.4000000          :
          ...................................................

 iter      E             dE          RMSdq      gap      omega  full diag
   1   -431.2774024 -0.431277E+03  0.398E+00    1.28       0.0  T
   2   -431.5827728 -0.305370E+00  0.237E+00    1.21       1.0  T
   3   -431.5403938  0.423791E-01  0.101E+00    1.20       1.0  T
   4   -431.6389851 -0.985913E-01  0.338E-01    1.13       1.0  T
   5   -431.6483262 -0.934116E-02  0.156E-01    1.15       1.0  T
   6   -431.6500607 -0.173441E-02  0.698E-02    1.16       1.0  T
   7   -431.6503910 -0.330307E-03  0.362E-02    1.16       1.0  T
   8   -431.6504562 -0.652141E-04  0.250E-02    1.16       1.0  T
   9   -431.6504918 -0.356648E-04  0.166E-02    1.16       1.0  T
  10   -431.6505104 -0.185782E-04  0.119E-02    1.16       1.0  T
  11   -431.6505239 -0.135287E-04  0.692E-03    1.16       1.0  T
  12   -431.6505281 -0.411918E-05  0.344E-03    1.16       1.9  T
  13   -431.6505292 -0.115103E-05  0.164E-03    1.16       4.1  T
  14   -431.6505293 -0.121096E-06  0.853E-04    1.16       7.8  T
  15   -431.6505294 -0.348424E-07  0.388E-04    1.16      17.2  T

   *** convergence criteria satisfied after 15 iterations ***

         #    Occupation            Energy/Eh            Energy/eV
      -------------------------------------------------------------
         1        2.0000           -1.0656081             -28.9967
       ...           ...                  ...                  ...
       376        2.0000           -0.3841865             -10.4542
       377        2.0000           -0.3729535             -10.1486
       378        2.0000           -0.3724531             -10.1350
       379        2.0000           -0.3718966             -10.1198
       380        2.0000           -0.3628882              -9.8747
       381        2.0000           -0.3600689              -9.7980
       382        2.0000           -0.3575194              -9.7286 (HOMO)
       383                         -0.3149418              -8.5700 (LUMO)
       384                         -0.3112936              -8.4707
       385                         -0.3068248              -8.3491
       386                         -0.2963639              -8.0645
       387                         -0.2925240              -7.9600
       ...                                ...                  ...
       773                          0.7162119              19.4891
      -------------------------------------------------------------
                  HL-Gap            0.0425776 Eh            1.1586 eV
             Fermi-level           -0.3362078 Eh           -9.1487 eV

 SCC (total)                   0 d,  0 h,  0 min,  3.758 sec
 SCC setup                      ...        0 min,  0.017 sec (  0.440%)
 Dispersion                     ...        0 min,  0.024 sec (  0.648%)
 classical contributions        ...        0 min,  0.001 sec (  0.033%)
 integral evaluation            ...        0 min,  0.208 sec (  5.530%)
 iterations                     ...        0 min,  2.924 sec ( 77.809%)
 molecular gradient             ...        0 min,  0.558 sec ( 14.846%)
 printout                       ...        0 min,  0.026 sec (  0.692%)

         :::::::::::::::::::::::::::::::::::::::::::::::::::::
         ::                     SUMMARY                     ::
         :::::::::::::::::::::::::::::::::::::::::::::::::::::
         :: total energy            -426.132265971990 Eh    ::
         :: total w/o Gsasa/hb      -425.982166675104 Eh    ::
         :: gradient norm              0.019527713101 Eh/a0 ::
         :: HOMO-LUMO gap              1.158595973412 eV    ::
         ::.................................................::
         :: SCC energy              -431.650529370685 Eh    ::
         :: -> isotropic ES            0.225107913485 Eh    ::
         :: -> anisotropic ES         -0.009213419648 Eh    ::
         :: -> anisotropic XC          0.121965125021 Eh    ::
         :: -> dispersion             -0.350018374079 Eh    ::
         :: -> Gsolv                  -0.182059900401 Eh    ::
         ::    -> Gelec               -0.031960603515 Eh    ::
         ::    -> Gsasa               -0.154912652706 Eh    ::
         ::    -> Ghb                  0.000000000000 Eh    ::
         ::    -> Gshift               0.004813355820 Eh    ::
         :: repulsion energy           5.525122120272 Eh    ::
         :: add. restraining           0.000000000000 Eh    ::
         :: total charge               0.000000000019 e     ::
         :::::::::::::::::::::::::::::::::::::::::::::::::::::

           -------------------------------------------------
          |                Property Printout                |
           -------------------------------------------------

    * Orbital Energies and Occupations

         #    Occupation            Energy/Eh            Energy/eV
      -------------------------------------------------------------
         1        2.0000           -1.0656081             -28.9967
       ...           ...                  ...                  ...
       370        2.0000           -0.3975256             -10.8172
       371        2.0000           -0.3962247             -10.7818
       372        2.0000           -0.3931527             -10.6982
       373        2.0000           -0.3914460             -10.6518
       374        2.0000           -0.3890042             -10.5853
       375        2.0000           -0.3865260             -10.5179
       376        2.0000           -0.3841865             -10.4542
       377        2.0000           -0.3729535             -10.1486
       378        2.0000           -0.3724531             -10.1350
       379        2.0000           -0.3718966             -10.1198
       380        2.0000           -0.3628882              -9.8747
       381        2.0000           -0.3600689              -9.7980
       382        2.0000           -0.3575194              -9.7286 (HOMO)
       383                         -0.3149418              -8.5700 (LUMO)
       384                         -0.3112936              -8.4707
       385                         -0.3068248              -8.3491
       386                         -0.2963639              -8.0645
       387                         -0.2925240              -7.9600
       388                         -0.2899388              -7.8896
       389                         -0.2689832              -7.3194
       390                         -0.2680858              -7.2950
       391                         -0.2642761              -7.1913
       392                         -0.2639247              -7.1818
       393                         -0.2638119              -7.1787
       ...                                ...                  ...
       773                          0.7162119              19.4891
      -------------------------------------------------------------
                  HL-Gap            0.0425776 Eh            1.1586 eV
             Fermi-level           -0.3362078 Eh           -9.1487 eV

     #   Z          covCN         q      C6AA      α(0)
     1   6 C        3.100    -0.019    28.343     8.724
     2   6 C        3.118     0.112    25.380     8.251
     3   6 C        2.979    -0.016    28.403     8.742
     4   6 C        3.085    -0.018    28.349     8.728
     5   6 C        3.108     0.116    25.318     8.244
     6   6 C        2.979    -0.015    28.392     8.740
     7   6 C        2.982    -0.069    29.723     8.943
     8   6 C        3.052     0.082    26.121     8.382
     9   8 O        1.722    -0.208    17.450     5.640
    10   6 C        2.986    -0.077    29.913     8.972
    11   6 C        3.118     0.125    25.110     8.207
    12   8 O        1.721    -0.222    17.680     5.677
    13   6 C        2.990     0.024    27.465     8.597
    14   6 C        3.129    -0.065    29.401     8.878
    15   6 C        3.103     0.077    26.166     8.382
    16   6 C        3.008     0.011    27.751     8.641
    17  16 S        2.380    -0.016   141.735    20.037
    18  17 Cl       0.944    -0.203   105.547    15.717
    19   6 C        3.824    -0.055    21.534     6.604
    20   6 C        3.754    -0.104    22.546     6.771
    21   6 C        2.991     0.024    27.461     8.596
    22   6 C        3.129    -0.064    29.379     8.874
    23   6 C        3.104     0.076    26.169     8.382
    24   6 C        3.008     0.011    27.744     8.640
    25  16 S        2.379    -0.017   141.743    20.038
    26  17 Cl       0.944    -0.202   105.524    15.716
    27   6 C        3.823    -0.054    21.520     6.601
    28   6 C        3.754    -0.103    22.531     6.768
    29   6 C        2.991     0.012    27.733     8.639
    30   6 C        3.093    -0.043    28.964     8.821
    31   6 C        3.094    -0.045    29.006     8.827
    32   6 C        2.993     0.030    27.322     8.574
    33  16 S        2.366     0.009   140.705    19.964
    34   6 C        2.997    -0.019    28.469     8.752
    35   6 C        2.790     0.144    24.853     8.166
    36   6 C        2.790     0.143    24.869     8.169
    37   6 C        2.985    -0.017    28.438     8.748
    38   6 C        3.161     0.050    26.568     8.426
    39   6 C        3.179     0.051    26.450     8.397
    40   9 F        0.787    -0.221    11.450     3.997
    41   9 F        0.795    -0.211    11.348     3.979
    42   7 N        1.992    -0.258    27.518     7.780
    43   7 N        3.269     0.244    17.286     6.175
    44   7 N        2.013    -0.244    27.157     7.729
    45   6 C        3.745    -0.026    21.111     6.554
    46   6 C        3.754    -0.119    22.845     6.815
    47   6 C        2.993     0.029    27.333     8.576
    48   6 C        3.097    -0.049    29.087     8.839
    49   6 C        3.095    -0.042    28.935     8.816
    50   6 C        2.991     0.012    27.747     8.641
    51  16 S        2.345     0.012   140.571    19.955
    52   6 C        3.087    -0.017    28.335     8.726
    53   6 C        3.104     0.116    25.317     8.245
    54   6 C        2.979    -0.017    28.437     8.747
    55   6 C        3.085    -0.017    28.341     8.727
    56   6 C        3.108     0.116    25.309     8.242
    57   6 C        2.979    -0.016    28.399     8.741
    58   6 C        2.985    -0.075    29.873     8.966
    59   6 C        3.122     0.124    25.110     8.206
    60   8 O        1.720    -0.223    17.700     5.680
    61   6 C        2.985    -0.076    29.895     8.969
    62   6 C        3.115     0.125    25.115     8.209
    63   8 O        1.721    -0.221    17.662     5.674
    64   6 C        2.991     0.024    27.458     8.596
    65   6 C        3.129    -0.065    29.398     8.877
    66   6 C        3.103     0.076    26.179     8.384
    67   6 C        3.008     0.011    27.760     8.643
    68  16 S        2.379    -0.016   141.700    20.035
    69  17 Cl       0.944    -0.204   105.562    15.719
    70   6 C        3.823    -0.054    21.529     6.603
    71   6 C        3.754    -0.104    22.548     6.771
    72   6 C        2.991     0.023    27.473     8.598
    73   6 C        3.128    -0.064    29.379     8.874
    74   6 C        3.103     0.076    26.174     8.383
    75   6 C        3.008     0.012    27.726     8.637
    76  16 S        2.377    -0.012   141.547    20.024
    77  17 Cl       0.944    -0.202   105.510    15.715
    78   6 C        3.824    -0.054    21.522     6.602
    79   6 C        3.754    -0.104    22.539     6.770
    80   6 C        2.990     0.013    27.723     8.637
    81   6 C        3.093    -0.043    28.960     8.820
    82   6 C        3.093    -0.045    29.005     8.827
    83   6 C        2.994     0.030    27.320     8.574
    84  16 S        2.353     0.010   140.637    19.960
    85   6 C        2.995    -0.019    28.469     8.752
    86   6 C        2.790     0.144    24.854     8.166
    87   6 C        2.791     0.143    24.869     8.169
    88   6 C        2.985    -0.018    28.440     8.748
    89   6 C        3.161     0.050    26.565     8.425
    90   6 C        3.178     0.051    26.452     8.398
    91   9 F        0.787    -0.221    11.450     3.997
    92   9 F        0.795    -0.211    11.345     3.979
    93   7 N        1.992    -0.258    27.502     7.778
    94   7 N        3.270     0.244    17.288     6.175
    95   7 N        2.006    -0.247    27.219     7.738
    96   6 C        3.746    -0.027    21.121     6.556
    97   6 C        3.754    -0.118    22.813     6.811
    98   6 C        2.993     0.029    27.335     8.576
    99   6 C        3.097    -0.049    29.086     8.839
   100   6 C        3.095    -0.043    28.943     8.817
   101   6 C        2.991     0.012    27.748     8.641
   102  16 S        2.348     0.011   140.598    19.957
   103   6 C        3.088    -0.017    28.339     8.726
   104   6 C        3.104     0.116    25.316     8.245
   105   6 C        2.979    -0.018    28.443     8.748
   106   6 C        3.085    -0.017    28.338     8.726
   107   6 C        3.110     0.116    25.305     8.241
   108   6 C        2.980    -0.016    28.396     8.741
   109   6 C        2.985    -0.075    29.872     8.965
   110   6 C        3.123     0.124    25.113     8.207
   111   8 O        1.720    -0.223    17.703     5.681
   112   6 C        2.987    -0.077    29.920     8.973
   113   6 C        3.121     0.125    25.090     8.203
   114   8 O        1.720    -0.221    17.665     5.675
   115   6 C        2.990     0.024    27.460     8.596
   116   6 C        3.130    -0.065    29.404     8.878
   117   6 C        3.103     0.076    26.185     8.385
   118   6 C        3.007     0.010    27.767     8.644
   119  16 S        2.381    -0.016   141.713    20.036
   120  17 Cl       0.944    -0.205   105.597    15.721
   121   6 C        3.824    -0.055    21.537     6.604
   122   6 C        3.754    -0.106    22.581     6.776
   123   6 C        2.992     0.023    27.473     8.598
   124   6 C        3.128    -0.064    29.372     8.874
   125   6 C        3.103     0.076    26.172     8.383
   126   6 C        3.008     0.012    27.725     8.637
   127  16 S        2.378    -0.012   141.551    20.024
   128  17 Cl       0.944    -0.202   105.508    15.714
   129   6 C        3.824    -0.054    21.521     6.602
   130   6 C        3.754    -0.104    22.541     6.770
   131   6 C        2.990     0.012    27.745     8.640
   132   6 C        3.092    -0.043    28.959     8.820
   133   6 C        3.094    -0.045    29.008     8.827
   134   6 C        2.993     0.030    27.316     8.573
   135  16 S        2.379     0.005   140.845    19.974
   136   6 C        2.998    -0.020    28.497     8.757
   137   6 C        2.791     0.144    24.862     8.168
   138   6 C        2.790     0.142    24.887     8.172
   139   6 C        2.982    -0.017    28.437     8.747
   140   6 C        3.159     0.049    26.589     8.430
   141   6 C        3.181     0.051    26.444     8.394
   142   9 F        0.787    -0.221    11.457     3.998
   143   9 F        0.794    -0.213    11.370     3.983
   144   7 N        1.993    -0.260    27.554     7.785
   145   7 N        3.268     0.243    17.297     6.177
   146   7 N        2.021    -0.243    27.124     7.725
   147   6 C        3.745    -0.025    21.096     6.552
   148   6 C        3.754    -0.121    22.872     6.820
   149   6 C        2.994     0.024    27.448     8.594
   150   6 C        3.110    -0.051    29.119     8.841
   151   6 C        3.109    -0.045    28.958     8.817
   152   6 C        2.943    -0.022    28.550     8.763
   153  16 S        2.324     0.004   140.887    19.977
   154   1 H        0.927     0.066     2.125     2.279
   155   1 H        0.926     0.065     2.140     2.287
   156   1 H        0.927     0.070     2.082     2.256
   157   1 H        0.926     0.071     2.077     2.254
   158   1 H        0.924     0.056     2.249     2.345
   159   1 H        0.924     0.057     2.234     2.337
   160   1 H        0.925     0.046     2.375     2.410
   161   1 H        0.925     0.047     2.362     2.404
   162   1 H        0.925     0.044     2.398     2.422
   163   1 H        0.926     0.069     2.096     2.264
   164   1 H        0.924     0.057     2.237     2.339
   165   1 H        0.924     0.055     2.255     2.348
   166   1 H        0.925     0.044     2.397     2.421
   167   1 H        0.925     0.047     2.357     2.401
   168   1 H        0.925     0.045     2.387     2.416
   169   1 H        0.926     0.056     2.247     2.344
   170   1 H        0.926     0.067     2.121     2.277
   171   1 H        0.924     0.087     1.913     2.163
   172   1 H        0.924     0.089     1.887     2.148
   173   1 H        0.925     0.070     2.080     2.255
   174   1 H        0.925     0.066     2.133     2.284
   175   1 H        0.925     0.056     2.245     2.343
   176   1 H        0.926     0.074     2.043     2.235
   177   1 H        0.926     0.055     2.254     2.348
   178   1 H        0.927     0.069     2.093     2.262
   179   1 H        0.927     0.069     2.093     2.262
   180   1 H        0.926     0.068     2.103     2.268
   181   1 H        0.924     0.056     2.250     2.346
   182   1 H        0.924     0.057     2.238     2.340
   183   1 H        0.925     0.046     2.372     2.408
   184   1 H        0.925     0.047     2.362     2.403
   185   1 H        0.925     0.044     2.403     2.424
   186   1 H        0.926     0.069     2.095     2.263
   187   1 H        0.924     0.057     2.237     2.339
   188   1 H        0.924     0.056     2.244     2.343
   189   1 H        0.925     0.043     2.406     2.425
   190   1 H        0.925     0.047     2.352     2.398
   191   1 H        0.925     0.047     2.362     2.403
   192   1 H        0.926     0.057     2.235     2.338
   193   1 H        0.926     0.067     2.117     2.275
   194   1 H        0.924     0.088     1.895     2.153
   195   1 H        0.924     0.089     1.890     2.150
   196   1 H        0.925     0.066     2.132     2.284
   197   1 H        0.925     0.066     2.131     2.283
   198   1 H        0.925     0.057     2.234     2.337
   199   1 H        0.926     0.074     2.046     2.237
   200   1 H        0.926     0.056     2.251     2.346
   201   1 H        0.927     0.069     2.096     2.264
   202   1 H        0.927     0.070     2.083     2.257
   203   1 H        0.926     0.069     2.099     2.266
   204   1 H        0.924     0.057     2.238     2.339
   205   1 H        0.924     0.056     2.242     2.342
   206   1 H        0.925     0.043     2.406     2.426
   207   1 H        0.925     0.046     2.367     2.406
   208   1 H        0.925     0.048     2.342     2.393
   209   1 H        0.926     0.069     2.098     2.265
   210   1 H        0.924     0.057     2.237     2.339
   211   1 H        0.924     0.056     2.245     2.343
   212   1 H        0.925     0.043     2.405     2.425
   213   1 H        0.925     0.047     2.352     2.399
   214   1 H        0.925     0.047     2.359     2.402
   215   1 H        0.926     0.055     2.255     2.348
   216   1 H        0.926     0.066     2.130     2.282
   217   1 H        0.924     0.085     1.929     2.172
   218   1 H        0.924     0.089     1.893     2.152
   219   1 H        0.925     0.073     2.050     2.239
   220   1 H        0.925     0.066     2.134     2.285
   221   1 H        0.925     0.056     2.243     2.342
   222   1 H        0.926     0.068     2.111     2.272
   223   1 H        0.926     0.046     2.365     2.405
   224   1 H        0.926     0.054     2.270     2.356

 Mol. C6AA /au·bohr⁶  :     970209.938107
 Mol. C8AA /au·bohr⁸  :   28285528.165739
 Mol. α(0) /au        :       1568.033042


Wiberg/Mayer (AO) data.
largest (>0.10) Wiberg bond orders for each atom

 ---------------------------------------------------------------------------
     #   Z sym  total        # sym  WBO       # sym  WBO       # sym  WBO
 ---------------------------------------------------------------------------
     1   6 C    3.968 --     2 C    1.274     6 C    1.269     7 C    1.211
     2   6 C    3.916 --     3 C    1.305     1 C    1.274     9 O    1.084
     3   6 C    3.928 --     2 C    1.305     4 C    1.267    13 C    1.140
     4   6 C    3.980 --     3 C    1.267     5 C    1.253    10 C    1.244
     5   6 C    3.908 --     6 C    1.320     4 C    1.253    12 O    1.081
     6   6 C    3.941 --     5 C    1.320     1 C    1.269    21 C    1.131
     7   6 C    3.979 --     8 C    1.659     1 C    1.211   154 H    0.962
     8   6 C    3.881 --     7 C    1.659     9 O    1.100   155 H    0.964
     9   8 O    2.398 --     8 C    1.100     2 C    1.084
    10   6 C    3.957 --    11 C    1.518     4 C    1.244   156 H    0.959
    11   6 C    3.895 --    10 C    1.518    29 C    1.147    12 O    1.061
    12   8 O    2.373 --     5 C    1.081    11 C    1.061
    13   6 C    3.950 --    14 C    1.509     3 C    1.140    17 S    1.121
    14   6 C    3.938 --    13 C    1.509    15 C    1.277   157 H    0.957
    15   6 C    3.893 --    16 C    1.522    14 C    1.277    18 Cl   0.951
    16   6 C    3.921 --    15 C    1.522    17 S    1.162    19 C    1.028
    17  16 S    2.591 --    16 C    1.162    13 C    1.121
    18  17 Cl   1.085 --    15 C    0.951
    19   6 C    3.993 --    16 C    1.028    20 C    0.995   158 H    0.970
                           159 H    0.966
    20   6 C    3.990 --    19 C    0.995   162 H    0.988   160 H    0.987
                           161 H    0.985
    21   6 C    3.949 --    22 C    1.516     6 C    1.131    25 S    1.123
    22   6 C    3.944 --    21 C    1.516    23 C    1.275   163 H    0.957
    23   6 C    3.893 --    24 C    1.525    22 C    1.275    26 Cl   0.951
    24   6 C    3.926 --    23 C    1.525    25 S    1.162    27 C    1.028
    25  16 S    2.594 --    24 C    1.162    21 C    1.123
    26  17 Cl   1.086 --    23 C    0.951
    27   6 C    3.993 --    24 C    1.028    28 C    0.994   165 H    0.971
                           164 H    0.965
    28   6 C    3.991 --    27 C    0.994   166 H    0.988   168 H    0.988
                           167 H    0.985
    29   6 C    3.929 --    30 C    1.458    33 S    1.152    11 C    1.147
    30   6 C    3.964 --    29 C    1.458    31 C    1.361   169 H    0.963
    31   6 C    3.947 --    32 C    1.458    30 C    1.361   170 H    0.960
    32   6 C    3.933 --    31 C    1.458    34 C    1.158    33 S    1.137
    33  16 S    2.625 --    29 C    1.152    32 C    1.137
    34   6 C    3.938 --    35 C    1.372    39 C    1.194    32 C    1.158
    35   6 C    3.863 --    34 C    1.372    36 C    1.307    40 F    0.958
    36   6 C    3.860 --    37 C    1.374    35 C    1.307    41 F    0.957
    37   6 C    3.937 --    36 C    1.374    38 C    1.190    47 C    1.160
    38   6 C    3.972 --    42 N    1.348    39 C    1.224    37 C    1.190
    39   6 C    3.973 --    44 N    1.351    38 C    1.224    34 C    1.194
    40   9 F    1.090 --    35 C    0.958
    41   9 F    1.112 --    36 C    0.957
    42   7 N    2.986 --    38 C    1.348    43 N    1.295    44 N    0.207
    43   7 N    3.761 --    42 N    1.295    44 N    1.294    45 C    0.976
    44   7 N    3.020 --    39 C    1.351    43 N    1.294    42 N    0.207
    45   6 C    3.951 --    46 C    1.002    43 N    0.976   172 H    0.968
                           171 H    0.956
    46   6 C    3.982 --    45 C    1.002   175 H    0.986   173 H    0.983
                           174 H    0.982
    47   6 C    3.931 --    48 C    1.450    37 C    1.160    51 S    1.141
    48   6 C    3.951 --    47 C    1.450    49 C    1.368   176 H    0.955
    49   6 C    3.962 --    50 C    1.452    48 C    1.368   177 H    0.963
    50   6 C    3.930 --    49 C    1.452    51 S    1.155    59 C    1.150
    51  16 S    2.615 --    50 C    1.155    47 C    1.141
    52   6 C    3.968 --    57 C    1.259    53 C    1.252    58 C    1.249
    53   6 C    3.906 --    54 C    1.320    52 C    1.252    60 O    1.081
    54   6 C    3.927 --    53 C    1.320    55 C    1.258    64 C    1.135
    55   6 C    3.968 --    54 C    1.258    56 C    1.253    61 C    1.249
    56   6 C    3.907 --    57 C    1.320    55 C    1.253    63 O    1.082
    57   6 C    3.928 --    56 C    1.320    52 C    1.259    72 C    1.135
    58   6 C    3.957 --    59 C    1.514    52 C    1.249   178 H    0.960
    59   6 C    3.889 --    58 C    1.514    50 C    1.150    60 O    1.059
    60   8 O    2.371 --    53 C    1.081    59 C    1.059
    61   6 C    3.957 --    62 C    1.513    55 C    1.249   179 H    0.960
    62   6 C    3.889 --    61 C    1.513    80 C    1.148    63 O    1.061
    63   8 O    2.374 --    56 C    1.082    62 C    1.061
    64   6 C    3.950 --    65 C    1.513    54 C    1.135    68 S    1.122
    65   6 C    3.941 --    64 C    1.513    66 C    1.275   180 H    0.957
    66   6 C    3.893 --    67 C    1.525    65 C    1.275    69 Cl   0.950
    67   6 C    3.923 --    66 C    1.525    68 S    1.161    70 C    1.028
    68  16 S    2.590 --    67 C    1.161    64 C    1.122
    69  17 Cl   1.084 --    66 C    0.950
    70   6 C    3.993 --    67 C    1.028    71 C    0.995   181 H    0.969
                           182 H    0.966
    71   6 C    3.990 --    70 C    0.995   185 H    0.988   183 H    0.987
                           184 H    0.985
    72   6 C    3.949 --    73 C    1.511    57 C    1.135    76 S    1.124
    73   6 C    3.942 --    72 C    1.511    74 C    1.277   186 H    0.957
    74   6 C    3.893 --    75 C    1.522    73 C    1.277    77 Cl   0.951
    75   6 C    3.923 --    74 C    1.522    76 S    1.164    78 C    1.028
    76  16 S    2.596 --    75 C    1.164    72 C    1.124
    77  17 Cl   1.086 --    74 C    0.951
    78   6 C    3.993 --    75 C    1.028    79 C    0.994   188 H    0.969
                           187 H    0.966
    79   6 C    3.990 --    78 C    0.994   189 H    0.988   191 H    0.987
                           190 H    0.985
    80   6 C    3.929 --    81 C    1.455    84 S    1.153    62 C    1.148
    81   6 C    3.963 --    80 C    1.455    82 C    1.363   192 H    0.962
    82   6 C    3.948 --    83 C    1.458    81 C    1.363   193 H    0.960
    83   6 C    3.932 --    82 C    1.458    85 C    1.157    84 S    1.138
    84  16 S    2.620 --    80 C    1.153    83 C    1.138
    85   6 C    3.937 --    86 C    1.372    90 C    1.195    83 C    1.157
    86   6 C    3.862 --    85 C    1.372    87 C    1.307    91 F    0.958
    87   6 C    3.860 --    88 C    1.374    86 C    1.307    92 F    0.957
    88   6 C    3.937 --    87 C    1.374    89 C    1.190    98 C    1.160
    89   6 C    3.972 --    93 N    1.349    90 C    1.223    88 C    1.190
    90   6 C    3.973 --    95 N    1.351    89 C    1.223    85 C    1.195
    91   9 F    1.090 --    86 C    0.958
    92   9 F    1.112 --    87 C    0.957
    93   7 N    2.986 --    89 C    1.349    94 N    1.295    95 N    0.207
    94   7 N    3.761 --    93 N    1.295    95 N    1.294    96 C    0.976
    95   7 N    3.015 --    90 C    1.351    94 N    1.294    93 N    0.207
    96   6 C    3.951 --    97 C    0.999    94 N    0.976   195 H    0.967
                           194 H    0.960
    97   6 C    3.982 --    96 C    0.999   198 H    0.986   196 H    0.984
                           197 H    0.981
    98   6 C    3.932 --    99 C    1.451    88 C    1.160   102 S    1.141
    99   6 C    3.951 --    98 C    1.451   100 C    1.367   199 H    0.955
   100   6 C    3.962 --   101 C    1.453    99 C    1.367   200 H    0.963
   101   6 C    3.930 --   100 C    1.453   102 S    1.155   110 C    1.149
   102  16 S    2.616 --   101 C    1.155    98 C    1.141
   103   6 C    3.968 --   108 C    1.259   104 C    1.253   109 C    1.249
   104   6 C    3.907 --   105 C    1.319   103 C    1.253   111 O    1.081
   105   6 C    3.928 --   104 C    1.319   106 C    1.258   115 C    1.137
   106   6 C    3.968 --   105 C    1.258   107 C    1.251   112 C    1.251
   107   6 C    3.907 --   108 C    1.322   106 C    1.251   114 O    1.081
   108   6 C    3.927 --   107 C    1.322   103 C    1.259   123 C    1.133
   109   6 C    3.958 --   110 C    1.515   103 C    1.249   201 H    0.960
   110   6 C    3.889 --   109 C    1.515   101 C    1.149   111 O    1.059
   111   8 O    2.371 --   104 C    1.081   110 C    1.059
   112   6 C    3.957 --   113 C    1.511   106 C    1.251   202 H    0.958
   113   6 C    3.889 --   112 C    1.511   131 C    1.150   114 O    1.062
   114   8 O    2.374 --   107 C    1.081   113 C    1.062
   115   6 C    3.950 --   116 C    1.513   105 C    1.137   119 S    1.122
   116   6 C    3.940 --   115 C    1.513   117 C    1.274   203 H    0.957
   117   6 C    3.892 --   118 C    1.527   116 C    1.274   120 Cl   0.949
   118   6 C    3.923 --   117 C    1.527   119 S    1.159   121 C    1.028
   119  16 S    2.590 --   118 C    1.159   115 C    1.122
   120  17 Cl   1.083 --   117 C    0.949
   121   6 C    3.993 --   118 C    1.028   122 C    0.997   204 H    0.967
                           205 H    0.965
   122   6 C    3.991 --   121 C    0.997   206 H    0.988   208 H    0.986
                           207 H    0.985
   123   6 C    3.949 --   124 C    1.513   108 C    1.133   127 S    1.123
   124   6 C    3.943 --   123 C    1.513   125 C    1.276   209 H    0.957
   125   6 C    3.893 --   126 C    1.523   124 C    1.276   128 Cl   0.951
   126   6 C    3.924 --   125 C    1.523   127 S    1.164   129 C    1.028
   127  16 S    2.595 --   126 C    1.164   123 C    1.123
   128  17 Cl   1.086 --   125 C    0.951
   129   6 C    3.993 --   126 C    1.028   130 C    0.994   211 H    0.969
                           210 H    0.966
   130   6 C    3.990 --   129 C    0.994   212 H    0.988   214 H    0.987
                           213 H    0.985
   131   6 C    3.931 --   132 C    1.459   113 C    1.150   135 S    1.149
   132   6 C    3.963 --   131 C    1.459   133 C    1.359   215 H    0.963
   133   6 C    3.948 --   134 C    1.460   132 C    1.359   216 H    0.960
   134   6 C    3.933 --   133 C    1.460   136 C    1.156   135 S    1.138
   135  16 S    2.628 --   131 C    1.149   134 C    1.138
   136   6 C    3.944 --   137 C    1.377   141 C    1.194   134 C    1.156
   137   6 C    3.862 --   136 C    1.377   138 C    1.300   142 F    0.958
   138   6 C    3.872 --   139 C    1.382   137 C    1.300   143 F    0.957
   139   6 C    3.937 --   138 C    1.382   140 C    1.192   149 C    1.151
   140   6 C    3.975 --   144 N    1.346   141 C    1.225   139 C    1.192
   141   6 C    3.974 --   146 N    1.350   140 C    1.225   136 C    1.194
   142   9 F    1.090 --   137 C    0.958
   143   9 F    1.110 --   138 C    0.957
   144   7 N    2.985 --   140 C    1.346   145 N    1.296   146 N    0.207
   145   7 N    3.762 --   144 N    1.296   146 N    1.293   147 C    0.975
   146   7 N    3.026 --   141 C    1.350   145 N    1.293   144 N    0.207
   147   6 C    3.952 --   148 C    1.006   145 N    0.975   218 H    0.968
                           217 H    0.954
   148   6 C    3.983 --   147 C    1.006   221 H    0.986   219 H    0.982
                           220 H    0.982
   149   6 C    3.949 --   150 C    1.485   139 C    1.151   153 S    1.137
   150   6 C    3.951 --   149 C    1.485   151 C    1.322   222 H    0.956
   151   6 C    3.983 --   152 C    1.578   150 C    1.322   223 H    0.965
   152   6 C    3.925 --   151 C    1.578   153 S    1.224   224 H    0.970
   153  16 S    2.650 --   152 C    1.224   149 C    1.137
   154   1 H    0.995 --     7 C    0.962
   155   1 H    0.995 --     8 C    0.964
   156   1 H    0.994 --    10 C    0.959
   157   1 H    0.995 --    14 C    0.957
   158   1 H    0.996 --    19 C    0.970
   159   1 H    0.996 --    19 C    0.966
   160   1 H    0.998 --    20 C    0.987
   161   1 H    0.997 --    20 C    0.985
   162   1 H    0.998 --    20 C    0.988
   163   1 H    0.995 --    22 C    0.957
   164   1 H    0.996 --    27 C    0.965
   165   1 H    0.996 --    27 C    0.971
   166   1 H    0.998 --    28 C    0.988
   167   1 H    0.997 --    28 C    0.985
   168   1 H    0.998 --    28 C    0.988
   169   1 H    0.996 --    30 C    0.963
   170   1 H    0.995 --    31 C    0.960
   171   1 H    0.989 --    45 C    0.956
   172   1 H    0.992 --    45 C    0.968
   173   1 H    0.995 --    46 C    0.983
   174   1 H    0.995 --    46 C    0.982
   175   1 H    0.997 --    46 C    0.986
   176   1 H    0.994 --    48 C    0.955
   177   1 H    0.997 --    49 C    0.963
   178   1 H    0.995 --    58 C    0.960
   179   1 H    0.995 --    61 C    0.960
   180   1 H    0.995 --    65 C    0.957
   181   1 H    0.996 --    70 C    0.969
   182   1 H    0.996 --    70 C    0.966
   183   1 H    0.998 --    71 C    0.987
   184   1 H    0.997 --    71 C    0.985
   185   1 H    0.998 --    71 C    0.988
   186   1 H    0.995 --    73 C    0.957
   187   1 H    0.996 --    78 C    0.966
   188   1 H    0.996 --    78 C    0.969
   189   1 H    0.998 --    79 C    0.988
   190   1 H    0.997 --    79 C    0.985
   191   1 H    0.998 --    79 C    0.987
   192   1 H    0.996 --    81 C    0.962
   193   1 H    0.995 --    82 C    0.960
   194   1 H    0.990 --    96 C    0.960
   195   1 H    0.991 --    96 C    0.967
   196   1 H    0.996 --    97 C    0.984
   197   1 H    0.995 --    97 C    0.981
   198   1 H    0.997 --    97 C    0.986
   199   1 H    0.994 --    99 C    0.955
   200   1 H    0.996 --   100 C    0.963
   201   1 H    0.995 --   109 C    0.960
   202   1 H    0.994 --   112 C    0.958
   203   1 H    0.995 --   116 C    0.957
   204   1 H    0.996 --   121 C    0.967
   205   1 H    0.995 --   121 C    0.965
   206   1 H    0.998 --   122 C    0.988
   207   1 H    0.997 --   122 C    0.985
   208   1 H    0.998 --   122 C    0.986
   209   1 H    0.995 --   124 C    0.957
   210   1 H    0.996 --   129 C    0.966
   211   1 H    0.996 --   129 C    0.969
   212   1 H    0.998 --   130 C    0.988
   213   1 H    0.997 --   130 C    0.985
   214   1 H    0.998 --   130 C    0.987
   215   1 H    0.996 --   132 C    0.963
   216   1 H    0.995 --   133 C    0.960
   217   1 H    0.989 --   147 C    0.954
   218   1 H    0.992 --   147 C    0.968
   219   1 H    0.995 --   148 C    0.982
   220   1 H    0.995 --   148 C    0.982
   221   1 H    0.997 --   148 C    0.986
   222   1 H    0.995 --   150 C    0.956
   223   1 H    0.997 --   151 C    0.965
   224   1 H    0.997 --   152 C    0.970
 ---------------------------------------------------------------------------

Topologies differ in bond orders
Writing corrected topology to xtbtopo.mol

molecular dipole:
                 x           y           z       tot (Debye)
 q only:        1.186      -0.890       7.457
   full:        0.908      -0.560       6.273      16.172
molecular quadrupole (traceless):
                xx          xy          yy          xz          yz          zz
 q only:      112.705      58.528      90.097    -706.532     -95.482    -202.802
  q+dip:      108.780      34.200      56.127    -585.833     -97.662    -164.907
   full:       99.274      23.741      68.698    -585.424     -91.157    -167.972


           -------------------------------------------------
          | TOTAL ENERGY             -426.132265971990 Eh   |
          | GRADIENT NORM               0.019527713101 Eh/α |
          | HOMO-LUMO GAP               1.158595973412 eV   |
           -------------------------------------------------

------------------------------------------------------------------------
 * finished run on 2021/12/28 at 11:50:03.251     
------------------------------------------------------------------------
 total:
 * wall-time:     0 d,  0 h,  0 min,  3.969 sec
 *  cpu-time:     0 d,  0 h,  0 min,  3.957 sec
 * ratio c/w:     0.997 speedup
 SCF:
 * wall-time:     0 d,  0 h,  0 min,  3.768 sec
 *  cpu-time:     0 d,  0 h,  0 min,  3.762 sec
 * ratio c/w:     0.998 speedup

