      -----------------------------------------------------------      
     |                   =====================                   |     
     |                           x T B                           |     
     |                   =====================                   |     
     |                         S. Grimme                         |     
     |          Mulliken Center for Theoretical Chemistry        |     
     |                    University of Bonn                     |     
      -----------------------------------------------------------      

   * xtb version 6.4.1 (unknown) compiled by 'oda6@login1.crc.pitt.edu' on 2021-06-25

   xtb is free software: you can redistribute it and/or modify it under
   the terms of the GNU Lesser General Public License as published by
   the Free Software Foundation, either version 3 of the License, or
   (at your option) any later version.
   
   xtb is distributed in the hope that it will be useful,
   but WITHOUT ANY WARRANTY; without even the implied warranty of
   MERCHANTABILITY or FITNESS FOR A PARTICULAR PURPOSE.  See the
   GNU Lesser General Public License for more details.
   
   Cite this work as:
   * C. Bannwarth, E. Caldeweyher, S. Ehlert, A. Hansen, P. Pracht,
     J. Seibert, S. Spicher, S. Grimme, WIREs Comput. Mol. Sci., 2020, 11,
     e01493. DOI: 10.1002/wcms.1493
   
   for GFN2-xTB:
   * C. Bannwarth, S. Ehlert and S. Grimme., J. Chem. Theory Comput., 2019,
     15, 1652-1671. DOI: 10.1021/acs.jctc.8b01176
   for GFN1-xTB:
   * S. Grimme, C. Bannwarth, P. Shushkov, J. Chem. Theory Comput., 2017,
     13, 1989-2009. DOI: 10.1021/acs.jctc.7b00118
   for GFN0-xTB:
   * P. Pracht, E. Caldeweyher, S. Ehlert, S. Grimme, ChemRxiv, 2019, preprint.
     DOI: 10.26434/chemrxiv.8326202.v1
   for GFN-FF:
   * S. Spicher and S. Grimme, Angew. Chem. Int. Ed., 2020, 59, 15665-15673.
     DOI: 10.1002/anie.202004239
   
   for DFT-D4:
   * E. Caldeweyher, C. Bannwarth and S. Grimme, J. Chem. Phys., 2017,
     147, 034112. DOI: 10.1063/1.4993215
   * E. Caldeweyher, S. Ehlert, A. Hansen, H. Neugebauer, S. Spicher,
     C. Bannwarth and S. Grimme, J. Chem. Phys., 2019, 150, 154122.
     DOI: 10.1063/1.5090222
   * E. Caldeweyher, J.-M. Mewes, S. Ehlert and S. Grimme, Phys. Chem. Chem. Phys.
     2020, 22, 8499-8512. DOI: 10.1039/D0CP00502A
   
   for sTDA-xTB:
   * S. Grimme and C. Bannwarth, J. Chem. Phys., 2016, 145, 054103.
     DOI: 10.1063/1.4959605
   
   in the mass-spec context:
   * V. Asgeirsson, C. Bauer and S. Grimme, Chem. Sci., 2017, 8, 4879.
     DOI: 10.1039/c7sc00601b
   * J. Koopman and S. Grimme, ACS Omega 2019, 4, 12, 15120-15133.
     DOI: 10.1021/acsomega.9b02011
   
   for metadynamics refer to:
   * S. Grimme, J. Chem. Theory Comput., 2019, 155, 2847-2862
     DOI: 10.1021/acs.jctc.9b00143
   
   for SPH calculations refer to:
   * S. Spicher and S. Grimme, J. Chem. Theory Comput., 2021, 17, 1701-1714
     DOI: 10.1021/acs.jctc.0c01306
   
   with help from (in alphabetical order)
   P. Atkinson, C. Bannwarth, F. Bohle, G. Brandenburg, E. Caldeweyher
   M. Checinski, S. Dohm, S. Ehlert, S. Ehrlich, I. Gerasimov, J. Koopman
   C. Lavigne, S. Lehtola, F. März, M. Müller, F. Musil, H. Neugebauer
   J. Pisarek, C. Plett, P. Pracht, J. Seibert, P. Shushkov, S. Spicher
   M. Stahn, M. Steiner, T. Strunk, J. Stückrath, T. Rose, and J. Unsleber
   
 * started run on 2021/12/28 at 11:53:30.624     

           -------------------------------------------------
          |                Calculation Setup                |
           -------------------------------------------------

          program call               : /ihome/ghutchison/oda6/xtb/xtb-641/bin//xtb PBDT-TS1.mol --sp --alpb hexane
          hostname                   : smp-n64
          coordinate file            : PBDT-TS1.mol
          omp threads                :                     1
          number of atoms            :                   191
          number of electrons        :                   638
          charge                     :                     0
          spin                       :                   0.0
          first test random number   :      0.50577732128607

   ID    Z sym.   atoms
    1    6 C      1-8, 10, 11, 13-17, 19-21, 24, 26, 27, 29-33, 36, 39-50,
                  52, 53, 55-59, 61-63, 66, 68, 69, 71-75, 78, 81-92, 94, 95,
                  97-101, 103-105, 108, 110, 111, 113-117, 120, 123-126
    2   16 S      9, 12, 18, 22, 23, 25, 28, 34, 51, 54, 60, 64, 65, 67, 70,
                  76, 93, 96, 102, 106, 107, 109, 112, 118
    3    9 F      35, 77, 119
    4    8 O      37, 38, 79, 80, 121, 122
    5    1 H      127-191

           -------------------------------------------------
          |                 G F N 2 - x T B                 |
           -------------------------------------------------

        Reference                      10.1021/acs.jctc.8b01176
      * Hamiltonian:
        H0-scaling (s, p, d)           1.850000    2.230000    2.230000
        zeta-weighting                 0.500000
      * Dispersion:
        s8                             2.700000
        a1                             0.520000
        a2                             5.000000
        s9                             5.000000
      * Repulsion:
        kExp                           1.500000    1.000000
        rExp                           1.000000
      * Coulomb:
        alpha                          2.000000
        third order                    shell-resolved
        anisotropic                    true
        a3                             3.000000
        a5                             4.000000
        cn-shift                       1.200000
        cn-exp                         4.000000
        max-rad                        5.000000

      * Solvation model:               ALPB
        Solvent                        hexane
        Parameter file                 internal GFN2-xTB/ALPB
        Dielectric constant                1.8800E+00
        Reference state                gsolv [1 M gas/solution]
        Free energy shift                  4.8134E-03 Eh       3.0204E+00 kcal/mol
        Temperature                        2.9815E+02 K
        Density                            6.6000E-01 kg/L
        Solvent mass                       8.6180E+01 g/mol
        Interaction kernel             P16
        Born radius scaling (c1)           1.1040E+00
        Born radii integrator          GBOBC
        Born offset                        0.0000E+00 a0       0.0000E+00 AA
        H-bond correction              false
        Ion screening                  false
        Surface tension                    1.0000E-05 Eh       1.5569E+01 dyn/cm
        Grid points                               230 per atom

          ...................................................
          :                      SETUP                      :
          :.................................................:
          :  # basis functions                 713          :
          :  # atomic orbitals                 689          :
          :  # shells                          341          :
          :  # electrons                       638          :
          :  max. iterations                   250          :
          :  Hamiltonian                  GFN2-xTB          :
          :  restarted?                      false          :
          :  GBSA solvation                   true          :
          :  PC potential                    false          :
          :  electronic temp.          300.0000000     K    :
          :  accuracy                    1.0000000          :
          :  -> integral cutoff          0.2500000E+02      :
          :  -> integral neglect         0.1000000E-07      :
          :  -> SCF convergence          0.1000000E-05 Eh   :
          :  -> wf. convergence          0.1000000E-03 e    :
          :  Broyden damping             0.4000000          :
          ...................................................

 iter      E             dE          RMSdq      gap      omega  full diag
   1   -353.1751380 -0.353175E+03  0.441E+00    1.05       0.0  T
   2   -353.4823052 -0.307167E+00  0.237E+00    0.86       1.0  T
   3   -353.4126551  0.696501E-01  0.120E+00    0.93       1.0  T
   4   -353.5312376 -0.118582E+00  0.483E-01    0.76       1.0  T
   5   -353.5504072 -0.191696E-01  0.206E-01    0.81       1.0  T
   6   -353.5512796 -0.872453E-03  0.998E-02    0.78       1.0  T
   7   -353.5525579 -0.127828E-02  0.353E-02    0.80       1.0  T
   8   -353.5526659 -0.107988E-03  0.185E-02    0.80       1.0  T
   9   -353.5526731 -0.725577E-05  0.109E-02    0.80       1.0  T
  10   -353.5526812 -0.807008E-05  0.392E-03    0.80       1.8  T
  11   -353.5526817 -0.455941E-06  0.238E-03    0.80       3.0  T
  12   -353.5526819 -0.193217E-06  0.125E-03    0.80       5.8  T
  13   -353.5526819 -0.600265E-07  0.704E-04    0.80      10.3  T
  14   -353.5526819 -0.241148E-07  0.361E-04    0.80      20.0  T

   *** convergence criteria satisfied after 14 iterations ***

         #    Occupation            Energy/Eh            Energy/eV
      -------------------------------------------------------------
         1        2.0000           -0.8525249             -23.1984
       ...           ...                  ...                  ...
       313        2.0000           -0.3696018             -10.0574
       314        2.0000           -0.3673541              -9.9962
       315        2.0000           -0.3660697              -9.9613
       316        2.0000           -0.3643076              -9.9133
       317        2.0000           -0.3566819              -9.7058
       318        2.0000           -0.3552107              -9.6658
       319        2.0000           -0.3530006              -9.6056 (HOMO)
       320        0.0000           -0.3236935              -8.8081 (LUMO)
       321                         -0.3176566              -8.6439
       322                         -0.3118040              -8.4846
       323                         -0.2930147              -7.9733
       324                         -0.2896948              -7.8830
       ...                                ...                  ...
       689                          0.7152663              19.4634
      -------------------------------------------------------------
                  HL-Gap            0.0293071 Eh            0.7975 eV
             Fermi-level           -0.3382947 Eh           -9.2055 eV

 SCC (total)                   0 d,  0 h,  0 min,  2.873 sec
 SCC setup                      ...        0 min,  0.013 sec (  0.469%)
 Dispersion                     ...        0 min,  0.019 sec (  0.648%)
 classical contributions        ...        0 min,  0.001 sec (  0.041%)
 integral evaluation            ...        0 min,  0.185 sec (  6.456%)
 iterations                     ...        0 min,  2.047 sec ( 71.245%)
 molecular gradient             ...        0 min,  0.589 sec ( 20.512%)
 printout                       ...        0 min,  0.018 sec (  0.625%)

         :::::::::::::::::::::::::::::::::::::::::::::::::::::
         ::                     SUMMARY                     ::
         :::::::::::::::::::::::::::::::::::::::::::::::::::::
         :: total energy            -349.082038171890 Eh    ::
         :: total w/o Gsasa/hb      -348.954124544754 Eh    ::
         :: gradient norm              0.023790309422 Eh/a0 ::
         :: HOMO-LUMO gap              0.797487231006 eV    ::
         ::.................................................::
         :: SCC energy              -353.552681935844 Eh    ::
         :: -> isotropic ES            0.210470106729 Eh    ::
         :: -> anisotropic ES          0.004122915084 Eh    ::
         :: -> anisotropic XC          0.106870769477 Eh    ::
         :: -> dispersion             -0.329653634169 Eh    ::
         :: -> Gsolv                  -0.153149895552 Eh    ::
         ::    -> Gelec               -0.025236268416 Eh    ::
         ::    -> Gsasa               -0.132726982956 Eh    ::
         ::    -> Ghb                  0.000000000000 Eh    ::
         ::    -> Gshift               0.004813355820 Eh    ::
         :: repulsion energy           4.475046542038 Eh    ::
         :: add. restraining           0.000000000000 Eh    ::
         :: total charge               0.000000000047 e     ::
         :::::::::::::::::::::::::::::::::::::::::::::::::::::

           -------------------------------------------------
          |                Property Printout                |
           -------------------------------------------------

    * Orbital Energies and Occupations

         #    Occupation            Energy/Eh            Energy/eV
      -------------------------------------------------------------
         1        2.0000           -0.8525249             -23.1984
       ...           ...                  ...                  ...
       307        2.0000           -0.4010440             -10.9130
       308        2.0000           -0.3845644             -10.4645
       309        2.0000           -0.3836474             -10.4396
       310        2.0000           -0.3828406             -10.4176
       311        2.0000           -0.3804552             -10.3527
       312        2.0000           -0.3753457             -10.2137
       313        2.0000           -0.3696018             -10.0574
       314        2.0000           -0.3673541              -9.9962
       315        2.0000           -0.3660697              -9.9613
       316        2.0000           -0.3643076              -9.9133
       317        2.0000           -0.3566819              -9.7058
       318        2.0000           -0.3552107              -9.6658
       319        2.0000           -0.3530006              -9.6056 (HOMO)
       320        0.0000           -0.3236935              -8.8081 (LUMO)
       321                         -0.3176566              -8.6439
       322                         -0.3118040              -8.4846
       323                         -0.2930147              -7.9733
       324                         -0.2896948              -7.8830
       325                         -0.2853245              -7.7641
       326                         -0.2760291              -7.5111
       327                         -0.2733895              -7.4393
       328                         -0.2666697              -7.2565
       329                         -0.2600356              -7.0759
       330                         -0.2565024              -6.9798
       ...                                ...                  ...
       689                          0.7152663              19.4634
      -------------------------------------------------------------
                  HL-Gap            0.0293071 Eh            0.7975 eV
             Fermi-level           -0.3382947 Eh           -9.2055 eV

     #   Z          covCN         q      C6AA      α(0)
     1   6 C        3.011    -0.006    28.152     8.704
     2   6 C        3.143    -0.003    27.845     8.634
     3   6 C        3.008     0.023    27.481     8.599
     4   6 C        3.011    -0.003    28.091     8.694
     5   6 C        3.141    -0.004    27.882     8.641
     6   6 C        3.006     0.026    27.409     8.588
     7   6 C        3.077    -0.049    29.142     8.851
     8   6 C        2.934    -0.008    28.229     8.714
     9  16 S        2.307    -0.048   143.046    20.130
    10   6 C        3.065    -0.054    29.268     8.871
    11   6 C        3.030     0.031    27.287     8.568
    12  16 S        2.373    -0.077   144.257    20.215
    13   6 C        2.989     0.018    27.602     8.618
    14   6 C        2.989     0.019    27.584     8.615
    15   6 C        3.113    -0.048    29.030     8.826
    16   6 C        3.127    -0.061    29.303     8.864
    17   6 C        2.983     0.058    26.689     8.474
    18  16 S        2.406    -0.065   143.752    20.179
    19   6 C        3.111    -0.049    29.057     8.831
    20   6 C        3.107    -0.065    29.460     8.893
    21   6 C        2.985     0.059    26.665     8.470
    22  16 S        2.510    -0.032   142.392    20.084
    23  16 S        2.106    -0.155   147.584    20.447
    24   6 C        3.793     0.002    20.561     6.457
    25  16 S        2.155    -0.155   147.587    20.447
    26   6 C        3.793    -0.001    20.605     6.464
    27   6 C        3.014     0.010    27.770     8.644
    28  16 S        2.490     0.040   139.422    19.873
    29   6 C        3.017     0.022    27.496     8.601
    30   6 C        3.266    -0.029    27.437     8.454
    31   6 C        3.206     0.011    27.169     8.489
    32   6 C        2.922     0.171    24.325     8.088
    33   6 C        2.979    -0.036    28.896     8.818
    34  16 S        2.240     0.007   140.777    19.970
    35   9 F        0.786    -0.211    11.345     3.979
    36   6 C        2.762     0.368    20.762     7.462
    37   8 O        1.705    -0.274    18.553     5.815
    38   8 O        0.857    -0.456    22.834     6.407
    39   6 C        3.702     0.082    19.369     6.293
    40   6 C        3.750    -0.114    22.754     6.803
    41   6 C        3.792    -0.108    22.564     6.765
    42   6 C        3.794    -0.108    22.570     6.765
    43   6 C        3.010    -0.006    28.150     8.703
    44   6 C        3.133     0.000    27.809     8.632
    45   6 C        3.008     0.024    27.445     8.594
    46   6 C        3.011    -0.004    28.105     8.696
    47   6 C        3.138    -0.002    27.838     8.635
    48   6 C        3.006     0.027    27.390     8.585
    49   6 C        3.071    -0.059    29.377     8.887
    50   6 C        3.013     0.030    27.301     8.571
    51  16 S        2.295    -0.062   143.631    20.171
    52   6 C        3.067    -0.053    29.247     8.868
    53   6 C        3.035     0.032    27.262     8.564
    54  16 S        2.395    -0.074   144.127    20.206
    55   6 C        2.988     0.017    27.619     8.621
    56   6 C        2.989     0.016    27.644     8.625
    57   6 C        3.114    -0.049    29.057     8.830
    58   6 C        3.130    -0.059    29.239     8.853
    59   6 C        2.982     0.061    26.626     8.464
    60  16 S        2.409    -0.053   143.243    20.144
    61   6 C        3.111    -0.048    29.021     8.825
    62   6 C        3.127    -0.061    29.307     8.864
    63   6 C        2.983     0.059    26.678     8.473
    64  16 S        2.410    -0.051   143.170    20.139
    65  16 S        2.087    -0.168   148.144    20.485
    66   6 C        3.793     0.003    20.529     6.452
    67  16 S        2.114    -0.148   147.303    20.427
    68   6 C        3.793    -0.001    20.599     6.463
    69   6 C        3.012     0.012    27.726     8.637
    70  16 S        2.504     0.024   140.086    19.920
    71   6 C        3.019     0.023    27.470     8.597
    72   6 C        3.265    -0.028    27.427     8.454
    73   6 C        3.205     0.013    27.132     8.484
    74   6 C        2.917     0.170    24.350     8.092
    75   6 C        2.980    -0.034    28.833     8.808
    76  16 S        2.238     0.026   140.004    19.915
    77   9 F        0.786    -0.211    11.347     3.979
    78   6 C        2.760     0.369    20.749     7.459
    79   8 O        1.705    -0.278    18.607     5.824
    80   8 O        0.857    -0.446    22.613     6.376
    81   6 C        3.702     0.082    19.358     6.291
    82   6 C        3.750    -0.116    22.781     6.807
    83   6 C        3.773    -0.107    22.574     6.770
    84   6 C        3.794    -0.106    22.539     6.760
    85   6 C        3.009    -0.006    28.145     8.702
    86   6 C        3.126    -0.000    27.836     8.639
    87   6 C        3.009     0.027    27.392     8.585
    88   6 C        3.011    -0.003    28.070     8.691
    89   6 C        3.141    -0.003    27.858     8.637
    90   6 C        3.004     0.025    27.423     8.590
    91   6 C        3.074    -0.057    29.335     8.880
    92   6 C        3.025     0.030    27.297     8.570
    93  16 S        2.345    -0.052   143.226    20.142
    94   6 C        3.068    -0.053    29.234     8.866
    95   6 C        3.021     0.030    27.311     8.572
    96  16 S        2.322    -0.069   143.905    20.190
    97   6 C        2.987     0.018    27.591     8.616
    98   6 C        2.989     0.018    27.599     8.618
    99   6 C        3.113    -0.048    29.035     8.827
   100   6 C        3.126    -0.060    29.276     8.860
   101   6 C        2.982     0.060    26.657     8.469
   102  16 S        2.416    -0.064   143.716    20.177
   103   6 C        3.108    -0.049    29.071     8.834
   104   6 C        3.107    -0.065    29.467     8.894
   105   6 C        2.984     0.060    26.649     8.468
   106  16 S        2.535    -0.036   142.547    20.095
   107  16 S        2.108    -0.152   147.484    20.440
   108   6 C        3.793     0.002    20.562     6.458
   109  16 S        2.157    -0.153   147.507    20.441
   110   6 C        3.792    -0.001    20.612     6.465
   111   6 C        2.932    -0.039    28.961     8.826
   112  16 S        2.402     0.059   138.684    19.821
   113   6 C        3.013     0.019    27.562     8.612
   114   6 C        3.275    -0.030    27.335     8.422
   115   6 C        3.215     0.021    26.857     8.431
   116   6 C        2.912     0.170    24.348     8.091
   117   6 C        2.979    -0.033    28.828     8.807
   118  16 S        2.225     0.003   140.927    19.980
   119   9 F        0.786    -0.213    11.369     3.983
   120   6 C        2.760     0.368    20.759     7.461
   121   8 O        1.705    -0.277    18.597     5.822
   122   8 O        0.857    -0.450    22.701     6.388
   123   6 C        3.702     0.082    19.363     6.292
   124   6 C        3.750    -0.115    22.757     6.803
   125   6 C        3.791    -0.106    22.534     6.760
   126   6 C        3.795    -0.108    22.570     6.765
   127   1 H        0.926     0.056     2.250     2.346
   128   1 H        0.926     0.058     2.219     2.329
   129   1 H        0.926     0.071     2.071     2.250
   130   1 H        0.926     0.052     2.296     2.370
   131   1 H        0.926     0.050     2.323     2.384
   132   1 H        0.926     0.049     2.327     2.385
   133   1 H        0.926     0.044     2.390     2.418
   134   1 H        0.925     0.060     2.202     2.321
   135   1 H        0.925     0.059     2.209     2.324
   136   1 H        0.925     0.057     2.240     2.340
   137   1 H        0.925     0.056     2.250     2.346
   138   1 H        0.924     0.067     2.122     2.278
   139   1 H        0.924     0.061     2.190     2.314
   140   1 H        0.925     0.055     2.256     2.349
   141   1 H        0.925     0.059     2.205     2.322
   142   1 H        0.925     0.058     2.226     2.333
   143   1 H        0.925     0.055     2.260     2.351
   144   1 H        0.925     0.055     2.258     2.350
   145   1 H        0.925     0.055     2.260     2.351
   146   1 H        0.925     0.055     2.257     2.349
   147   1 H        0.925     0.054     2.267     2.355
   148   1 H        0.925     0.055     2.257     2.349
   149   1 H        0.926     0.070     2.082     2.257
   150   1 H        0.926     0.075     2.032     2.229
   151   1 H        0.926     0.055     2.263     2.352
   152   1 H        0.926     0.053     2.282     2.362
   153   1 H        0.926     0.054     2.276     2.359
   154   1 H        0.926     0.051     2.310     2.377
   155   1 H        0.925     0.061     2.188     2.313
   156   1 H        0.925     0.065     2.138     2.286
   157   1 H        0.925     0.060     2.199     2.319
   158   1 H        0.925     0.066     2.133     2.284
   159   1 H        0.924     0.059     2.216     2.328
   160   1 H        0.924     0.068     2.110     2.272
   161   1 H        0.925     0.062     2.181     2.309
   162   1 H        0.925     0.058     2.222     2.331
   163   1 H        0.925     0.054     2.272     2.357
   164   1 H        0.925     0.051     2.311     2.377
   165   1 H        0.925     0.059     2.208     2.324
   166   1 H        0.925     0.051     2.310     2.377
   167   1 H        0.925     0.055     2.260     2.351
   168   1 H        0.925     0.054     2.276     2.359
   169   1 H        0.925     0.054     2.275     2.359
   170   1 H        0.926     0.068     2.113     2.273
   171   1 H        0.926     0.068     2.106     2.269
   172   1 H        0.926     0.056     2.250     2.346
   173   1 H        0.926     0.051     2.304     2.374
   174   1 H        0.926     0.057     2.230     2.335
   175   1 H        0.926     0.047     2.364     2.404
   176   1 H        0.925     0.060     2.199     2.319
   177   1 H        0.925     0.059     2.209     2.324
   178   1 H        0.925     0.056     2.242     2.342
   179   1 H        0.925     0.056     2.243     2.342
   180   1 H        0.927     0.079     1.989     2.205
   181   1 H        0.924     0.065     2.142     2.289
   182   1 H        0.924     0.060     2.198     2.318
   183   1 H        0.925     0.055     2.263     2.353
   184   1 H        0.925     0.058     2.220     2.330
   185   1 H        0.925     0.059     2.211     2.325
   186   1 H        0.925     0.055     2.263     2.353
   187   1 H        0.925     0.054     2.269     2.356
   188   1 H        0.925     0.055     2.253     2.347
   189   1 H        0.925     0.055     2.253     2.347
   190   1 H        0.925     0.054     2.270     2.356
   191   1 H        0.925     0.055     2.258     2.350

 Mol. C6AA /au·bohr⁶  :     804490.057208
 Mol. C8AA /au·bohr⁸  :   25696652.623154
 Mol. α(0) /au        :       1447.701303


Wiberg/Mayer (AO) data.
largest (>0.10) Wiberg bond orders for each atom

 ---------------------------------------------------------------------------
     #   Z sym  total        # sym  WBO       # sym  WBO       # sym  WBO
 ---------------------------------------------------------------------------
     1   6 C    3.967 --     6 C    1.357     2 C    1.272    13 C    1.100
     2   6 C    3.963 --     1 C    1.272     3 C    1.268     7 C    1.204
     3   6 C    3.950 --     4 C    1.356     2 C    1.268     9 S    1.106
     4   6 C    3.941 --     3 C    1.356     5 C    1.257    14 C    1.105
     5   6 C    3.978 --     4 C    1.257     6 C    1.251    10 C    1.243
     6   6 C    3.934 --     1 C    1.357     5 C    1.251    12 S    1.098
     7   6 C    3.978 --     8 C    1.669     2 C    1.204   127 H    0.955
     8   6 C    3.922 --     7 C    1.669     9 S    1.155   128 H    0.968
     9  16 S    2.554 --     8 C    1.155     3 C    1.106
    10   6 C    3.947 --    11 C    1.508     5 C    1.243   129 H    0.951
    11   6 C    3.938 --    10 C    1.508    29 C    1.196    12 S    1.076
    12  16 S    2.498 --     6 C    1.098    11 C    1.076
    13   6 C    3.941 --    15 C    1.529    18 S    1.102     1 C    1.100
    14   6 C    3.941 --    19 C    1.527    22 S    1.110     4 C    1.105
    15   6 C    3.975 --    13 C    1.529    16 C    1.302   130 H    0.956
    16   6 C    3.976 --    17 C    1.526    15 C    1.302   131 H    0.963
    17   6 C    3.915 --    16 C    1.526    18 S    1.146    23 S    1.085
    18  16 S    2.574 --    17 C    1.146    13 C    1.102
    19   6 C    3.972 --    14 C    1.527    20 C    1.297   132 H    0.960
    20   6 C    3.973 --    21 C    1.522    19 C    1.297   133 H    0.962
    21   6 C    3.914 --    20 C    1.522    22 S    1.154    25 S    1.086
    22  16 S    2.576 --    21 C    1.154    14 C    1.110
    23  16 S    2.289 --    17 C    1.085    24 C    0.973
    24   6 C    3.968 --    41 C    1.026    23 S    0.973   134 H    0.971
                           135 H    0.971
    25  16 S    2.282 --    21 C    1.086    26 C    0.971
    26   6 C    3.970 --    42 C    1.025   137 H    0.974   136 H    0.974
                            25 S    0.971
    27   6 C    3.928 --    31 C    1.410    50 C    1.179    28 S    1.126
    28  16 S    2.621 --    29 C    1.163    27 C    1.126
    29   6 C    3.921 --    30 C    1.328    11 C    1.196    28 S    1.163
    30   6 C    3.962 --    29 C    1.328    31 C    1.205    32 C    1.197
    31   6 C    3.934 --    27 C    1.410    30 C    1.205    34 S    1.103
    32   6 C    3.877 --    33 C    1.507    30 C    1.197    35 F    0.967
    33   6 C    3.936 --    32 C    1.507    34 S    1.094    36 C    1.049
    34  16 S    2.532 --    31 C    1.103    33 C    1.094
    35   9 F    1.120 --    32 C    0.967
    36   6 C    3.921 --    38 O    1.667    37 O    1.134    33 C    1.049
    37   8 O    2.301 --    36 C    1.134    39 C    0.928    38 O    0.165
    38   8 O    1.985 --    36 C    1.667    37 O    0.165
    39   6 C    3.914 --    40 C    1.011   138 H    0.971   139 H    0.969
                            37 O    0.928
    40   6 C    3.990 --    39 C    1.011   140 H    0.986   142 H    0.985
                           141 H    0.982
    41   6 C    3.990 --    24 C    1.026   143 H    0.985   145 H    0.985
                           144 H    0.978
    42   6 C    3.990 --    26 C    1.025   146 H    0.985   148 H    0.985
                           147 H    0.978
    43   6 C    3.934 --    48 C    1.359    44 C    1.250    55 C    1.110
    44   6 C    3.964 --    45 C    1.252    43 C    1.250    49 C    1.248
    45   6 C    3.935 --    46 C    1.358    44 C    1.252    51 S    1.099
    46   6 C    3.940 --    45 C    1.358    47 C    1.251    56 C    1.110
    47   6 C    3.966 --    46 C    1.251    52 C    1.251    48 C    1.248
    48   6 C    3.933 --    43 C    1.359    47 C    1.248    54 S    1.100
    49   6 C    3.954 --    50 C    1.507    44 C    1.248   149 H    0.940
    50   6 C    3.930 --    49 C    1.507    27 C    1.179    51 S    1.093
    51  16 S    2.508 --    45 C    1.099    50 C    1.093
    52   6 C    3.944 --    53 C    1.501    47 C    1.251   150 H    0.946
    53   6 C    3.930 --    52 C    1.501    71 C    1.199    54 S    1.077
    54  16 S    2.502 --    48 C    1.100    53 C    1.077
    55   6 C    3.942 --    57 C    1.516    43 C    1.110    60 S    1.109
    56   6 C    3.938 --    61 C    1.515    46 C    1.110    64 S    1.104
    57   6 C    3.969 --    55 C    1.516    58 C    1.309   151 H    0.954
    58   6 C    3.977 --    59 C    1.524    57 C    1.309   152 H    0.962
    59   6 C    3.912 --    58 C    1.524    60 S    1.149    65 S    1.083
    60  16 S    2.591 --    59 C    1.149    55 C    1.109
    61   6 C    3.959 --    56 C    1.515    62 C    1.313   153 H    0.956
    62   6 C    3.973 --    63 C    1.513    61 C    1.313   154 H    0.963
    63   6 C    3.912 --    62 C    1.513    64 S    1.154    67 S    1.090
    64  16 S    2.588 --    63 C    1.154    56 C    1.104
    65  16 S    2.271 --    59 C    1.083    66 C    0.966
    66   6 C    3.964 --    83 C    1.028   155 H    0.969   156 H    0.969
                            65 S    0.966
    67  16 S    2.292 --    63 C    1.090    68 C    0.972
    68   6 C    3.967 --    84 C    1.025    67 S    0.972   158 H    0.971
                           157 H    0.970
    69   6 C    3.926 --    73 C    1.417    92 C    1.184    70 S    1.113
    70  16 S    2.606 --    71 C    1.154    69 C    1.113
    71   6 C    3.920 --    72 C    1.333    53 C    1.199    70 S    1.154
    72   6 C    3.961 --    71 C    1.333    73 C    1.199    74 C    1.196
    73   6 C    3.935 --    69 C    1.417    72 C    1.199    76 S    1.111
    74   6 C    3.878 --    75 C    1.508    72 C    1.196    77 F    0.966
    75   6 C    3.936 --    74 C    1.508    76 S    1.104    78 C    1.044
    76  16 S    2.544 --    73 C    1.111    75 C    1.104
    77   9 F    1.118 --    74 C    0.966
    78   6 C    3.922 --    80 O    1.684    79 O    1.127    75 C    1.044
    79   8 O    2.294 --    78 C    1.127    81 C    0.928    80 O    0.166
    80   8 O    1.997 --    78 C    1.684    79 O    0.166
    81   6 C    3.914 --    82 C    1.012   160 H    0.970   159 H    0.969
                            79 O    0.928
    82   6 C    3.990 --    81 C    1.012   161 H    0.984   163 H    0.984
                           162 H    0.982
    83   6 C    3.991 --    66 C    1.028   166 H    0.986   164 H    0.980
                           165 H    0.973
    84   6 C    3.991 --    68 C    1.025   167 H    0.985   169 H    0.985
                           168 H    0.977
    85   6 C    3.945 --    90 C    1.354    86 C    1.250    97 C    1.115
    86   6 C    3.966 --    91 C    1.254    85 C    1.250    87 C    1.248
    87   6 C    3.937 --    88 C    1.364    86 C    1.248    93 S    1.101
    88   6 C    3.934 --    87 C    1.364    89 C    1.251    98 C    1.106
    89   6 C    3.966 --    90 C    1.254    88 C    1.251    94 C    1.241
    90   6 C    3.938 --    85 C    1.354    89 C    1.254    96 S    1.102
    91   6 C    3.953 --    92 C    1.504    86 C    1.254   170 H    0.945
    92   6 C    3.930 --    91 C    1.504    69 C    1.184    93 S    1.090
    93  16 S    2.529 --    87 C    1.101    92 C    1.090
    94   6 C    3.967 --    95 C    1.523    89 C    1.241   171 H    0.953
    95   6 C    3.932 --    94 C    1.523   113 C    1.176    96 S    1.080
    96  16 S    2.505 --    90 C    1.102    95 C    1.080
    97   6 C    3.939 --    99 C    1.517    85 C    1.115   102 S    1.100
    98   6 C    3.939 --   103 C    1.527   106 S    1.107    88 C    1.106
    99   6 C    3.957 --    97 C    1.517   100 C    1.309   172 H    0.954
   100   6 C    3.974 --   101 C    1.519    99 C    1.309   173 H    0.963
   101   6 C    3.911 --   100 C    1.519   102 S    1.148   107 S    1.089
   102  16 S    2.578 --   101 C    1.148    97 C    1.100
   103   6 C    3.973 --    98 C    1.527   104 C    1.297   174 H    0.958
   104   6 C    3.973 --   105 C    1.522   103 C    1.297   175 H    0.961
   105   6 C    3.914 --   104 C    1.522   106 S    1.153   109 S    1.087
   106  16 S    2.578 --   105 C    1.153    98 C    1.107
   107  16 S    2.285 --   101 C    1.089   108 C    0.969
   108   6 C    3.967 --   125 C    1.026   177 H    0.972   176 H    0.971
                           107 S    0.969
   109  16 S    2.285 --   105 C    1.087   110 C    0.972
   110   6 C    3.970 --   126 C    1.025   179 H    0.974   178 H    0.974
                           109 S    0.972
   111   6 C    3.921 --   115 C    1.544   112 S    1.196   180 H    0.965
   112  16 S    2.663 --   111 C    1.196   113 C    1.170
   113   6 C    3.944 --   114 C    1.361    95 C    1.176   112 S    1.170
   114   6 C    3.962 --   113 C    1.361   116 C    1.194   115 C    1.174
   115   6 C    3.956 --   111 C    1.544   114 C    1.174   118 S    1.088
   116   6 C    3.879 --   117 C    1.510   114 C    1.194   119 F    0.966
   117   6 C    3.937 --   116 C    1.510   118 S    1.097   120 C    1.046
   118  16 S    2.500 --   117 C    1.097   115 C    1.088
   119   9 F    1.116 --   116 C    0.966
   120   6 C    3.921 --   122 O    1.679   121 O    1.127   117 C    1.046
   121   8 O    2.295 --   120 C    1.127   123 C    0.929   122 O    0.166
   122   8 O    1.992 --   120 C    1.679   121 O    0.166
   123   6 C    3.915 --   124 C    1.011   181 H    0.971   182 H    0.969
                           121 O    0.929
   124   6 C    3.990 --   123 C    1.011   183 H    0.986   185 H    0.985
                           184 H    0.982
   125   6 C    3.990 --   108 C    1.026   186 H    0.985   188 H    0.984
                           187 H    0.977
   126   6 C    3.990 --   110 C    1.025   191 H    0.985   189 H    0.985
                           190 H    0.978
   127   1 H    0.996 --     7 C    0.955
   128   1 H    0.996 --     8 C    0.968
   129   1 H    0.994 --    10 C    0.951
   130   1 H    0.997 --    15 C    0.956
   131   1 H    0.997 --    16 C    0.963
   132   1 H    0.998 --    19 C    0.960
   133   1 H    0.997 --    20 C    0.962
   134   1 H    0.996 --    24 C    0.971
   135   1 H    0.996 --    24 C    0.971
   136   1 H    0.997 --    26 C    0.974
   137   1 H    0.997 --    26 C    0.974
   138   1 H    0.995 --    39 C    0.971
   139   1 H    0.996 --    39 C    0.969
   140   1 H    0.997 --    40 C    0.986
   141   1 H    0.996 --    40 C    0.982
   142   1 H    0.997 --    40 C    0.985
   143   1 H    0.997 --    41 C    0.985
   144   1 H    0.996 --    41 C    0.978
   145   1 H    0.997 --    41 C    0.985
   146   1 H    0.997 --    42 C    0.985
   147   1 H    0.996 --    42 C    0.978
   148   1 H    0.997 --    42 C    0.985
   149   1 H    0.994 --    49 C    0.940
   150   1 H    0.994 --    52 C    0.946
   151   1 H    0.997 --    57 C    0.954
   152   1 H    0.997 --    58 C    0.962
   153   1 H    0.997 --    61 C    0.956
   154   1 H    0.997 --    62 C    0.963
   155   1 H    0.996 --    66 C    0.969
   156   1 H    0.995 --    66 C    0.969
   157   1 H    0.996 --    68 C    0.970
   158   1 H    0.995 --    68 C    0.971
   159   1 H    0.996 --    81 C    0.969
   160   1 H    0.995 --    81 C    0.970
   161   1 H    0.996 --    82 C    0.984
   162   1 H    0.996 --    82 C    0.982
   163   1 H    0.997 --    82 C    0.984
   164   1 H    0.997 --    83 C    0.980
   165   1 H    0.996 --    83 C    0.973
   166   1 H    0.997 --    83 C    0.986
   167   1 H    0.997 --    84 C    0.985
   168   1 H    0.997 --    84 C    0.977
   169   1 H    0.997 --    84 C    0.985
   170   1 H    0.995 --    91 C    0.945
   171   1 H    0.995 --    94 C    0.953
   172   1 H    0.996 --    99 C    0.954
   173   1 H    0.997 --   100 C    0.963
   174   1 H    0.997 --   103 C    0.958
   175   1 H    0.997 --   104 C    0.961
   176   1 H    0.996 --   108 C    0.971
   177   1 H    0.996 --   108 C    0.972
   178   1 H    0.997 --   110 C    0.974
   179   1 H    0.997 --   110 C    0.974
   180   1 H    0.993 --   111 C    0.965
   181   1 H    0.995 --   123 C    0.971
   182   1 H    0.996 --   123 C    0.969
   183   1 H    0.997 --   124 C    0.986
   184   1 H    0.996 --   124 C    0.982
   185   1 H    0.997 --   124 C    0.985
   186   1 H    0.997 --   125 C    0.985
   187   1 H    0.996 --   125 C    0.977
   188   1 H    0.997 --   125 C    0.984
   189   1 H    0.997 --   126 C    0.985
   190   1 H    0.996 --   126 C    0.978
   191   1 H    0.997 --   126 C    0.985
 ---------------------------------------------------------------------------

Topologies differ in bond orders
Writing corrected topology to xtbtopo.mol

molecular dipole:
                 x           y           z       tot (Debye)
 q only:       -2.807      -1.641       0.307
   full:       -2.762      -1.358       0.842       8.110
molecular quadrupole (traceless):
                xx          xy          yy          xz          yz          zz
 q only:      -92.090    -125.391      -3.891      38.031     -13.532      95.981
  q+dip:      -71.949    -112.957     -18.063      64.715      31.014      90.011
   full:      -72.656    -116.698     -19.217      61.583      35.761      91.873


           -------------------------------------------------
          | TOTAL ENERGY             -349.082038171890 Eh   |
          | GRADIENT NORM               0.023790309422 Eh/α |
          | HOMO-LUMO GAP               0.797487231006 eV   |
           -------------------------------------------------

------------------------------------------------------------------------
 * finished run on 2021/12/28 at 11:53:33.698     
------------------------------------------------------------------------
 total:
 * wall-time:     0 d,  0 h,  0 min,  3.074 sec
 *  cpu-time:     0 d,  0 h,  0 min,  3.065 sec
 * ratio c/w:     0.997 speedup
 SCF:
 * wall-time:     0 d,  0 h,  0 min,  2.881 sec
 *  cpu-time:     0 d,  0 h,  0 min,  2.879 sec
 * ratio c/w:     0.999 speedup

