      -----------------------------------------------------------      
     |                   =====================                   |     
     |                           x T B                           |     
     |                   =====================                   |     
     |                         S. Grimme                         |     
     |          Mulliken Center for Theoretical Chemistry        |     
     |                    University of Bonn                     |     
      -----------------------------------------------------------      

   * xtb version 6.4.1 (unknown) compiled by 'oda6@login1.crc.pitt.edu' on 2021-06-25

   xtb is free software: you can redistribute it and/or modify it under
   the terms of the GNU Lesser General Public License as published by
   the Free Software Foundation, either version 3 of the License, or
   (at your option) any later version.
   
   xtb is distributed in the hope that it will be useful,
   but WITHOUT ANY WARRANTY; without even the implied warranty of
   MERCHANTABILITY or FITNESS FOR A PARTICULAR PURPOSE.  See the
   GNU Lesser General Public License for more details.
   
   Cite this work as:
   * C. Bannwarth, E. Caldeweyher, S. Ehlert, A. Hansen, P. Pracht,
     J. Seibert, S. Spicher, S. Grimme, WIREs Comput. Mol. Sci., 2020, 11,
     e01493. DOI: 10.1002/wcms.1493
   
   for GFN2-xTB:
   * C. Bannwarth, S. Ehlert and S. Grimme., J. Chem. Theory Comput., 2019,
     15, 1652-1671. DOI: 10.1021/acs.jctc.8b01176
   for GFN1-xTB:
   * S. Grimme, C. Bannwarth, P. Shushkov, J. Chem. Theory Comput., 2017,
     13, 1989-2009. DOI: 10.1021/acs.jctc.7b00118
   for GFN0-xTB:
   * P. Pracht, E. Caldeweyher, S. Ehlert, S. Grimme, ChemRxiv, 2019, preprint.
     DOI: 10.26434/chemrxiv.8326202.v1
   for GFN-FF:
   * S. Spicher and S. Grimme, Angew. Chem. Int. Ed., 2020, 59, 15665-15673.
     DOI: 10.1002/anie.202004239
   
   for DFT-D4:
   * E. Caldeweyher, C. Bannwarth and S. Grimme, J. Chem. Phys., 2017,
     147, 034112. DOI: 10.1063/1.4993215
   * E. Caldeweyher, S. Ehlert, A. Hansen, H. Neugebauer, S. Spicher,
     C. Bannwarth and S. Grimme, J. Chem. Phys., 2019, 150, 154122.
     DOI: 10.1063/1.5090222
   * E. Caldeweyher, J.-M. Mewes, S. Ehlert and S. Grimme, Phys. Chem. Chem. Phys.
     2020, 22, 8499-8512. DOI: 10.1039/D0CP00502A
   
   for sTDA-xTB:
   * S. Grimme and C. Bannwarth, J. Chem. Phys., 2016, 145, 054103.
     DOI: 10.1063/1.4959605
   
   in the mass-spec context:
   * V. Asgeirsson, C. Bauer and S. Grimme, Chem. Sci., 2017, 8, 4879.
     DOI: 10.1039/c7sc00601b
   * J. Koopman and S. Grimme, ACS Omega 2019, 4, 12, 15120-15133.
     DOI: 10.1021/acsomega.9b02011
   
   for metadynamics refer to:
   * S. Grimme, J. Chem. Theory Comput., 2019, 155, 2847-2862
     DOI: 10.1021/acs.jctc.9b00143
   
   for SPH calculations refer to:
   * S. Spicher and S. Grimme, J. Chem. Theory Comput., 2021, 17, 1701-1714
     DOI: 10.1021/acs.jctc.0c01306
   
   with help from (in alphabetical order)
   P. Atkinson, C. Bannwarth, F. Bohle, G. Brandenburg, E. Caldeweyher
   M. Checinski, S. Dohm, S. Ehlert, S. Ehrlich, I. Gerasimov, J. Koopman
   C. Lavigne, S. Lehtola, F. März, M. Müller, F. Musil, H. Neugebauer
   J. Pisarek, C. Plett, P. Pracht, J. Seibert, P. Shushkov, S. Spicher
   M. Stahn, M. Steiner, T. Strunk, J. Stückrath, T. Rose, and J. Unsleber
   
 * started run on 2021/12/28 at 12:01:13.723     

           -------------------------------------------------
          |                Calculation Setup                |
           -------------------------------------------------

          program call               : /ihome/ghutchison/oda6/xtb/xtb-641/bin//xtb PvBDTTAZ.mol --sp --alpb hexane
          hostname                   : smp-n64
          coordinate file            : PvBDTTAZ.mol
          omp threads                :                     1
          number of atoms            :                   224
          number of electrons        :                   728
          charge                     :                     0
          spin                       :                   0.0
          first test random number   :      0.47598542806635

   ID    Z sym.   atoms
    1    6 C      1, 3-13, 15, 16, 18, 20-27, 29-37, 43-48, 50, 52-62, 64,
                  65, 67, 69-76, 78-86, 92-97, 99, 101-111, 113, 114, 116,
                  118-125, 127-135, 141-146
    2   16 S      2, 14, 17, 19, 28, 49, 51, 63, 66, 68, 77, 98, 100, 112,
                  115, 117, 126, 147
    3    9 F      38, 39, 87, 88, 136, 137
    4    7 N      40-42, 89-91, 138-140
    5    1 H      148-224

           -------------------------------------------------
          |                 G F N 2 - x T B                 |
           -------------------------------------------------

        Reference                      10.1021/acs.jctc.8b01176
      * Hamiltonian:
        H0-scaling (s, p, d)           1.850000    2.230000    2.230000
        zeta-weighting                 0.500000
      * Dispersion:
        s8                             2.700000
        a1                             0.520000
        a2                             5.000000
        s9                             5.000000
      * Repulsion:
        kExp                           1.500000    1.000000
        rExp                           1.000000
      * Coulomb:
        alpha                          2.000000
        third order                    shell-resolved
        anisotropic                    true
        a3                             3.000000
        a5                             4.000000
        cn-shift                       1.200000
        cn-exp                         4.000000
        max-rad                        5.000000

      * Solvation model:               ALPB
        Solvent                        hexane
        Parameter file                 internal GFN2-xTB/ALPB
        Dielectric constant                1.8800E+00
        Reference state                gsolv [1 M gas/solution]
        Free energy shift                  4.8134E-03 Eh       3.0204E+00 kcal/mol
        Temperature                        2.9815E+02 K
        Density                            6.6000E-01 kg/L
        Solvent mass                       8.6180E+01 g/mol
        Interaction kernel             P16
        Born radius scaling (c1)           1.1040E+00
        Born radii integrator          GBOBC
        Born offset                        0.0000E+00 a0       0.0000E+00 AA
        H-bond correction              false
        Ion screening                  false
        Surface tension                    1.0000E-05 Eh       1.5569E+01 dyn/cm
        Grid points                               230 per atom

          ...................................................
          :                      SETUP                      :
          :.................................................:
          :  # basis functions                 773          :
          :  # atomic orbitals                 755          :
          :  # shells                          389          :
          :  # electrons                       728          :
          :  max. iterations                   250          :
          :  Hamiltonian                  GFN2-xTB          :
          :  restarted?                      false          :
          :  GBSA solvation                   true          :
          :  PC potential                    false          :
          :  electronic temp.          300.0000000     K    :
          :  accuracy                    1.0000000          :
          :  -> integral cutoff          0.2500000E+02      :
          :  -> integral neglect         0.1000000E-07      :
          :  -> SCF convergence          0.1000000E-05 Eh   :
          :  -> wf. convergence          0.1000000E-03 e    :
          :  Broyden damping             0.4000000          :
          ...................................................

 iter      E             dE          RMSdq      gap      omega  full diag
   1   -402.1093778 -0.402109E+03  0.398E+00    1.31       0.0  T
   2   -402.3938702 -0.284492E+00  0.228E+00    1.26       1.0  T
   3   -402.3541857  0.396845E-01  0.952E-01    1.21       1.0  T
   4   -402.4444158 -0.902301E-01  0.342E-01    1.19       1.0  T
   5   -402.4518005 -0.738473E-02  0.140E-01    1.19       1.0  T
   6   -402.4530769 -0.127638E-02  0.493E-02    1.20       1.0  T
   7   -402.4532590 -0.182090E-03  0.195E-02    1.20       1.0  T
   8   -402.4532773 -0.182631E-04  0.108E-02    1.20       1.0  T
   9   -402.4532832 -0.594252E-05  0.474E-03    1.20       1.4  T
  10   -402.4532846 -0.139111E-05  0.218E-03    1.20       3.1  T
  11   -402.4532849 -0.263015E-06  0.100E-03    1.20       6.7  T
  12   -402.4532849 -0.103472E-07  0.537E-04    1.20      12.4  T
  13   -402.4532849 -0.146747E-07  0.250E-04    1.20      26.7  T

   *** convergence criteria satisfied after 13 iterations ***

         #    Occupation            Energy/Eh            Energy/eV
      -------------------------------------------------------------
         1        2.0000           -0.8330739             -22.6691
       ...           ...                  ...                  ...
       358        2.0000           -0.3776143             -10.2754
       359        2.0000           -0.3710858             -10.0978
       360        2.0000           -0.3670422              -9.9877
       361        2.0000           -0.3626419              -9.8680
       362        2.0000           -0.3574362              -9.7263
       363        2.0000           -0.3542559              -9.6398
       364        2.0000           -0.3516406              -9.5686 (HOMO)
       365                         -0.3075593              -8.3691 (LUMO)
       366                         -0.3048677              -8.2959
       367                         -0.3026172              -8.2346
       368                         -0.2886921              -7.8557
       369                         -0.2845579              -7.7432
       ...                                ...                  ...
       755                          0.7145181              19.4430
      -------------------------------------------------------------
                  HL-Gap            0.0440812 Eh            1.1995 eV
             Fermi-level           -0.3295993 Eh           -8.9689 eV

 SCC (total)                   0 d,  0 h,  0 min,  3.206 sec
 SCC setup                      ...        0 min,  0.017 sec (  0.522%)
 Dispersion                     ...        0 min,  0.025 sec (  0.774%)
 classical contributions        ...        0 min,  0.001 sec (  0.039%)
 integral evaluation            ...        0 min,  0.205 sec (  6.402%)
 iterations                     ...        0 min,  2.400 sec ( 74.845%)
 molecular gradient             ...        0 min,  0.535 sec ( 16.697%)
 printout                       ...        0 min,  0.023 sec (  0.720%)

         :::::::::::::::::::::::::::::::::::::::::::::::::::::
         ::                     SUMMARY                     ::
         :::::::::::::::::::::::::::::::::::::::::::::::::::::
         :: total energy            -396.839555856442 Eh    ::
         :: total w/o Gsasa/hb      -396.695424293336 Eh    ::
         :: gradient norm              0.016209466152 Eh/a0 ::
         :: HOMO-LUMO gap              1.199511690460 eV    ::
         ::.................................................::
         :: SCC energy              -402.453284878514 Eh    ::
         :: -> isotropic ES            0.142570279945 Eh    ::
         :: -> anisotropic ES          0.014578711533 Eh    ::
         :: -> anisotropic XC          0.150871601414 Eh    ::
         :: -> dispersion             -0.364388832871 Eh    ::
         :: -> Gsolv                  -0.167871347380 Eh    ::
         ::    -> Gelec               -0.023739784273 Eh    ::
         ::    -> Gsasa               -0.148944918926 Eh    ::
         ::    -> Ghb                  0.000000000000 Eh    ::
         ::    -> Gshift               0.004813355820 Eh    ::
         :: repulsion energy           5.617645998141 Eh    ::
         :: add. restraining           0.000000000000 Eh    ::
         :: total charge               0.000000000000 e     ::
         :::::::::::::::::::::::::::::::::::::::::::::::::::::

           -------------------------------------------------
          |                Property Printout                |
           -------------------------------------------------

    * Orbital Energies and Occupations

         #    Occupation            Energy/Eh            Energy/eV
      -------------------------------------------------------------
         1        2.0000           -0.8330739             -22.6691
       ...           ...                  ...                  ...
       352        2.0000           -0.3948887             -10.7455
       353        2.0000           -0.3942955             -10.7293
       354        2.0000           -0.3941317             -10.7249
       355        2.0000           -0.3889914             -10.5850
       356        2.0000           -0.3866499             -10.5213
       357        2.0000           -0.3810129             -10.3679
       358        2.0000           -0.3776143             -10.2754
       359        2.0000           -0.3710858             -10.0978
       360        2.0000           -0.3670422              -9.9877
       361        2.0000           -0.3626419              -9.8680
       362        2.0000           -0.3574362              -9.7263
       363        2.0000           -0.3542559              -9.6398
       364        2.0000           -0.3516406              -9.5686 (HOMO)
       365                         -0.3075593              -8.3691 (LUMO)
       366                         -0.3048677              -8.2959
       367                         -0.3026172              -8.2346
       368                         -0.2886921              -7.8557
       369                         -0.2845579              -7.7432
       370                         -0.2823298              -7.6826
       371                         -0.2699342              -7.3453
       372                         -0.2671901              -7.2706
       373                         -0.2641127              -7.1869
       374                         -0.2625092              -7.1432
       375                         -0.2610311              -7.1030
       ...                                ...                  ...
       755                          0.7145181              19.4430
      -------------------------------------------------------------
                  HL-Gap            0.0440812 Eh            1.1995 eV
             Fermi-level           -0.3295993 Eh           -8.9689 eV

     #   Z          covCN         q      C6AA      α(0)
     1   6 C        2.947    -0.030    28.751     8.794
     2  16 S        2.349    -0.045   142.905    20.120
     3   6 C        2.989     0.021    27.524     8.606
     4   6 C        3.123    -0.059    29.267     8.859
     5   6 C        3.147    -0.002    27.807     8.627
     6   6 C        3.011    -0.006    28.148     8.703
     7   6 C        3.149    -0.006    27.906     8.641
     8   6 C        3.007     0.023    27.476     8.599
     9   6 C        3.012    -0.007    28.177     8.707
    10   6 C        3.146    -0.006    27.911     8.643
    11   6 C        3.008     0.023    27.479     8.599
    12   6 C        3.074    -0.051    29.192     8.859
    13   6 C        2.934    -0.010    28.263     8.719
    14  16 S        2.287    -0.059   143.510    20.162
    15   6 C        3.074    -0.051    29.180     8.857
    16   6 C        2.934    -0.010    28.270     8.720
    17  16 S        2.315    -0.062   143.635    20.171
    18   6 C        2.983     0.026    27.412     8.588
    19  16 S        2.422    -0.051   143.184    20.140
    20   6 C        3.014     0.013    27.694     8.632
    21   6 C        3.130    -0.003    27.890     8.646
    22   6 C        3.119    -0.058    29.253     8.858
    23   6 C        3.804    -0.055    21.568     6.612
    24   6 C        3.754    -0.100    22.475     6.760
    25   6 C        3.804    -0.058    21.613     6.618
    26   6 C        3.753    -0.102    22.501     6.764
    27   6 C        3.036     0.022    27.479     8.598
    28  16 S        2.338    -0.013   141.583    20.027
    29   6 C        2.993     0.024    27.463     8.596
    30   6 C        3.097    -0.049    29.097     8.840
    31   6 C        3.108    -0.052    29.137     8.844
    32   6 C        2.983    -0.020    28.500     8.757
    33   6 C        2.789     0.140    24.943     8.181
    34   6 C        2.790     0.141    24.914     8.176
    35   6 C        3.003    -0.023    28.555     8.766
    36   6 C        3.182     0.052    26.417     8.390
    37   6 C        3.160     0.048    26.602     8.431
    38   9 F        0.792    -0.217    11.410     3.990
    39   9 F        0.787    -0.225    11.499     4.006
    40   7 N        2.030    -0.247    27.205     7.736
    41   7 N        3.268     0.241    17.330     6.183
    42   7 N        1.993    -0.261    27.578     7.788
    43   6 C        3.745    -0.024    21.075     6.548
    44   6 C        3.754    -0.118    22.810     6.810
    45   6 C        2.990     0.029    27.350     8.579
    46   6 C        3.100    -0.047    29.029     8.829
    47   6 C        3.095    -0.055    29.235     8.862
    48   6 C        3.044     0.022    27.465     8.595
    49  16 S        2.514    -0.025   142.069    20.061
    50   6 C        3.038     0.013    27.690     8.631
    51  16 S        2.480    -0.050   143.140    20.136
    52   6 C        2.983     0.026    27.428     8.591
    53   6 C        3.117    -0.057    29.251     8.859
    54   6 C        3.137    -0.003    27.878     8.642
    55   6 C        3.021    -0.006    28.149     8.703
    56   6 C        3.151    -0.005    27.864     8.634
    57   6 C        3.007     0.023    27.482     8.599
    58   6 C        3.008    -0.006    28.163     8.705
    59   6 C        3.149    -0.007    27.914     8.642
    60   6 C        3.007     0.022    27.508     8.604
    61   6 C        3.077    -0.051    29.173     8.855
    62   6 C        2.934    -0.011    28.302     8.725
    63  16 S        2.258    -0.065   143.761    20.180
    64   6 C        3.077    -0.050    29.146     8.851
    65   6 C        2.935    -0.010    28.270     8.720
    66  16 S        2.375    -0.059   143.488    20.161
    67   6 C        2.983     0.025    27.435     8.592
    68  16 S        2.473    -0.045   142.923    20.121
    69   6 C        3.017     0.014    27.668     8.628
    70   6 C        3.130    -0.003    27.897     8.647
    71   6 C        3.120    -0.059    29.269     8.860
    72   6 C        3.804    -0.056    21.585     6.614
    73   6 C        3.754    -0.101    22.492     6.763
    74   6 C        3.804    -0.060    21.657     6.625
    75   6 C        3.753    -0.103    22.519     6.767
    76   6 C        3.033     0.023    27.452     8.594
    77  16 S        2.377    -0.019   141.842    20.045
    78   6 C        2.993     0.025    27.435     8.592
    79   6 C        3.093    -0.045    28.993     8.825
    80   6 C        3.104    -0.052    29.161     8.848
    81   6 C        3.001    -0.022    28.539     8.763
    82   6 C        2.790     0.140    24.939     8.180
    83   6 C        2.790     0.140    24.930     8.179
    84   6 C        3.002    -0.022    28.553     8.765
    85   6 C        3.177     0.050    26.488     8.404
    86   6 C        3.173     0.050    26.503     8.408
    87   9 F        0.787    -0.226    11.503     4.006
    88   9 F        0.787    -0.225    11.502     4.006
    89   7 N        2.024    -0.247    27.205     7.736
    90   7 N        3.270     0.241    17.333     6.183
    91   7 N        2.017    -0.253    27.374     7.760
    92   6 C        3.745    -0.025    21.084     6.550
    93   6 C        3.754    -0.119    22.846     6.816
    94   6 C        2.994     0.025    27.446     8.594
    95   6 C        3.095    -0.045    28.999     8.826
    96   6 C        3.104    -0.052    29.156     8.848
    97   6 C        3.033     0.022    27.491     8.600
    98  16 S        2.386    -0.015   141.675    20.033
    99   6 C        3.019     0.014    27.688     8.631
   100  16 S        2.402    -0.048   143.043    20.130
   101   6 C        2.984     0.025    27.428     8.591
   102   6 C        3.118    -0.058    29.260     8.860
   103   6 C        3.130    -0.004    27.912     8.650
   104   6 C        3.012    -0.006    28.157     8.704
   105   6 C        3.148    -0.006    27.902     8.641
   106   6 C        3.007     0.023    27.478     8.599
   107   6 C        3.013    -0.006    28.160     8.705
   108   6 C        3.147    -0.006    27.903     8.642
   109   6 C        3.007     0.023    27.477     8.599
   110   6 C        3.075    -0.051    29.192     8.859
   111   6 C        2.934    -0.010    28.262     8.719
   112  16 S        2.301    -0.058   143.462    20.159
   113   6 C        3.075    -0.051    29.193     8.859
   114   6 C        2.934    -0.010    28.273     8.720
   115  16 S        2.315    -0.060   143.525    20.163
   116   6 C        2.985     0.025    27.430     8.591
   117  16 S        2.408    -0.052   143.193    20.140
   118   6 C        3.020     0.010    27.781     8.646
   119   6 C        3.124    -0.003    27.904     8.650
   120   6 C        3.113    -0.058    29.267     8.862
   121   6 C        3.804    -0.059    21.635     6.622
   122   6 C        3.753    -0.104    22.549     6.771
   123   6 C        3.805    -0.057    21.603     6.617
   124   6 C        3.752    -0.103    22.535     6.770
   125   6 C        3.034     0.021    27.513     8.604
   126  16 S        2.347    -0.020   141.869    20.047
   127   6 C        2.993     0.024    27.451     8.595
   128   6 C        3.097    -0.049    29.090     8.839
   129   6 C        3.106    -0.052    29.154     8.847
   130   6 C        2.985    -0.020    28.499     8.757
   131   6 C        2.791     0.140    24.934     8.179
   132   6 C        2.790     0.142    24.892     8.173
   133   6 C        2.983    -0.021    28.526     8.761
   134   6 C        3.164     0.050    26.558     8.423
   135   6 C        3.166     0.050    26.551     8.421
   136   9 F        0.795    -0.215    11.390     3.987
   137   9 F        0.794    -0.214    11.384     3.986
   138   7 N        1.990    -0.260    27.571     7.787
   139   7 N        3.266     0.239    17.361     6.188
   140   7 N        1.989    -0.260    27.554     7.785
   141   6 C        3.746    -0.025    21.081     6.549
   142   6 C        3.753    -0.116    22.779     6.806
   143   6 C        2.993     0.025    27.441     8.593
   144   6 C        3.111    -0.053    29.155     8.846
   145   6 C        3.109    -0.045    28.971     8.818
   146   6 C        2.942    -0.023    28.568     8.766
   147  16 S        2.326    -0.002   141.142    19.995
   148   1 H        0.926     0.048     2.348     2.396
   149   1 H        0.926     0.042     2.423     2.434
   150   1 H        0.926     0.050     2.324     2.384
   151   1 H        0.926     0.054     2.265     2.354
   152   1 H        0.926     0.050     2.325     2.385
   153   1 H        0.926     0.054     2.269     2.355
   154   1 H        0.926     0.046     2.375     2.410
   155   1 H        0.924     0.044     2.391     2.418
   156   1 H        0.924     0.038     2.474     2.460
   157   1 H        0.925     0.038     2.473     2.459
   158   1 H        0.925     0.039     2.459     2.452
   159   1 H        0.925     0.037     2.487     2.466
   160   1 H        0.924     0.047     2.364     2.404
   161   1 H        0.924     0.053     2.280     2.362
   162   1 H        0.925     0.038     2.479     2.462
   163   1 H        0.925     0.045     2.389     2.417
   164   1 H        0.925     0.042     2.420     2.433
   165   1 H        0.926     0.068     2.108     2.270
   166   1 H        0.926     0.051     2.306     2.375
   167   1 H        0.924     0.088     1.901     2.156
   168   1 H        0.924     0.084     1.936     2.176
   169   1 H        0.925     0.056     2.250     2.346
   170   1 H        0.925     0.065     2.147     2.291
   171   1 H        0.925     0.069     2.095     2.263
   172   1 H        0.926     0.058     2.222     2.331
   173   1 H        0.926     0.052     2.295     2.369
   174   1 H        0.926     0.053     2.288     2.365
   175   1 H        0.926     0.050     2.319     2.382
   176   1 H        0.926     0.054     2.271     2.357
   177   1 H        0.926     0.056     2.243     2.342
   178   1 H        0.926     0.056     2.250     2.346
   179   1 H        0.926     0.046     2.370     2.407
   180   1 H        0.924     0.047     2.357     2.401
   181   1 H        0.924     0.042     2.417     2.431
   182   1 H        0.925     0.042     2.420     2.433
   183   1 H        0.925     0.041     2.439     2.442
   184   1 H        0.925     0.037     2.485     2.465
   185   1 H        0.924     0.047     2.362     2.403
   186   1 H        0.924     0.057     2.234     2.338
   187   1 H        0.925     0.038     2.472     2.459
   188   1 H        0.925     0.042     2.420     2.432
   189   1 H        0.925     0.043     2.416     2.431
   190   1 H        0.926     0.059     2.209     2.324
   191   1 H        0.926     0.050     2.320     2.382
   192   1 H        0.924     0.089     1.887     2.148
   193   1 H        0.924     0.083     1.947     2.182
   194   1 H        0.925     0.056     2.250     2.346
   195   1 H        0.925     0.063     2.162     2.299
   196   1 H        0.925     0.073     2.052     2.240
   197   1 H        0.926     0.058     2.219     2.330
   198   1 H        0.926     0.049     2.331     2.387
   199   1 H        0.926     0.047     2.364     2.404
   200   1 H        0.926     0.051     2.311     2.377
   201   1 H        0.926     0.055     2.257     2.349
   202   1 H        0.926     0.050     2.317     2.380
   203   1 H        0.926     0.055     2.262     2.352
   204   1 H        0.926     0.053     2.279     2.361
   205   1 H        0.924     0.047     2.356     2.400
   206   1 H        0.924     0.051     2.312     2.378
   207   1 H        0.925     0.038     2.470     2.458
   208   1 H        0.925     0.043     2.412     2.429
   209   1 H        0.925     0.046     2.375     2.410
   210   1 H        0.924     0.057     2.238     2.340
   211   1 H        0.924     0.057     2.238     2.339
   212   1 H        0.925     0.041     2.432     2.439
   213   1 H        0.925     0.042     2.423     2.434
   214   1 H        0.925     0.040     2.448     2.447
   215   1 H        0.926     0.067     2.116     2.275
   216   1 H        0.926     0.050     2.319     2.381
   217   1 H        0.924     0.086     1.917     2.165
   218   1 H        0.924     0.086     1.918     2.166
   219   1 H        0.925     0.060     2.201     2.320
   220   1 H        0.925     0.065     2.142     2.289
   221   1 H        0.925     0.059     2.207     2.323
   222   1 H        0.926     0.066     2.129     2.281
   223   1 H        0.926     0.045     2.388     2.416
   224   1 H        0.926     0.052     2.291     2.367

 Mol. C6AA /au·bohr⁶  :     970920.592608
 Mol. C8AA /au·bohr⁸  :   28859223.659667
 Mol. α(0) /au        :       1584.650249


Wiberg/Mayer (AO) data.
largest (>0.10) Wiberg bond orders for each atom

 ---------------------------------------------------------------------------
     #   Z sym  total        # sym  WBO       # sym  WBO       # sym  WBO
 ---------------------------------------------------------------------------
     1   6 C    3.929 --     5 C    1.587     2 S    1.186   148 H    0.969
                             3 C    0.106
     2  16 S    2.610 --     1 C    1.186     3 C    1.133
     3   6 C    3.950 --     4 C    1.556     2 S    1.133     6 C    1.084
                             1 C    0.106
     4   6 C    3.978 --     3 C    1.556     5 C    1.257   149 H    0.962
     5   6 C    3.983 --     1 C    1.587     4 C    1.257    23 C    1.009
     6   6 C    3.969 --    11 C    1.358     7 C    1.286     3 C    1.084
     7   6 C    3.984 --     6 C    1.286     8 C    1.272    15 C    1.192
     8   6 C    3.949 --     9 C    1.351     7 C    1.272    17 S    1.105
     9   6 C    3.972 --     8 C    1.351    10 C    1.283    18 C    1.095
    10   6 C    3.979 --     9 C    1.283    11 C    1.270    12 C    1.194
    11   6 C    3.955 --     6 C    1.358    10 C    1.270    14 S    1.103
    12   6 C    3.981 --    13 C    1.682    10 C    1.194   150 H    0.959
                            14 S    0.100
    13   6 C    3.934 --    12 C    1.682    14 S    1.148   151 H    0.968
    14  16 S    2.543 --    13 C    1.148    11 C    1.103    12 C    0.100
    15   6 C    3.981 --    16 C    1.685     7 C    1.192   152 H    0.959
    16   6 C    3.935 --    15 C    1.685    17 S    1.145   153 H    0.968
    17  16 S    2.545 --    16 C    1.145     8 C    1.105
    18   6 C    3.926 --    22 C    1.514    19 S    1.135     9 C    1.095
    19  16 S    2.580 --    18 C    1.135    20 C    1.108
    20   6 C    3.932 --    21 C    1.448    27 C    1.180    19 S    1.108
    21   6 C    3.964 --    20 C    1.448    22 C    1.299    25 C    1.014
    22   6 C    3.976 --    18 C    1.514    21 C    1.299   154 H    0.961
    23   6 C    3.997 --     5 C    1.009    24 C    1.003   156 H    0.977
                           155 H    0.969
    24   6 C    3.996 --    23 C    1.003   159 H    0.989   157 H    0.988
                           158 H    0.986
    25   6 C    3.995 --    21 C    1.014    26 C    0.998   160 H    0.972
                           161 H    0.958
    26   6 C    3.993 --    25 C    0.998   162 H    0.988   164 H    0.985
                           163 H    0.985
    27   6 C    3.930 --    31 C    1.439    20 C    1.180    28 S    1.146
    28  16 S    2.624 --    27 C    1.146    29 C    1.128
    29   6 C    3.931 --    30 C    1.441    32 C    1.167    28 S    1.128
    30   6 C    3.952 --    29 C    1.441    31 C    1.379   165 H    0.955
    31   6 C    3.971 --    27 C    1.439    30 C    1.379   166 H    0.958
    32   6 C    3.936 --    33 C    1.370    37 C    1.186    29 C    1.167
    33   6 C    3.856 --    32 C    1.370    34 C    1.308    38 F    0.953
    34   6 C    3.860 --    35 C    1.371    33 C    1.308    39 F    0.955
    35   6 C    3.934 --    34 C    1.371    36 C    1.193    45 C    1.158
    36   6 C    3.973 --    40 N    1.351    37 C    1.226    35 C    1.193
    37   6 C    3.971 --    42 N    1.349    36 C    1.226    32 C    1.186
    38   9 F    1.102 --    33 C    0.953
    39   9 F    1.084 --    34 C    0.955
    40   7 N    3.023 --    36 C    1.351    41 N    1.290    42 N    0.206
    41   7 N    3.757 --    42 N    1.293    40 N    1.290    43 C    0.977
    42   7 N    2.985 --    37 C    1.349    41 N    1.293    40 N    0.206
    43   6 C    3.952 --    44 C    1.001    41 N    0.977   167 H    0.968
                           168 H    0.958
    44   6 C    3.982 --    43 C    1.001   169 H    0.986   171 H    0.983
                           170 H    0.982
    45   6 C    3.931 --    46 C    1.462    35 C    1.158    49 S    1.128
    46   6 C    3.946 --    45 C    1.462    47 C    1.353   172 H    0.962
    47   6 C    3.971 --    48 C    1.460    46 C    1.353   173 H    0.959
    48   6 C    3.928 --    47 C    1.460    50 C    1.161    49 S    1.144
    49  16 S    2.631 --    48 C    1.144    45 C    1.128
    50   6 C    3.931 --    54 C    1.455    48 C    1.161    51 S    1.122
    51  16 S    2.592 --    52 C    1.127    50 C    1.122
    52   6 C    3.928 --    53 C    1.512    51 S    1.127    55 C    1.106
    53   6 C    3.960 --    52 C    1.512    54 C    1.297   174 H    0.957
    54   6 C    3.965 --    50 C    1.455    53 C    1.297    72 C    1.012
    55   6 C    3.964 --    60 C    1.341    56 C    1.278    52 C    1.106
    56   6 C    3.978 --    55 C    1.278    57 C    1.277    64 C    1.195
    57   6 C    3.948 --    58 C    1.339    56 C    1.277    66 S    1.110
    58   6 C    3.961 --    57 C    1.339    59 C    1.274    67 C    1.112
    59   6 C    3.977 --    60 C    1.279    58 C    1.274    61 C    1.194
    60   6 C    3.948 --    55 C    1.341    59 C    1.279    63 S    1.103
    61   6 C    3.982 --    62 C    1.683    59 C    1.194   175 H    0.959
    62   6 C    3.933 --    61 C    1.683    63 S    1.145   176 H    0.969
    63  16 S    2.534 --    62 C    1.145    60 C    1.103
    64   6 C    3.981 --    65 C    1.680    56 C    1.195   177 H    0.956
    65   6 C    3.931 --    64 C    1.680    66 S    1.144   178 H    0.968
    66  16 S    2.559 --    65 C    1.144    57 C    1.110
    67   6 C    3.927 --    71 C    1.493    68 S    1.138    58 C    1.112
    68  16 S    2.589 --    67 C    1.138    69 C    1.110
    69   6 C    3.926 --    70 C    1.442    76 C    1.176    68 S    1.110
    70   6 C    3.965 --    69 C    1.442    71 C    1.311    74 C    1.012
    71   6 C    3.972 --    67 C    1.493    70 C    1.311   179 H    0.960
    72   6 C    3.996 --    54 C    1.012    73 C    0.999   181 H    0.970
                           180 H    0.970
    73   6 C    3.992 --    72 C    0.999   182 H    0.988   184 H    0.987
                           183 H    0.986
    74   6 C    3.995 --    70 C    1.012    75 C    1.000   185 H    0.973
                           186 H    0.955
    75   6 C    3.993 --    74 C    1.000   187 H    0.988   189 H    0.986
                           188 H    0.986
    76   6 C    3.928 --    80 C    1.447    69 C    1.176    77 S    1.141
    77  16 S    2.632 --    76 C    1.141    78 C    1.124
    78   6 C    3.931 --    79 C    1.451    81 C    1.165    77 S    1.124
    79   6 C    3.947 --    78 C    1.451    80 C    1.369   190 H    0.961
    80   6 C    3.970 --    76 C    1.447    79 C    1.369   191 H    0.960
    81   6 C    3.934 --    82 C    1.365    86 C    1.193    78 C    1.165
    82   6 C    3.857 --    81 C    1.365    83 C    1.311    87 F    0.954
    83   6 C    3.858 --    84 C    1.366    82 C    1.311    88 F    0.955
    84   6 C    3.935 --    83 C    1.366    85 C    1.193    94 C    1.164
    85   6 C    3.973 --    89 N    1.350    86 C    1.226    84 C    1.193
    86   6 C    3.972 --    91 N    1.348    85 C    1.226    81 C    1.193
    87   9 F    1.083 --    82 C    0.954
    88   9 F    1.084 --    83 C    0.955
    89   7 N    3.017 --    85 C    1.350    90 N    1.290    91 N    0.205
    90   7 N    3.753 --    91 N    1.291    89 N    1.290    92 C    0.976
    91   7 N    3.011 --    86 C    1.348    90 N    1.291    89 N    0.205
    92   6 C    3.952 --    93 C    1.006    90 N    0.976   192 H    0.967
                           193 H    0.954
    93   6 C    3.983 --    92 C    1.006   194 H    0.986   195 H    0.982
                           196 H    0.982
    94   6 C    3.933 --    95 C    1.452    84 C    1.164    98 S    1.127
    95   6 C    3.946 --    94 C    1.452    96 C    1.367   197 H    0.961
    96   6 C    3.972 --    97 C    1.451    95 C    1.367   198 H    0.960
    97   6 C    3.928 --    96 C    1.451    99 C    1.169    98 S    1.143
    98  16 S    2.641 --    97 C    1.143    94 C    1.127
    99   6 C    3.931 --   103 C    1.454    97 C    1.169   100 S    1.112
   100  16 S    2.580 --   101 C    1.135    99 C    1.112
   101   6 C    3.928 --   102 C    1.515   100 S    1.135   104 C    1.096
   102   6 C    3.975 --   101 C    1.515   103 C    1.298   199 H    0.961
   103   6 C    3.965 --    99 C    1.454   102 C    1.298   121 C    1.013
   104   6 C    3.967 --   109 C    1.351   105 C    1.280   101 C    1.096
   105   6 C    3.979 --   104 C    1.280   106 C    1.274   113 C    1.194
   106   6 C    3.948 --   107 C    1.350   105 C    1.274   115 S    1.105
   107   6 C    3.967 --   106 C    1.350   108 C    1.280   116 C    1.097
   108   6 C    3.978 --   107 C    1.280   109 C    1.273   110 C    1.194
   109   6 C    3.949 --   104 C    1.351   108 C    1.273   112 S    1.105
   110   6 C    3.981 --   111 C    1.682   108 C    1.194   200 H    0.958
   111   6 C    3.934 --   110 C    1.682   112 S    1.147   201 H    0.968
   112  16 S    2.545 --   111 C    1.147   109 C    1.105
   113   6 C    3.981 --   114 C    1.682   105 C    1.194   202 H    0.958
   114   6 C    3.934 --   113 C    1.682   115 S    1.147   203 H    0.968
   115  16 S    2.547 --   114 C    1.147   106 C    1.105
   116   6 C    3.925 --   120 C    1.507   117 S    1.135   107 C    1.097
   117  16 S    2.582 --   116 C    1.135   118 C    1.112
   118   6 C    3.930 --   119 C    1.435   125 C    1.187   117 S    1.112
   119   6 C    3.964 --   118 C    1.435   120 C    1.304   123 C    1.017
   120   6 C    3.976 --   116 C    1.507   119 C    1.304   204 H    0.958
   121   6 C    3.995 --   103 C    1.013   122 C    0.999   205 H    0.970
                           206 H    0.963
   122   6 C    3.993 --   121 C    0.999   207 H    0.988   208 H    0.985
                           209 H    0.984
   123   6 C    3.995 --   119 C    1.017   124 C    1.017   210 H    0.952
                           211 H    0.952
   124   6 C    3.995 --   123 C    1.017   214 H    0.987   212 H    0.986
                           213 H    0.986
   125   6 C    3.932 --   129 C    1.436   118 C    1.187   126 S    1.145
   126  16 S    2.630 --   125 C    1.145   127 C    1.130
   127   6 C    3.930 --   128 C    1.442   130 C    1.165   126 S    1.130
   128   6 C    3.955 --   127 C    1.442   129 C    1.380   215 H    0.956
   129   6 C    3.970 --   125 C    1.436   128 C    1.380   216 H    0.959
   130   6 C    3.943 --   131 C    1.376   135 C    1.186   127 C    1.165
   131   6 C    3.857 --   130 C    1.376   132 C    1.302   136 F    0.954
   132   6 C    3.871 --   133 C    1.384   131 C    1.302   137 F    0.956
   133   6 C    3.934 --   132 C    1.384   134 C    1.190   143 C    1.149
   134   6 C    3.976 --   138 N    1.350   135 C    1.223   133 C    1.190
   135   6 C    3.972 --   140 N    1.352   134 C    1.223   130 C    1.186
   136   9 F    1.107 --   131 C    0.954
   137   9 F    1.109 --   132 C    0.956
   138   7 N    2.987 --   134 C    1.350   139 N    1.292   140 N    0.210
   139   7 N    3.760 --   140 N    1.292   138 N    1.292   141 C    0.977
   140   7 N    2.990 --   135 C    1.352   139 N    1.292   138 N    0.210
   141   6 C    3.953 --   142 C    0.998   139 N    0.977   218 H    0.965
                           217 H    0.965
   142   6 C    3.983 --   141 C    0.998   221 H    0.986   219 H    0.986
                           220 H    0.981
   143   6 C    3.949 --   144 C    1.489   133 C    1.149   147 S    1.137
   144   6 C    3.950 --   143 C    1.489   145 C    1.319   222 H    0.956
   145   6 C    3.984 --   146 C    1.582   144 C    1.319   223 H    0.965
   146   6 C    3.924 --   145 C    1.582   147 S    1.220   224 H    0.970
   147  16 S    2.645 --   146 C    1.220   143 C    1.137
   148   1 H    0.997 --     1 C    0.969
   149   1 H    0.998 --     4 C    0.962
   150   1 H    0.997 --    12 C    0.959
   151   1 H    0.996 --    13 C    0.968
   152   1 H    0.997 --    15 C    0.959
   153   1 H    0.996 --    16 C    0.968
   154   1 H    0.997 --    22 C    0.961
   155   1 H    0.998 --    23 C    0.969
   156   1 H    0.998 --    23 C    0.977
   157   1 H    0.999 --    24 C    0.988
   158   1 H    0.997 --    24 C    0.986
   159   1 H    0.999 --    24 C    0.989
   160   1 H    0.997 --    25 C    0.972
   161   1 H    0.997 --    25 C    0.958
   162   1 H    0.998 --    26 C    0.988
   163   1 H    0.997 --    26 C    0.985
   164   1 H    0.998 --    26 C    0.985
   165   1 H    0.995 --    30 C    0.955
   166   1 H    0.997 --    31 C    0.958
   167   1 H    0.992 --    43 C    0.968
   168   1 H    0.990 --    43 C    0.958
   169   1 H    0.997 --    44 C    0.986
   170   1 H    0.995 --    44 C    0.982
   171   1 H    0.995 --    44 C    0.983
   172   1 H    0.996 --    46 C    0.962
   173   1 H    0.997 --    47 C    0.959
   174   1 H    0.996 --    53 C    0.957
   175   1 H    0.997 --    61 C    0.959
   176   1 H    0.996 --    62 C    0.969
   177   1 H    0.996 --    64 C    0.956
   178   1 H    0.996 --    65 C    0.968
   179   1 H    0.997 --    71 C    0.960
   180   1 H    0.997 --    72 C    0.970
   181   1 H    0.998 --    72 C    0.970
   182   1 H    0.998 --    73 C    0.988
   183   1 H    0.997 --    73 C    0.986
   184   1 H    0.999 --    73 C    0.987
   185   1 H    0.997 --    74 C    0.973
   186   1 H    0.996 --    74 C    0.955
   187   1 H    0.998 --    75 C    0.988
   188   1 H    0.997 --    75 C    0.986
   189   1 H    0.998 --    75 C    0.986
   190   1 H    0.996 --    79 C    0.961
   191   1 H    0.997 --    80 C    0.960
   192   1 H    0.991 --    92 C    0.967
   193   1 H    0.989 --    92 C    0.954
   194   1 H    0.997 --    93 C    0.986
   195   1 H    0.995 --    93 C    0.982
   196   1 H    0.995 --    93 C    0.982
   197   1 H    0.996 --    95 C    0.961
   198   1 H    0.997 --    96 C    0.960
   199   1 H    0.997 --   102 C    0.961
   200   1 H    0.997 --   110 C    0.958
   201   1 H    0.996 --   111 C    0.968
   202   1 H    0.997 --   113 C    0.958
   203   1 H    0.996 --   114 C    0.968
   204   1 H    0.997 --   120 C    0.958
   205   1 H    0.997 --   121 C    0.970
   206   1 H    0.997 --   121 C    0.963
   207   1 H    0.998 --   122 C    0.988
   208   1 H    0.997 --   122 C    0.985
   209   1 H    0.998 --   122 C    0.984
   210   1 H    0.996 --   123 C    0.952
   211   1 H    0.996 --   123 C    0.952
   212   1 H    0.998 --   124 C    0.986
   213   1 H    0.997 --   124 C    0.986
   214   1 H    0.998 --   124 C    0.987
   215   1 H    0.995 --   128 C    0.956
   216   1 H    0.997 --   129 C    0.959
   217   1 H    0.991 --   141 C    0.965
   218   1 H    0.991 --   141 C    0.965
   219   1 H    0.996 --   142 C    0.986
   220   1 H    0.995 --   142 C    0.981
   221   1 H    0.996 --   142 C    0.986
   222   1 H    0.996 --   144 C    0.956
   223   1 H    0.998 --   145 C    0.965
   224   1 H    0.997 --   146 C    0.970
 ---------------------------------------------------------------------------

Topologies differ in bond orders
Writing corrected topology to xtbtopo.mol

molecular dipole:
                 x           y           z       tot (Debye)
 q only:       -1.500      -1.865       2.258
   full:       -1.295      -1.873       2.193       8.035
molecular quadrupole (traceless):
                xx          xy          yy          xz          yz          zz
 q only:       31.897     100.255     112.669    -282.214      99.345    -144.566
  q+dip:       -1.065     105.089     118.062    -250.409      97.306    -116.997
   full:        5.852     104.758     116.135    -255.978      93.951    -121.987


           -------------------------------------------------
          | TOTAL ENERGY             -396.839555856442 Eh   |
          | GRADIENT NORM               0.016209466152 Eh/α |
          | HOMO-LUMO GAP               1.199511690460 eV   |
           -------------------------------------------------

------------------------------------------------------------------------
 * finished run on 2021/12/28 at 12:01:17.137     
------------------------------------------------------------------------
 total:
 * wall-time:     0 d,  0 h,  0 min,  3.414 sec
 *  cpu-time:     0 d,  0 h,  0 min,  3.412 sec
 * ratio c/w:     0.999 speedup
 SCF:
 * wall-time:     0 d,  0 h,  0 min,  3.217 sec
 *  cpu-time:     0 d,  0 h,  0 min,  3.215 sec
 * ratio c/w:     1.000 speedup

