      -----------------------------------------------------------      
     |                   =====================                   |     
     |                           x T B                           |     
     |                   =====================                   |     
     |                         S. Grimme                         |     
     |          Mulliken Center for Theoretical Chemistry        |     
     |                    University of Bonn                     |     
      -----------------------------------------------------------      

   * xtb version 6.4.1 (unknown) compiled by 'oda6@login1.crc.pitt.edu' on 2021-06-25

   xtb is free software: you can redistribute it and/or modify it under
   the terms of the GNU Lesser General Public License as published by
   the Free Software Foundation, either version 3 of the License, or
   (at your option) any later version.
   
   xtb is distributed in the hope that it will be useful,
   but WITHOUT ANY WARRANTY; without even the implied warranty of
   MERCHANTABILITY or FITNESS FOR A PARTICULAR PURPOSE.  See the
   GNU Lesser General Public License for more details.
   
   Cite this work as:
   * C. Bannwarth, E. Caldeweyher, S. Ehlert, A. Hansen, P. Pracht,
     J. Seibert, S. Spicher, S. Grimme, WIREs Comput. Mol. Sci., 2020, 11,
     e01493. DOI: 10.1002/wcms.1493
   
   for GFN2-xTB:
   * C. Bannwarth, S. Ehlert and S. Grimme., J. Chem. Theory Comput., 2019,
     15, 1652-1671. DOI: 10.1021/acs.jctc.8b01176
   for GFN1-xTB:
   * S. Grimme, C. Bannwarth, P. Shushkov, J. Chem. Theory Comput., 2017,
     13, 1989-2009. DOI: 10.1021/acs.jctc.7b00118
   for GFN0-xTB:
   * P. Pracht, E. Caldeweyher, S. Ehlert, S. Grimme, ChemRxiv, 2019, preprint.
     DOI: 10.26434/chemrxiv.8326202.v1
   for GFN-FF:
   * S. Spicher and S. Grimme, Angew. Chem. Int. Ed., 2020, 59, 15665-15673.
     DOI: 10.1002/anie.202004239
   
   for DFT-D4:
   * E. Caldeweyher, C. Bannwarth and S. Grimme, J. Chem. Phys., 2017,
     147, 034112. DOI: 10.1063/1.4993215
   * E. Caldeweyher, S. Ehlert, A. Hansen, H. Neugebauer, S. Spicher,
     C. Bannwarth and S. Grimme, J. Chem. Phys., 2019, 150, 154122.
     DOI: 10.1063/1.5090222
   * E. Caldeweyher, J.-M. Mewes, S. Ehlert and S. Grimme, Phys. Chem. Chem. Phys.
     2020, 22, 8499-8512. DOI: 10.1039/D0CP00502A
   
   for sTDA-xTB:
   * S. Grimme and C. Bannwarth, J. Chem. Phys., 2016, 145, 054103.
     DOI: 10.1063/1.4959605
   
   in the mass-spec context:
   * V. Asgeirsson, C. Bauer and S. Grimme, Chem. Sci., 2017, 8, 4879.
     DOI: 10.1039/c7sc00601b
   * J. Koopman and S. Grimme, ACS Omega 2019, 4, 12, 15120-15133.
     DOI: 10.1021/acsomega.9b02011
   
   for metadynamics refer to:
   * S. Grimme, J. Chem. Theory Comput., 2019, 155, 2847-2862
     DOI: 10.1021/acs.jctc.9b00143
   
   for SPH calculations refer to:
   * S. Spicher and S. Grimme, J. Chem. Theory Comput., 2021, 17, 1701-1714
     DOI: 10.1021/acs.jctc.0c01306
   
   with help from (in alphabetical order)
   P. Atkinson, C. Bannwarth, F. Bohle, G. Brandenburg, E. Caldeweyher
   M. Checinski, S. Dohm, S. Ehlert, S. Ehrlich, I. Gerasimov, J. Koopman
   C. Lavigne, S. Lehtola, F. März, M. Müller, F. Musil, H. Neugebauer
   J. Pisarek, C. Plett, P. Pracht, J. Seibert, P. Shushkov, S. Spicher
   M. Stahn, M. Steiner, T. Strunk, J. Stückrath, T. Rose, and J. Unsleber
   
 * started run on 2021/12/28 at 11:47:22.888     

           -------------------------------------------------
          |                Calculation Setup                |
           -------------------------------------------------

          program call               : /ihome/ghutchison/oda6/xtb/xtb-641/bin//xtb DRBDT-TVT.mol --sp --alpb water
          hostname                   : smp-n64
          coordinate file            : DRBDT-TVT.mol
          omp threads                :                     1
          number of atoms            :                   162
          number of electrons        :                   494
          charge                     :                     0
          spin                       :                   0.0
          first test random number   :      0.96494434216072

   ID    Z sym.   atoms
    1    6 C      1-6, 8, 9, 11-17, 19-21, 23, 24, 26-31, 33-37, 40-43,
                  45-49, 51, 53, 56-69, 71, 72, 74, 76, 78, 79, 81-85, 87-92,
                  94-98
    2   16 S      7, 10, 18, 22, 25, 32, 38, 39, 44, 50, 54, 70, 73, 80, 86,
                  93
    3    7 N      52, 75
    4    8 O      55, 77
    5    1 H      99-162

           -------------------------------------------------
          |                 G F N 2 - x T B                 |
           -------------------------------------------------

        Reference                      10.1021/acs.jctc.8b01176
      * Hamiltonian:
        H0-scaling (s, p, d)           1.850000    2.230000    2.230000
        zeta-weighting                 0.500000
      * Dispersion:
        s8                             2.700000
        a1                             0.520000
        a2                             5.000000
        s9                             5.000000
      * Repulsion:
        kExp                           1.500000    1.000000
        rExp                           1.000000
      * Coulomb:
        alpha                          2.000000
        third order                    shell-resolved
        anisotropic                    true
        a3                             3.000000
        a5                             4.000000
        cn-shift                       1.200000
        cn-exp                         4.000000
        max-rad                        5.000000

      * Solvation model:               ALPB
        Solvent                        water
        Parameter file                 internal GFN2-xTB/ALPB
        Dielectric constant                8.0200E+01
        Reference state                gsolv [1 M gas/solution]
        Free energy shift                  1.0808E-03 Eh       6.7819E-01 kcal/mol
        Temperature                        2.9815E+02 K
        Density                            1.0000E+00 kg/L
        Solvent mass                       1.8000E+01 g/mol
        Interaction kernel             P16
        Born radius scaling (c1)           1.4744E+00
        Born radii integrator          GBOBC
        Born offset                        0.0000E+00 a0       0.0000E+00 AA
        H-bond correction              true
        Ion screening                  false
        Surface tension                    1.0000E-05 Eh       1.5569E+01 dyn/cm
        Grid points                               230 per atom

          ...................................................
          :                      SETUP                      :
          :.................................................:
          :  # basis functions                 552          :
          :  # atomic orbitals                 536          :
          :  # shells                          276          :
          :  # electrons                       494          :
          :  max. iterations                   250          :
          :  Hamiltonian                  GFN2-xTB          :
          :  restarted?                      false          :
          :  GBSA solvation                   true          :
          :  PC potential                    false          :
          :  electronic temp.          300.0000000     K    :
          :  accuracy                    1.0000000          :
          :  -> integral cutoff          0.2500000E+02      :
          :  -> integral neglect         0.1000000E-07      :
          :  -> SCF convergence          0.1000000E-05 Eh   :
          :  -> wf. convergence          0.1000000E-03 e    :
          :  Broyden damping             0.4000000          :
          ...................................................

 iter      E             dE          RMSdq      gap      omega  full diag
   1   -269.2758079 -0.269276E+03  0.443E+00    0.87       0.0  T
   2   -269.5101848 -0.234377E+00  0.238E+00    0.69       1.0  T
   3   -269.4834862  0.266986E-01  0.105E+00    0.85       1.0  T
   4   -269.5342648 -0.507786E-01  0.414E-01    0.74       1.0  T
   5   -269.5443519 -0.100871E-01  0.159E-01    0.75       1.0  T
   6   -269.5448192 -0.467350E-03  0.825E-02    0.75       1.0  T
   7   -269.5453323 -0.513060E-03  0.237E-02    0.75       1.0  T
   8   -269.5453474 -0.151003E-04  0.138E-02    0.75       1.0  T
   9   -269.5453521 -0.469003E-05  0.765E-03    0.75       1.0  T
  10   -269.5453535 -0.144267E-05  0.370E-03    0.75       2.1  T
  11   -269.5453539 -0.368579E-06  0.221E-03    0.75       3.6  T
  12   -269.5453540 -0.106760E-06  0.107E-03    0.75       7.4  T
  13   -269.5453541 -0.428990E-07  0.484E-04    0.75      16.2  T
  14   -269.5453541 -0.817283E-08  0.240E-04    0.75      32.7  T

   *** convergence criteria satisfied after 14 iterations ***

         #    Occupation            Energy/Eh            Energy/eV
      -------------------------------------------------------------
         1        2.0000           -0.7580683             -20.6281
       ...           ...                  ...                  ...
       241        2.0000           -0.3775478             -10.2736
       242        2.0000           -0.3765139             -10.2455
       243        2.0000           -0.3751862             -10.2093
       244        2.0000           -0.3656558              -9.9500
       245        2.0000           -0.3605429              -9.8109
       246        2.0000           -0.3598147              -9.7911
       247        2.0000           -0.3511055              -9.5541 (HOMO)
       248        0.0000           -0.3235045              -8.8030 (LUMO)
       249        0.0000           -0.3218684              -8.7585
       250                         -0.3022947              -8.2259
       251                         -0.2900741              -7.8933
       252                         -0.2881594              -7.8412
       ...                                ...                  ...
       536                          0.7094040              19.3039
      -------------------------------------------------------------
                  HL-Gap            0.0276010 Eh            0.7511 eV
             Fermi-level           -0.3373830 Eh           -9.1807 eV

 SCC (total)                   0 d,  0 h,  0 min,  1.553 sec
 SCC setup                      ...        0 min,  0.010 sec (  0.621%)
 Dispersion                     ...        0 min,  0.012 sec (  0.785%)
 classical contributions        ...        0 min,  0.001 sec (  0.056%)
 integral evaluation            ...        0 min,  0.113 sec (  7.299%)
 iterations                     ...        0 min,  1.045 sec ( 67.264%)
 molecular gradient             ...        0 min,  0.365 sec ( 23.502%)
 printout                       ...        0 min,  0.007 sec (  0.467%)

         :::::::::::::::::::::::::::::::::::::::::::::::::::::
         ::                     SUMMARY                     ::
         :::::::::::::::::::::::::::::::::::::::::::::::::::::
         :: total energy            -265.697331709192 Eh    ::
         :: total w/o Gsasa/hb      -265.703272611062 Eh    ::
         :: gradient norm              0.039229470731 Eh/a0 ::
         :: HOMO-LUMO gap              0.751060323777 eV    ::
         ::.................................................::
         :: SCC energy              -269.545354067001 Eh    ::
         :: -> isotropic ES            0.127274277794 Eh    ::
         :: -> anisotropic ES          0.002382158309 Eh    ::
         :: -> anisotropic XC          0.113062000195 Eh    ::
         :: -> dispersion             -0.242147142821 Eh    ::
         :: -> Gsolv                  -0.023422239651 Eh    ::
         ::    -> Gelec               -0.029363141521 Eh    ::
         ::    -> Gsasa                0.011158102577 Eh    ::
         ::    -> Ghb                 -0.006297960405 Eh    ::
         ::    -> Gshift               0.001080759698 Eh    ::
         :: repulsion energy           3.852509934334 Eh    ::
         :: add. restraining           0.000000000000 Eh    ::
         :: total charge              -0.000000000393 e     ::
         :::::::::::::::::::::::::::::::::::::::::::::::::::::

           -------------------------------------------------
          |                Property Printout                |
           -------------------------------------------------

    * Orbital Energies and Occupations

         #    Occupation            Energy/Eh            Energy/eV
      -------------------------------------------------------------
         1        2.0000           -0.7580683             -20.6281
       ...           ...                  ...                  ...
       235        2.0000           -0.3985607             -10.8454
       236        2.0000           -0.3979576             -10.8290
       237        2.0000           -0.3946115             -10.7379
       238        2.0000           -0.3939226             -10.7192
       239        2.0000           -0.3871907             -10.5360
       240        2.0000           -0.3836784             -10.4404
       241        2.0000           -0.3775478             -10.2736
       242        2.0000           -0.3765139             -10.2455
       243        2.0000           -0.3751862             -10.2093
       244        2.0000           -0.3656558              -9.9500
       245        2.0000           -0.3605429              -9.8109
       246        2.0000           -0.3598147              -9.7911
       247        2.0000           -0.3511055              -9.5541 (HOMO)
       248        0.0000           -0.3235045              -8.8030 (LUMO)
       249        0.0000           -0.3218684              -8.7585
       250                         -0.3022947              -8.2259
       251                         -0.2900741              -7.8933
       252                         -0.2881594              -7.8412
       253                         -0.2813746              -7.6566
       254                         -0.2788217              -7.5871
       255                         -0.2738470              -7.4518
       256                         -0.2608767              -7.0988
       257                         -0.2525094              -6.8711
       258                         -0.2520558              -6.8588
       ...                                ...                  ...
       536                          0.7094040              19.3039
      -------------------------------------------------------------
                  HL-Gap            0.0276010 Eh            0.7511 eV
             Fermi-level           -0.3373830 Eh           -9.1807 eV

     #   Z          covCN         q      C6AA      α(0)
     1   6 C        3.008     0.022    27.500     8.602
     2   6 C        3.136    -0.004    27.892     8.645
     3   6 C        3.010    -0.009    28.235     8.716
     4   6 C        3.006     0.021    27.533     8.607
     5   6 C        3.135    -0.004    27.901     8.646
     6   6 C        3.012    -0.010    28.254     8.719
     7  16 S        2.280    -0.075   144.184    20.210
     8   6 C        3.019     0.028    27.347     8.578
     9   6 C        3.071    -0.057    29.347     8.882
    10  16 S        2.323    -0.081   144.436    20.227
    11   6 C        3.020     0.030    27.307     8.572
    12   6 C        3.071    -0.058    29.368     8.886
    13   6 C        2.990     0.021    27.532     8.607
    14   6 C        2.989     0.020    27.542     8.609
    15   6 C        3.109    -0.050    29.090     8.836
    16   6 C        3.103    -0.055    29.218     8.857
    17   6 C        2.989     0.029    27.343     8.578
    18  16 S        2.366    -0.056   143.387    20.154
    19   6 C        3.110    -0.050    29.098     8.837
    20   6 C        3.103    -0.055    29.219     8.857
    21   6 C        2.988     0.030    27.334     8.576
    22  16 S        2.367    -0.055   143.330    20.150
    23   6 C        3.019     0.023    27.467     8.597
    24   6 C        3.016     0.023    27.482     8.599
    25  16 S        2.387    -0.048   143.059    20.131
    26   6 C        3.018     0.012    27.730     8.638
    27   6 C        3.122     0.005    27.724     8.623
    28   6 C        3.106    -0.056    29.252     8.862
    29   6 C        3.105    -0.054    29.208     8.855
    30   6 C        3.119     0.005    27.737     8.626
    31   6 C        3.019     0.012    27.714     8.635
    32  16 S        2.344    -0.057   143.404    20.155
    33   6 C        3.035     0.024    27.434     8.591
    34   6 C        3.033     0.022    27.474     8.598
    35   6 C        3.103    -0.051    29.123     8.843
    36   6 C        3.105    -0.046    28.996     8.823
    37   6 C        3.036     0.018    27.568     8.612
    38  16 S        2.340    -0.008   141.372    20.012
    39  16 S        2.341    -0.003   141.166    19.997
    40   6 C        3.037     0.018    27.571     8.612
    41   6 C        3.105    -0.045    28.983     8.821
    42   6 C        3.104    -0.051    29.128     8.843
    43   6 C        3.010     0.029    27.327     8.575
    44  16 S        2.380    -0.034   142.443    20.087
    45   6 C        2.975     0.028    27.380     8.583
    46   6 C        3.100    -0.048    29.053     8.833
    47   6 C        3.129     0.005    27.703     8.617
    48   6 C        3.014    -0.022    28.532     8.762
    49   6 C        2.954    -0.014    28.365     8.735
    50  16 S        2.370    -0.060   143.550    20.165
    51   6 C        2.900     0.162    24.506     8.117
    52   7 N        2.910    -0.058    22.348     7.021
    53   6 C        2.887     0.271    22.440     7.766
    54  16 S        1.162    -0.407   157.125    21.194
    55   8 O        0.858    -0.465    23.018     6.432
    56   6 C        3.747     0.004    20.580     6.471
    57   6 C        3.753    -0.117    22.798     6.809
    58   6 C        3.804    -0.063    21.712     6.634
    59   6 C        3.752    -0.114    22.748     6.802
    60   6 C        2.938    -0.047    29.179     8.859
    61   6 C        2.939    -0.042    29.041     8.838
    62   6 C        2.939    -0.047    29.173     8.858
    63   6 C        2.939    -0.042    29.049     8.840
    64   6 C        3.805    -0.064    21.725     6.636
    65   6 C        3.752    -0.114    22.751     6.802
    66   6 C        3.021     0.021    27.519     8.605
    67   6 C        3.108     0.007    27.719     8.626
    68   6 C        3.113    -0.050    29.084     8.835
    69   6 C        2.975     0.028    27.364     8.581
    70  16 S        2.379    -0.019   141.820    20.043
    71   6 C        2.964    -0.024    28.609     8.773
    72   6 C        2.957    -0.015    28.383     8.738
    73  16 S        2.352    -0.057   143.419    20.156
    74   6 C        2.903     0.160    24.537     8.122
    75   7 N        2.906    -0.058    22.350     7.022
    76   6 C        2.896     0.269    22.470     7.772
    77   8 O        0.918    -0.454    22.758     6.398
    78   6 C        3.746     0.005    20.564     6.468
    79   6 C        3.752    -0.117    22.793     6.808
    80  16 S        1.161    -0.407   157.121    21.194
    81   6 C        3.805    -0.065    21.750     6.639
    82   6 C        3.754    -0.111    22.688     6.792
    83   6 C        3.804    -0.068    21.790     6.646
    84   6 C        3.754    -0.114    22.742     6.800
    85   6 C        2.988     0.021    27.530     8.607
    86  16 S        2.370    -0.060   143.556    20.166
    87   6 C        2.985     0.026    27.409     8.588
    88   6 C        3.115    -0.061    29.343     8.873
    89   6 C        3.105    -0.056    29.237     8.860
    90   6 C        3.825    -0.062    21.668     6.624
    91   6 C        3.753    -0.111    22.675     6.790
    92   6 C        2.988     0.021    27.526     8.606
    93  16 S        2.371    -0.060   143.548    20.165
    94   6 C        2.985     0.026    27.410     8.588
    95   6 C        3.115    -0.061    29.343     8.873
    96   6 C        3.105    -0.056    29.238     8.860
    97   6 C        3.825    -0.062    21.668     6.624
    98   6 C        3.753    -0.111    22.676     6.790
    99   1 H        0.926     0.055     2.259     2.351
   100   1 H        0.926     0.060     2.200     2.319
   101   1 H        0.926     0.049     2.338     2.391
   102   1 H        0.926     0.048     2.349     2.397
   103   1 H        0.926     0.050     2.319     2.381
   104   1 H        0.926     0.049     2.331     2.388
   105   1 H        0.926     0.062     2.170     2.304
   106   1 H        0.926     0.064     2.153     2.294
   107   1 H        0.926     0.056     2.247     2.344
   108   1 H        0.926     0.059     2.207     2.323
   109   1 H        0.926     0.051     2.302     2.373
   110   1 H        0.926     0.052     2.290     2.366
   111   1 H        0.926     0.081     1.968     2.194
   112   1 H        0.925     0.086     1.914     2.163
   113   1 H        0.924     0.075     2.033     2.230
   114   1 H        0.924     0.084     1.934     2.175
   115   1 H        0.925     0.053     2.281     2.362
   116   1 H        0.925     0.073     2.058     2.243
   117   1 H        0.925     0.053     2.286     2.364
   118   1 H        0.924     0.066     2.128     2.281
   119   1 H        0.924     0.065     2.147     2.291
   120   1 H        0.925     0.046     2.365     2.405
   121   1 H        0.925     0.050     2.316     2.380
   122   1 H        0.925     0.047     2.362     2.404
   123   1 H        0.926     0.048     2.347     2.396
   124   1 H        0.926     0.049     2.336     2.390
   125   1 H        0.926     0.046     2.367     2.406
   126   1 H        0.926     0.048     2.342     2.393
   127   1 H        0.924     0.066     2.128     2.281
   128   1 H        0.924     0.067     2.122     2.278
   129   1 H        0.925     0.046     2.368     2.407
   130   1 H        0.925     0.051     2.303     2.373
   131   1 H        0.925     0.047     2.363     2.404
   132   1 H        0.926     0.072     2.061     2.245
   133   1 H        0.925     0.093     1.854     2.129
   134   1 H        0.924     0.075     2.027     2.226
   135   1 H        0.924     0.083     1.952     2.185
   136   1 H        0.925     0.054     2.271     2.357
   137   1 H        0.925     0.073     2.056     2.242
   138   1 H        0.925     0.052     2.290     2.367
   139   1 H        0.924     0.058     2.219     2.329
   140   1 H        0.924     0.064     2.156     2.296
   141   1 H        0.925     0.043     2.415     2.430
   142   1 H        0.925     0.056     2.246     2.344
   143   1 H        0.925     0.045     2.388     2.417
   144   1 H        0.924     0.064     2.153     2.295
   145   1 H        0.924     0.062     2.177     2.307
   146   1 H        0.925     0.045     2.387     2.416
   147   1 H        0.925     0.058     2.227     2.334
   148   1 H        0.925     0.046     2.375     2.410
   149   1 H        0.926     0.042     2.421     2.433
   150   1 H        0.926     0.041     2.437     2.441
   151   1 H        0.924     0.052     2.291     2.367
   152   1 H        0.924     0.056     2.249     2.345
   153   1 H        0.925     0.043     2.413     2.429
   154   1 H        0.925     0.051     2.313     2.379
   155   1 H        0.925     0.046     2.365     2.405
   156   1 H        0.926     0.042     2.416     2.431
   157   1 H        0.926     0.042     2.420     2.433
   158   1 H        0.924     0.052     2.291     2.367
   159   1 H        0.924     0.056     2.252     2.347
   160   1 H        0.925     0.043     2.409     2.427
   161   1 H        0.925     0.050     2.319     2.381
   162   1 H        0.925     0.046     2.366     2.405

 Mol. C6AA /au·bohr⁶  :     502906.120208
 Mol. C8AA /au·bohr⁸  :   15433069.201483
 Mol. α(0) /au        :       1145.264689


Wiberg/Mayer (AO) data.
largest (>0.10) Wiberg bond orders for each atom

 ---------------------------------------------------------------------------
     #   Z sym  total        # sym  WBO       # sym  WBO       # sym  WBO
 ---------------------------------------------------------------------------
     1   6 C    3.936 --     6 C    1.354     2 C    1.255    10 S    1.101
     2   6 C    3.965 --     1 C    1.255     3 C    1.255    12 C    1.241
     3   6 C    3.946 --     4 C    1.357     2 C    1.255    14 C    1.109
     4   6 C    3.937 --     3 C    1.357     5 C    1.256     7 S    1.098
     5   6 C    3.965 --     6 C    1.257     4 C    1.256     9 C    1.240
     6   6 C    3.946 --     1 C    1.354     5 C    1.257    13 C    1.109
     7  16 S    2.496 --     4 C    1.098     8 C    1.080
     8   6 C    3.929 --     9 C    1.530    24 C    1.172     7 S    1.080
     9   6 C    3.954 --     8 C    1.530     5 C    1.240    99 H    0.951
    10  16 S    2.508 --     1 C    1.101    11 C    1.089
    11   6 C    3.928 --    12 C    1.521    23 C    1.170    10 S    1.089
    12   6 C    3.952 --    11 C    1.521     2 C    1.241   100 H    0.953
    13   6 C    3.925 --    15 C    1.492    18 S    1.133     6 C    1.109
    14   6 C    3.925 --    19 C    1.493    22 S    1.132     3 C    1.109
    15   6 C    3.972 --    13 C    1.492    16 C    1.342   101 H    0.958
    16   6 C    3.950 --    17 C    1.467    15 C    1.342   102 H    0.961
    17   6 C    3.934 --    16 C    1.467    62 C    1.184    18 S    1.126
    18  16 S    2.561 --    13 C    1.133    17 C    1.126
    19   6 C    3.971 --    14 C    1.493    20 C    1.342   103 H    0.957
    20   6 C    3.950 --    21 C    1.467    19 C    1.342   104 H    0.961
    21   6 C    3.934 --    20 C    1.467    60 C    1.184    22 S    1.126
    22  16 S    2.560 --    14 C    1.132    21 C    1.126
    23   6 C    3.923 --    28 C    1.453    11 C    1.170    25 S    1.135
    24   6 C    3.922 --    29 C    1.464     8 C    1.172    32 S    1.122
    25  16 S    2.572 --    23 C    1.135    26 C    1.111
    26   6 C    3.921 --    27 C    1.405    33 C    1.203    25 S    1.111
    27   6 C    3.959 --    26 C    1.405    28 C    1.334    58 C    1.018
    28   6 C    3.961 --    23 C    1.453    27 C    1.334   105 H    0.958
    29   6 C    3.961 --    24 C    1.464    30 C    1.328   106 H    0.955
    30   6 C    3.959 --    31 C    1.410    29 C    1.328    64 C    1.018
    31   6 C    3.922 --    30 C    1.410    34 C    1.203    32 S    1.108
    32  16 S    2.557 --    24 C    1.122    31 C    1.108
    33   6 C    3.925 --    35 C    1.418    26 C    1.203    38 S    1.135
    34   6 C    3.925 --    42 C    1.419    31 C    1.203    39 S    1.136
    35   6 C    3.961 --    33 C    1.418    36 C    1.397   107 H    0.958
    36   6 C    3.959 --    37 C    1.418    35 C    1.397   108 H    0.957
    37   6 C    3.928 --    36 C    1.418    43 C    1.213    38 S    1.117
    38  16 S    2.622 --    33 C    1.135    37 C    1.117
    39  16 S    2.624 --    34 C    1.136    40 C    1.118
    40   6 C    3.931 --    41 C    1.419    66 C    1.212    39 S    1.118
    41   6 C    3.963 --    40 C    1.419    42 C    1.398   109 H    0.958
    42   6 C    3.962 --    34 C    1.419    41 C    1.398   110 H    0.958
    43   6 C    3.927 --    47 C    1.370    37 C    1.213    44 S    1.143
    44  16 S    2.558 --    43 C    1.143    45 C    1.089
    45   6 C    3.931 --    46 C    1.393    48 C    1.276    44 S    1.089
    46   6 C    3.963 --    45 C    1.393    47 C    1.383   111 H    0.945
    47   6 C    3.966 --    46 C    1.383    43 C    1.370    81 C    1.013
    48   6 C    3.930 --    49 C    1.520    45 C    1.276   112 H    0.954
    49   6 C    3.907 --    48 C    1.520    53 C    1.092    50 S    1.052
    50  16 S    2.512 --    51 C    1.115    49 C    1.052    54 S    0.149
    51   6 C    3.941 --    54 S    1.512    52 N    1.234    50 S    1.115
    52   7 N    3.609 --    51 C    1.234    53 C    1.103    56 C    0.957
                            55 O    0.120    54 S    0.103
    53   6 C    3.931 --    55 O    1.612    52 N    1.103    49 C    1.092
    54  16 S    1.843 --    51 C    1.512    50 S    0.149    52 N    0.103
    55   8 O    1.984 --    53 C    1.612    52 N    0.120
    56   6 C    3.944 --    57 C    1.007   113 H    0.965   114 H    0.963
                            52 N    0.957
    57   6 C    3.989 --    56 C    1.007   117 H    0.986   115 H    0.985
                           116 H    0.980
    58   6 C    3.993 --    27 C    1.018    59 C    1.017   119 H    0.950
                           118 H    0.948
    59   6 C    3.993 --    58 C    1.017   122 H    0.986   120 H    0.986
                           121 H    0.985
    60   6 C    3.984 --    61 C    1.657    21 C    1.184   123 H    0.961
    61   6 C    3.972 --    60 C    1.657    92 C    1.184   124 H    0.961
    62   6 C    3.984 --    63 C    1.657    17 C    1.184   125 H    0.962
    63   6 C    3.972 --    62 C    1.657    85 C    1.184   126 H    0.961
    64   6 C    3.993 --    30 C    1.018    65 C    1.017   127 H    0.949
                           128 H    0.948
    65   6 C    3.993 --    64 C    1.017   129 H    0.986   131 H    0.986
                           130 H    0.985
    66   6 C    3.940 --    67 C    1.351    40 C    1.212    70 S    1.158
    67   6 C    3.959 --    68 C    1.408    66 C    1.351    83 C    1.014
    68   6 C    3.964 --    67 C    1.408    69 C    1.359   132 H    0.960
    69   6 C    3.935 --    68 C    1.359    71 C    1.294    70 S    1.106
    70  16 S    2.693 --    66 C    1.158    69 C    1.106
    71   6 C    3.929 --    72 C    1.504    69 C    1.294   133 H    0.949
    72   6 C    3.908 --    71 C    1.504    76 C    1.110    73 S    1.054
    73  16 S    2.518 --    74 C    1.113    72 C    1.054    80 S    0.152
    74   6 C    3.938 --    80 S    1.514    75 N    1.230    73 S    1.113
    75   7 N    3.607 --    74 C    1.230    76 C    1.109    78 C    0.957
                            77 O    0.114    80 S    0.103
    76   6 C    3.931 --    77 O    1.583    72 C    1.110    75 N    1.109
    77   8 O    2.030 --    76 C    1.583    75 N    0.114
    78   6 C    3.944 --    79 C    1.007   134 H    0.965   135 H    0.963
                            75 N    0.957
    79   6 C    3.989 --    78 C    1.007   138 H    0.986   136 H    0.985
                           137 H    0.980
    80  16 S    1.845 --    74 C    1.514    73 S    0.152    75 N    0.103
    81   6 C    3.992 --    47 C    1.013    82 C    0.997   139 H    0.970
                           140 H    0.956
    82   6 C    3.990 --    81 C    0.997   141 H    0.988   143 H    0.985
                           142 H    0.984
    83   6 C    3.991 --    67 C    1.014    84 C    0.997   145 H    0.970
                           144 H    0.957
    84   6 C    3.989 --    83 C    0.997   148 H    0.987   146 H    0.985
                           147 H    0.984
    85   6 C    3.947 --    89 C    1.489    63 C    1.184    86 S    1.115
    86  16 S    2.565 --    87 C    1.168    85 C    1.115
    87   6 C    3.924 --    88 C    1.559    86 S    1.168    90 C    1.028
    88   6 C    3.982 --    87 C    1.559    89 C    1.313   149 H    0.964
    89   6 C    3.949 --    85 C    1.489    88 C    1.313   150 H    0.962
    90   6 C    3.994 --    87 C    1.028    91 C    0.998   151 H    0.970
                           152 H    0.965
    91   6 C    3.990 --    90 C    0.998   153 H    0.988   155 H    0.987
                           154 H    0.985
    92   6 C    3.947 --    96 C    1.489    61 C    1.184    93 S    1.115
    93  16 S    2.565 --    94 C    1.168    92 C    1.115
    94   6 C    3.924 --    95 C    1.559    93 S    1.168    97 C    1.028
    95   6 C    3.982 --    94 C    1.559    96 C    1.313   156 H    0.964
    96   6 C    3.948 --    92 C    1.489    95 C    1.313   157 H    0.962
    97   6 C    3.994 --    94 C    1.028    98 C    0.998   158 H    0.970
                           159 H    0.965
    98   6 C    3.990 --    97 C    0.998   160 H    0.988   162 H    0.987
                           161 H    0.985
    99   1 H    0.996 --     9 C    0.951
   100   1 H    0.996 --    12 C    0.953
   101   1 H    0.997 --    15 C    0.958
   102   1 H    0.997 --    16 C    0.961
   103   1 H    0.997 --    19 C    0.957
   104   1 H    0.997 --    20 C    0.961
   105   1 H    0.996 --    28 C    0.958
   106   1 H    0.995 --    29 C    0.955
   107   1 H    0.996 --    35 C    0.958
   108   1 H    0.996 --    36 C    0.957
   109   1 H    0.997 --    41 C    0.958
   110   1 H    0.997 --    42 C    0.958
   111   1 H    0.993 --    46 C    0.945
   112   1 H    0.991 --    48 C    0.954
   113   1 H    0.994 --    56 C    0.965
   114   1 H    0.993 --    56 C    0.963
   115   1 H    0.997 --    57 C    0.985
   116   1 H    0.994 --    57 C    0.980
   117   1 H    0.997 --    57 C    0.986
   118   1 H    0.993 --    58 C    0.948
   119   1 H    0.994 --    58 C    0.950
   120   1 H    0.998 --    59 C    0.986
   121   1 H    0.997 --    59 C    0.985
   122   1 H    0.998 --    59 C    0.986
   123   1 H    0.997 --    60 C    0.961
   124   1 H    0.997 --    61 C    0.961
   125   1 H    0.998 --    62 C    0.962
   126   1 H    0.997 --    63 C    0.961
   127   1 H    0.993 --    64 C    0.949
   128   1 H    0.993 --    64 C    0.948
   129   1 H    0.998 --    65 C    0.986
   130   1 H    0.997 --    65 C    0.985
   131   1 H    0.998 --    65 C    0.986
   132   1 H    0.994 --    68 C    0.960
   133   1 H    0.990 --    71 C    0.949
   134   1 H    0.994 --    78 C    0.965
   135   1 H    0.993 --    78 C    0.963
   136   1 H    0.997 --    79 C    0.985
   137   1 H    0.994 --    79 C    0.980
   138   1 H    0.997 --    79 C    0.986
   139   1 H    0.996 --    81 C    0.970
   140   1 H    0.995 --    81 C    0.956
   141   1 H    0.998 --    82 C    0.988
   142   1 H    0.995 --    82 C    0.984
   143   1 H    0.998 --    82 C    0.985
   144   1 H    0.995 --    83 C    0.957
   145   1 H    0.995 --    83 C    0.970
   146   1 H    0.998 --    84 C    0.985
   147   1 H    0.995 --    84 C    0.984
   148   1 H    0.998 --    84 C    0.987
   149   1 H    0.998 --    88 C    0.964
   150   1 H    0.998 --    89 C    0.962
   151   1 H    0.997 --    90 C    0.970
   152   1 H    0.995 --    90 C    0.965
   153   1 H    0.998 --    91 C    0.988
   154   1 H    0.997 --    91 C    0.985
   155   1 H    0.998 --    91 C    0.987
   156   1 H    0.998 --    95 C    0.964
   157   1 H    0.998 --    96 C    0.962
   158   1 H    0.997 --    97 C    0.970
   159   1 H    0.995 --    97 C    0.965
   160   1 H    0.998 --    98 C    0.988
   161   1 H    0.997 --    98 C    0.985
   162   1 H    0.998 --    98 C    0.987
 ---------------------------------------------------------------------------

Topologies differ in bond orders
Writing corrected topology to xtbtopo.mol

molecular dipole:
                 x           y           z       tot (Debye)
 q only:       -3.417       6.959       1.160
   full:       -3.292       6.385       1.189      18.507
molecular quadrupole (traceless):
                xx          xy          yy          xz          yz          zz
 q only:     -297.266    -136.789     123.999     -19.798     -29.163     173.267
  q+dip:     -292.090    -112.902     123.671     -10.018     -20.568     168.418
   full:     -297.398    -111.615     117.702     -14.470     -21.822     179.696


           -------------------------------------------------
          | TOTAL ENERGY             -265.697331709192 Eh   |
          | GRADIENT NORM               0.039229470731 Eh/α |
          | HOMO-LUMO GAP               0.751060323777 eV   |
           -------------------------------------------------

------------------------------------------------------------------------
 * finished run on 2021/12/28 at 11:47:24.573     
------------------------------------------------------------------------
 total:
 * wall-time:     0 d,  0 h,  0 min,  1.685 sec
 *  cpu-time:     0 d,  0 h,  0 min,  1.654 sec
 * ratio c/w:     0.981 speedup
 SCF:
 * wall-time:     0 d,  0 h,  0 min,  1.558 sec
 *  cpu-time:     0 d,  0 h,  0 min,  1.531 sec
 * ratio c/w:     0.982 speedup

