      -----------------------------------------------------------      
     |                   =====================                   |     
     |                           x T B                           |     
     |                   =====================                   |     
     |                         S. Grimme                         |     
     |          Mulliken Center for Theoretical Chemistry        |     
     |                    University of Bonn                     |     
      -----------------------------------------------------------      

   * xtb version 6.4.1 (unknown) compiled by 'oda6@login1.crc.pitt.edu' on 2021-06-25

   xtb is free software: you can redistribute it and/or modify it under
   the terms of the GNU Lesser General Public License as published by
   the Free Software Foundation, either version 3 of the License, or
   (at your option) any later version.
   
   xtb is distributed in the hope that it will be useful,
   but WITHOUT ANY WARRANTY; without even the implied warranty of
   MERCHANTABILITY or FITNESS FOR A PARTICULAR PURPOSE.  See the
   GNU Lesser General Public License for more details.
   
   Cite this work as:
   * C. Bannwarth, E. Caldeweyher, S. Ehlert, A. Hansen, P. Pracht,
     J. Seibert, S. Spicher, S. Grimme, WIREs Comput. Mol. Sci., 2020, 11,
     e01493. DOI: 10.1002/wcms.1493
   
   for GFN2-xTB:
   * C. Bannwarth, S. Ehlert and S. Grimme., J. Chem. Theory Comput., 2019,
     15, 1652-1671. DOI: 10.1021/acs.jctc.8b01176
   for GFN1-xTB:
   * S. Grimme, C. Bannwarth, P. Shushkov, J. Chem. Theory Comput., 2017,
     13, 1989-2009. DOI: 10.1021/acs.jctc.7b00118
   for GFN0-xTB:
   * P. Pracht, E. Caldeweyher, S. Ehlert, S. Grimme, ChemRxiv, 2019, preprint.
     DOI: 10.26434/chemrxiv.8326202.v1
   for GFN-FF:
   * S. Spicher and S. Grimme, Angew. Chem. Int. Ed., 2020, 59, 15665-15673.
     DOI: 10.1002/anie.202004239
   
   for DFT-D4:
   * E. Caldeweyher, C. Bannwarth and S. Grimme, J. Chem. Phys., 2017,
     147, 034112. DOI: 10.1063/1.4993215
   * E. Caldeweyher, S. Ehlert, A. Hansen, H. Neugebauer, S. Spicher,
     C. Bannwarth and S. Grimme, J. Chem. Phys., 2019, 150, 154122.
     DOI: 10.1063/1.5090222
   * E. Caldeweyher, J.-M. Mewes, S. Ehlert and S. Grimme, Phys. Chem. Chem. Phys.
     2020, 22, 8499-8512. DOI: 10.1039/D0CP00502A
   
   for sTDA-xTB:
   * S. Grimme and C. Bannwarth, J. Chem. Phys., 2016, 145, 054103.
     DOI: 10.1063/1.4959605
   
   in the mass-spec context:
   * V. Asgeirsson, C. Bauer and S. Grimme, Chem. Sci., 2017, 8, 4879.
     DOI: 10.1039/c7sc00601b
   * J. Koopman and S. Grimme, ACS Omega 2019, 4, 12, 15120-15133.
     DOI: 10.1021/acsomega.9b02011
   
   for metadynamics refer to:
   * S. Grimme, J. Chem. Theory Comput., 2019, 155, 2847-2862
     DOI: 10.1021/acs.jctc.9b00143
   
   for SPH calculations refer to:
   * S. Spicher and S. Grimme, J. Chem. Theory Comput., 2021, 17, 1701-1714
     DOI: 10.1021/acs.jctc.0c01306
   
   with help from (in alphabetical order)
   P. Atkinson, C. Bannwarth, F. Bohle, G. Brandenburg, E. Caldeweyher
   M. Checinski, S. Dohm, S. Ehlert, S. Ehrlich, I. Gerasimov, J. Koopman
   C. Lavigne, S. Lehtola, F. März, M. Müller, F. Musil, H. Neugebauer
   J. Pisarek, C. Plett, P. Pracht, J. Seibert, P. Shushkov, S. Spicher
   M. Stahn, M. Steiner, T. Strunk, J. Stückrath, T. Rose, and J. Unsleber
   
 * started run on 2021/12/28 at 11:48:41.765     

           -------------------------------------------------
          |                Calculation Setup                |
           -------------------------------------------------

          program call               : /ihome/ghutchison/oda6/xtb/xtb-641/bin//xtb J60.mol --sp --alpb water
          hostname                   : smp-n64
          coordinate file            : J60.mol
          omp threads                :                     1
          number of atoms            :                   230
          number of electrons        :                   764
          charge                     :                     0
          spin                       :                   0.0
          first test random number   :      0.77195607433853

   ID    Z sym.   atoms
    1    6 C      1-8, 10, 11, 13-17, 19-21, 23, 25-33, 37-42, 46, 47, 50-59,
                  61, 62, 64-68, 70-72, 74, 76-84, 88-93, 97, 98, 101-110,
                  112, 113, 115-119, 121-123, 125, 127-135, 139-144, 148,
                  149, 152, 153
    2   16 S      9, 12, 18, 22, 24, 43-45, 60, 63, 69, 73, 75, 94-96, 111,
                  114, 120, 124, 126, 145-147
    3    7 N      34-36, 85-87, 136-138
    4    9 F      48, 49, 99, 100, 150, 151
    5    1 H      154-230

           -------------------------------------------------
          |                 G F N 2 - x T B                 |
           -------------------------------------------------

        Reference                      10.1021/acs.jctc.8b01176
      * Hamiltonian:
        H0-scaling (s, p, d)           1.850000    2.230000    2.230000
        zeta-weighting                 0.500000
      * Dispersion:
        s8                             2.700000
        a1                             0.520000
        a2                             5.000000
        s9                             5.000000
      * Repulsion:
        kExp                           1.500000    1.000000
        rExp                           1.000000
      * Coulomb:
        alpha                          2.000000
        third order                    shell-resolved
        anisotropic                    true
        a3                             3.000000
        a5                             4.000000
        cn-shift                       1.200000
        cn-exp                         4.000000
        max-rad                        5.000000

      * Solvation model:               ALPB
        Solvent                        water
        Parameter file                 internal GFN2-xTB/ALPB
        Dielectric constant                8.0200E+01
        Reference state                gsolv [1 M gas/solution]
        Free energy shift                  1.0808E-03 Eh       6.7819E-01 kcal/mol
        Temperature                        2.9815E+02 K
        Density                            1.0000E+00 kg/L
        Solvent mass                       1.8000E+01 g/mol
        Interaction kernel             P16
        Born radius scaling (c1)           1.4744E+00
        Born radii integrator          GBOBC
        Born offset                        0.0000E+00 a0       0.0000E+00 AA
        H-bond correction              true
        Ion screening                  false
        Surface tension                    1.0000E-05 Eh       1.5569E+01 dyn/cm
        Grid points                               230 per atom

          ...................................................
          :                      SETUP                      :
          :.................................................:
          :  # basis functions                 833          :
          :  # atomic orbitals                 809          :
          :  # shells                          407          :
          :  # electrons                       764          :
          :  max. iterations                   250          :
          :  Hamiltonian                  GFN2-xTB          :
          :  restarted?                      false          :
          :  GBSA solvation                   true          :
          :  PC potential                    false          :
          :  electronic temp.          300.0000000     K    :
          :  accuracy                    1.0000000          :
          :  -> integral cutoff          0.2500000E+02      :
          :  -> integral neglect         0.1000000E-07      :
          :  -> SCF convergence          0.1000000E-05 Eh   :
          :  -> wf. convergence          0.1000000E-03 e    :
          :  Broyden damping             0.4000000          :
          ...................................................

 iter      E             dE          RMSdq      gap      omega  full diag
   1   -421.3618765 -0.421362E+03  0.432E+00    1.10       0.0  T
   2   -421.6910876 -0.329211E+00  0.251E+00    1.08       1.0  T
   3   -421.6191755  0.719121E-01  0.107E+00    0.94       1.0  T
   4   -421.7573817 -0.138206E+00  0.426E-01    0.92       1.0  T
   5   -421.7704658 -0.130841E-01  0.198E-01    0.93       1.0  T
   6   -421.7726975 -0.223165E-02  0.649E-02    0.93       1.0  T
   7   -421.7731339 -0.436436E-03  0.295E-02    0.94       1.0  T
   8   -421.7731652 -0.313012E-04  0.181E-02    0.93       1.0  T
   9   -421.7731779 -0.126395E-04  0.101E-02    0.93       1.0  T
  10   -421.7731824 -0.449958E-05  0.532E-03    0.93       1.2  T
  11   -421.7731838 -0.146927E-05  0.282E-03    0.93       2.3  T
  12   -421.7731841 -0.259888E-06  0.133E-03    0.93       5.0  T
  13   -421.7731842 -0.928578E-07  0.628E-04    0.93      10.5  T
  14   -421.7731842 -0.191277E-07  0.318E-04    0.93      20.8  T

   *** convergence criteria satisfied after 14 iterations ***

         #    Occupation            Energy/Eh            Energy/eV
      -------------------------------------------------------------
         1        2.0000           -0.8482875             -23.0831
       ...           ...                  ...                  ...
       376        2.0000           -0.3659860              -9.9590
       377        2.0000           -0.3636279              -9.8948
       378        2.0000           -0.3632569              -9.8847
       379        2.0000           -0.3624603              -9.8630
       380        2.0000           -0.3525823              -9.5943
       381        2.0000           -0.3518789              -9.5751
       382        2.0000           -0.3505153              -9.5380 (HOMO)
       383                         -0.3162971              -8.6069 (LUMO)
       384                         -0.3124576              -8.5024
       385                         -0.3076245              -8.3709
       386                         -0.2934246              -7.9845
       387                         -0.2885883              -7.8529
       ...                                ...                  ...
       809                          0.7109688              19.3464
      -------------------------------------------------------------
                  HL-Gap            0.0342182 Eh            0.9311 eV
             Fermi-level           -0.3332714 Eh           -9.0688 eV

 SCC (total)                   0 d,  0 h,  0 min,  3.874 sec
 SCC setup                      ...        0 min,  0.018 sec (  0.468%)
 Dispersion                     ...        0 min,  0.026 sec (  0.672%)
 classical contributions        ...        0 min,  0.001 sec (  0.034%)
 integral evaluation            ...        0 min,  0.235 sec (  6.073%)
 iterations                     ...        0 min,  2.926 sec ( 75.525%)
 molecular gradient             ...        0 min,  0.639 sec ( 16.485%)
 printout                       ...        0 min,  0.029 sec (  0.740%)

         :::::::::::::::::::::::::::::::::::::::::::::::::::::
         ::                     SUMMARY                     ::
         :::::::::::::::::::::::::::::::::::::::::::::::::::::
         :: total energy            -416.143113124055 Eh    ::
         :: total w/o Gsasa/hb      -416.143827387312 Eh    ::
         :: gradient norm              0.034416217908 Eh/a0 ::
         :: HOMO-LUMO gap              0.931124949290 eV    ::
         ::.................................................::
         :: SCC energy              -421.773184202541 Eh    ::
         :: -> isotropic ES            0.172998773453 Eh    ::
         :: -> anisotropic ES         -0.003227545001 Eh    ::
         :: -> anisotropic XC          0.166900675441 Eh    ::
         :: -> dispersion             -0.381241072524 Eh    ::
         :: -> Gsolv                  -0.048998499905 Eh    ::
         ::    -> Gelec               -0.049712763162 Eh    ::
         ::    -> Gsasa                0.010966768462 Eh    ::
         ::    -> Ghb                 -0.011333264903 Eh    ::
         ::    -> Gshift               0.001080759698 Eh    ::
         :: repulsion energy           5.635871520952 Eh    ::
         :: add. restraining           0.000000000000 Eh    ::
         :: total charge               0.000000000067 e     ::
         :::::::::::::::::::::::::::::::::::::::::::::::::::::

           -------------------------------------------------
          |                Property Printout                |
           -------------------------------------------------

    * Orbital Energies and Occupations

         #    Occupation            Energy/Eh            Energy/eV
      -------------------------------------------------------------
         1        2.0000           -0.8482875             -23.0831
       ...           ...                  ...                  ...
       370        2.0000           -0.3862904             -10.5115
       371        2.0000           -0.3796716             -10.3314
       372        2.0000           -0.3789314             -10.3112
       373        2.0000           -0.3774795             -10.2717
       374        2.0000           -0.3729969             -10.1498
       375        2.0000           -0.3689205             -10.0388
       376        2.0000           -0.3659860              -9.9590
       377        2.0000           -0.3636279              -9.8948
       378        2.0000           -0.3632569              -9.8847
       379        2.0000           -0.3624603              -9.8630
       380        2.0000           -0.3525823              -9.5943
       381        2.0000           -0.3518789              -9.5751
       382        2.0000           -0.3505153              -9.5380 (HOMO)
       383                         -0.3162971              -8.6069 (LUMO)
       384                         -0.3124576              -8.5024
       385                         -0.3076245              -8.3709
       386                         -0.2934246              -7.9845
       387                         -0.2885883              -7.8529
       388                         -0.2843679              -7.7380
       389                         -0.2718659              -7.3978
       390                         -0.2700019              -7.3471
       391                         -0.2685529              -7.3077
       392                         -0.2662643              -7.2454
       393                         -0.2649815              -7.2105
       ...                                ...                  ...
       809                          0.7109688              19.3464
      -------------------------------------------------------------
                  HL-Gap            0.0342182 Eh            0.9311 eV
             Fermi-level           -0.3332714 Eh           -9.0688 eV

     #   Z          covCN         q      C6AA      α(0)
     1   6 C        3.013    -0.010    28.247     8.718
     2   6 C        3.149    -0.007    27.927     8.644
     3   6 C        3.006     0.018    27.584     8.615
     4   6 C        3.010    -0.009    28.224     8.715
     5   6 C        3.131    -0.004    27.923     8.651
     6   6 C        3.008     0.022    27.497     8.602
     7   6 C        3.076    -0.053    29.228     8.864
     8   6 C        2.934    -0.015    28.389     8.738
     9  16 S        2.259    -0.069   143.907    20.190
    10   6 C        3.075    -0.057    29.333     8.880
    11   6 C        3.018     0.030    27.307     8.572
    12  16 S        2.340    -0.083   144.495    20.232
    13   6 C        2.990     0.015    27.658     8.627
    14   6 C        2.988     0.013    27.705     8.634
    15   6 C        3.113    -0.050    29.087     8.835
    16   6 C        3.125    -0.066    29.439     8.885
    17   6 C        2.983     0.054    26.775     8.488
    18  16 S        2.415    -0.059   143.514    20.163
    19   6 C        3.110    -0.052    29.126     8.842
    20   6 C        3.124    -0.067    29.479     8.891
    21   6 C        2.984     0.055    26.760     8.485
    22  16 S        2.470    -0.064   143.693    20.175
    23   6 C        3.023     0.020    27.537     8.608
    24  16 S        2.364     0.003   140.923    19.980
    25   6 C        2.992     0.024    27.454     8.595
    26   6 C        3.094    -0.048    29.071     8.837
    27   6 C        3.094    -0.051    29.144     8.848
    28   6 C        2.997    -0.024    28.602     8.773
    29   6 C        2.791     0.134    25.051     8.199
    30   6 C        2.791     0.134    25.052     8.199
    31   6 C        2.994    -0.024    28.594     8.772
    32   6 C        3.175     0.047    26.568     8.418
    33   6 C        3.172     0.046    26.591     8.423
    34   7 N        2.004    -0.235    26.954     7.700
    35   7 N        3.271     0.243    17.300     6.178
    36   7 N        2.008    -0.241    27.075     7.717
    37   6 C        2.993     0.023    27.482     8.599
    38   6 C        3.745    -0.035    21.271     6.579
    39   6 C        3.754    -0.131    23.072     6.849
    40   6 C        3.094    -0.048    29.076     8.838
    41   6 C        3.097    -0.053    29.182     8.853
    42   6 C        3.018     0.020    27.538     8.608
    43  16 S        2.363     0.016   140.415    19.944
    44  16 S        2.108    -0.149   147.349    20.430
    45  16 S        2.107    -0.161   147.852    20.465
    46   6 C        3.793    -0.002    20.626     6.467
    47   6 C        3.793    -0.004    20.656     6.472
    48   9 F        0.787    -0.242    11.673     4.036
    49   9 F        0.787    -0.242    11.674     4.036
    50   6 C        3.791    -0.123    22.858     6.809
    51   6 C        3.791    -0.119    22.792     6.799
    52   6 C        3.011    -0.010    28.249     8.718
    53   6 C        3.139    -0.004    27.878     8.641
    54   6 C        3.004     0.020    27.548     8.610
    55   6 C        3.008    -0.006    28.164     8.705
    56   6 C        3.129    -0.003    27.890     8.647
    57   6 C        3.010     0.023    27.477     8.599
    58   6 C        3.075    -0.057    29.321     8.878
    59   6 C        3.009     0.029    27.342     8.577
    60  16 S        2.291    -0.057   143.431    20.157
    61   6 C        3.074    -0.056    29.320     8.878
    62   6 C        3.017     0.031    27.286     8.569
    63  16 S        2.278    -0.084   144.573    20.237
    64   6 C        2.988     0.019    27.582     8.615
    65   6 C        2.987     0.013    27.716     8.636
    66   6 C        3.114    -0.050    29.075     8.833
    67   6 C        3.126    -0.066    29.434     8.884
    68   6 C        2.983     0.055    26.761     8.486
    69  16 S        2.415    -0.056   143.360    20.152
    70   6 C        3.114    -0.053    29.152     8.845
    71   6 C        3.109    -0.067    29.509     8.900
    72   6 C        2.984     0.056    26.738     8.482
    73  16 S        2.463    -0.061   143.586    20.168
    74   6 C        3.025     0.020    27.545     8.609
    75  16 S        2.367     0.010   140.664    19.962
    76   6 C        2.993     0.023    27.472     8.598
    77   6 C        3.093    -0.048    29.067     8.836
    78   6 C        3.095    -0.051    29.151     8.849
    79   6 C        2.997    -0.024    28.600     8.773
    80   6 C        2.791     0.135    25.042     8.197
    81   6 C        2.791     0.134    25.051     8.199
    82   6 C        2.986    -0.023    28.572     8.768
    83   6 C        3.158     0.046    26.669     8.443
    84   6 C        3.178     0.047    26.539     8.411
    85   7 N        1.991    -0.247    27.248     7.742
    86   7 N        3.267     0.242    17.316     6.180
    87   7 N        2.013    -0.232    26.857     7.686
    88   6 C        2.991     0.030    27.331     8.576
    89   6 C        3.745    -0.038    21.325     6.587
    90   6 C        3.754    -0.126    22.984     6.836
    91   6 C        3.098    -0.049    29.084     8.838
    92   6 C        3.096    -0.048    29.078     8.838
    93   6 C        3.020     0.023    27.480     8.599
    94  16 S        2.361    -0.041   142.733    20.108
    95  16 S        2.107    -0.145   147.177    20.418
    96  16 S        2.156    -0.174   148.441    20.506
    97   6 C        3.793    -0.004    20.652     6.472
    98   6 C        3.793    -0.006    20.700     6.479
    99   9 F        0.787    -0.242    11.678     4.037
   100   9 F        0.799    -0.233    11.580     4.020
   101   6 C        3.791    -0.121    22.818     6.803
   102   6 C        3.795    -0.119    22.776     6.796
   103   6 C        3.014    -0.010    28.243     8.718
   104   6 C        3.137    -0.006    27.939     8.651
   105   6 C        3.005     0.020    27.538     8.608
   106   6 C        3.006    -0.008    28.202     8.711
   107   6 C        3.130    -0.003    27.886     8.646
   108   6 C        3.008     0.023    27.484     8.600
   109   6 C        3.072    -0.057    29.338     8.881
   110   6 C        3.025     0.027    27.380     8.583
   111  16 S        2.273    -0.069   143.902    20.190
   112   6 C        3.076    -0.057    29.340     8.881
   113   6 C        3.024     0.031    27.273     8.566
   114  16 S        2.354    -0.078   144.288    20.217
   115   6 C        2.990     0.015    27.670     8.629
   116   6 C        2.986     0.015    27.665     8.628
   117   6 C        3.116    -0.053    29.133     8.841
   118   6 C        3.109    -0.067    29.514     8.901
   119   6 C        2.984     0.056    26.743     8.483
   120  16 S        2.466    -0.050   143.112    20.134
   121   6 C        3.110    -0.051    29.103     8.838
   122   6 C        3.124    -0.067    29.465     8.889
   123   6 C        2.984     0.055    26.767     8.487
   124  16 S        2.488    -0.059   143.499    20.162
   125   6 C        3.022     0.019    27.570     8.613
   126  16 S        2.397     0.004   140.898    19.978
   127   6 C        2.993     0.024    27.453     8.595
   128   6 C        3.095    -0.048    29.069     8.837
   129   6 C        3.094    -0.051    29.143     8.848
   130   6 C        3.002    -0.025    28.619     8.775
   131   6 C        2.791     0.135    25.042     8.197
   132   6 C        2.790     0.134    25.061     8.200
   133   6 C        2.982    -0.022    28.554     8.765
   134   6 C        3.158     0.045    26.683     8.446
   135   6 C        3.182     0.047    26.518     8.405
   136   7 N        1.993    -0.249    27.294     7.748
   137   7 N        3.266     0.242    17.308     6.179
   138   7 N        2.031    -0.232    26.837     7.684
   139   6 C        2.994     0.023    27.473     8.598
   140   6 C        3.745    -0.040    21.362     6.593
   141   6 C        3.754    -0.127    22.994     6.838
   142   6 C        3.110    -0.052    29.126     8.842
   143   6 C        3.109    -0.047    29.017     8.826
   144   6 C        2.943    -0.022    28.556     8.764
   145  16 S        2.324    -0.027   142.185    20.069
   146  16 S        2.155    -0.153   147.517    20.442
   147  16 S        2.109    -0.158   147.729    20.457
   148   6 C        3.794    -0.003    20.640     6.470
   149   6 C        3.793    -0.007    20.714     6.481
   150   9 F        0.787    -0.242    11.675     4.036
   151   9 F        0.794    -0.234    11.592     4.022
   152   6 C        3.794    -0.121    22.824     6.803
   153   6 C        3.791    -0.120    22.805     6.801
   154   1 H        0.926     0.052     2.293     2.368
   155   1 H        0.926     0.067     2.119     2.276
   156   1 H        0.926     0.065     2.137     2.286
   157   1 H        0.926     0.051     2.311     2.377
   158   1 H        0.926     0.052     2.289     2.366
   159   1 H        0.926     0.050     2.322     2.383
   160   1 H        0.926     0.052     2.298     2.371
   161   1 H        0.926     0.057     2.238     2.339
   162   1 H        0.926     0.056     2.241     2.341
   163   1 H        0.924     0.100     1.781     2.087
   164   1 H        0.924     0.105     1.743     2.064
   165   1 H        0.925     0.060     2.199     2.319
   166   1 H        0.925     0.084     1.941     2.179
   167   1 H        0.925     0.072     2.065     2.247
   168   1 H        0.926     0.058     2.228     2.334
   169   1 H        0.926     0.055     2.264     2.353
   170   1 H        0.925     0.065     2.144     2.290
   171   1 H        0.925     0.063     2.162     2.300
   172   1 H        0.925     0.063     2.159     2.298
   173   1 H        0.925     0.066     2.128     2.281
   174   1 H        0.925     0.060     2.193     2.316
   175   1 H        0.925     0.067     2.121     2.278
   176   1 H        0.925     0.065     2.137     2.286
   177   1 H        0.925     0.060     2.201     2.320
   178   1 H        0.925     0.066     2.132     2.283
   179   1 H        0.925     0.059     2.209     2.324
   180   1 H        0.926     0.053     2.283     2.363
   181   1 H        0.926     0.070     2.087     2.259
   182   1 H        0.926     0.054     2.265     2.354
   183   1 H        0.926     0.056     2.242     2.341
   184   1 H        0.926     0.056     2.248     2.345
   185   1 H        0.926     0.051     2.307     2.375
   186   1 H        0.926     0.055     2.264     2.353
   187   1 H        0.926     0.055     2.259     2.350
   188   1 H        0.924     0.103     1.761     2.075
   189   1 H        0.924     0.107     1.725     2.054
   190   1 H        0.925     0.070     2.091     2.261
   191   1 H        0.925     0.081     1.967     2.193
   192   1 H        0.925     0.060     2.200     2.320
   193   1 H        0.926     0.087     1.912     2.163
   194   1 H        0.926     0.069     2.099     2.266
   195   1 H        0.925     0.062     2.175     2.306
   196   1 H        0.925     0.063     2.170     2.303
   197   1 H        0.925     0.064     2.150     2.293
   198   1 H        0.925     0.072     2.062     2.246
   199   1 H        0.925     0.059     2.213     2.327
   200   1 H        0.925     0.064     2.150     2.293
   201   1 H        0.925     0.063     2.164     2.300
   202   1 H        0.925     0.058     2.223     2.332
   203   1 H        0.925     0.066     2.129     2.282
   204   1 H        0.925     0.058     2.220     2.330
   205   1 H        0.926     0.047     2.357     2.401
   206   1 H        0.926     0.068     2.109     2.271
   207   1 H        0.926     0.055     2.258     2.350
   208   1 H        0.926     0.054     2.268     2.355
   209   1 H        0.926     0.047     2.356     2.400
   210   1 H        0.926     0.049     2.330     2.387
   211   1 H        0.926     0.055     2.253     2.347
   212   1 H        0.926     0.056     2.245     2.343
   213   1 H        0.924     0.105     1.739     2.062
   214   1 H        0.924     0.106     1.733     2.058
   215   1 H        0.925     0.070     2.089     2.260
   216   1 H        0.925     0.079     1.988     2.205
   217   1 H        0.925     0.063     2.166     2.301
   218   1 H        0.926     0.080     1.983     2.202
   219   1 H        0.926     0.065     2.138     2.287
   220   1 H        0.926     0.069     2.097     2.264
   221   1 H        0.925     0.066     2.135     2.285
   222   1 H        0.925     0.066     2.133     2.284
   223   1 H        0.925     0.065     2.143     2.289
   224   1 H        0.925     0.060     2.193     2.316
   225   1 H        0.925     0.061     2.183     2.311
   226   1 H        0.925     0.065     2.141     2.288
   227   1 H        0.925     0.059     2.206     2.323
   228   1 H        0.925     0.060     2.202     2.321
   229   1 H        0.925     0.067     2.115     2.274
   230   1 H        0.925     0.060     2.200     2.319

 Mol. C6AA /au·bohr⁶  :    1111809.977353
 Mol. C8AA /au·bohr⁸  :   34442948.900523
 Mol. α(0) /au        :       1701.664839


Wiberg/Mayer (AO) data.
largest (>0.10) Wiberg bond orders for each atom

 ---------------------------------------------------------------------------
     #   Z sym  total        # sym  WBO       # sym  WBO       # sym  WBO
 ---------------------------------------------------------------------------
     1   6 C    3.953 --     6 C    1.362     2 C    1.270    13 C    1.094
     2   6 C    3.967 --     3 C    1.275     1 C    1.270     7 C    1.197
     3   6 C    3.948 --     4 C    1.345     2 C    1.275     9 S    1.101
     4   6 C    3.948 --     3 C    1.345     5 C    1.267    14 C    1.109
     5   6 C    3.978 --     4 C    1.267     6 C    1.254    10 C    1.235
     6   6 C    3.940 --     1 C    1.362     5 C    1.254    12 S    1.099
     7   6 C    3.981 --     8 C    1.681     2 C    1.197   154 H    0.958
     8   6 C    3.927 --     7 C    1.681     9 S    1.146   155 H    0.966
     9  16 S    2.535 --     8 C    1.146     3 C    1.101
    10   6 C    3.958 --    11 C    1.536     5 C    1.235   156 H    0.948
    11   6 C    3.934 --    10 C    1.536    23 C    1.169    12 S    1.078
    12  16 S    2.503 --     6 C    1.099    11 C    1.078
    13   6 C    3.940 --    19 C    1.533    22 S    1.104     1 C    1.094
    14   6 C    3.941 --    15 C    1.523     4 C    1.109    18 S    1.101
    15   6 C    3.960 --    14 C    1.523    16 C    1.307   157 H    0.956
    16   6 C    3.974 --    17 C    1.520    15 C    1.307   158 H    0.963
    17   6 C    3.913 --    16 C    1.520    18 S    1.150    44 S    1.090
    18  16 S    2.581 --    17 C    1.150    14 C    1.101
    19   6 C    3.978 --    13 C    1.533    20 C    1.301   159 H    0.960
    20   6 C    3.975 --    21 C    1.525    19 C    1.301   160 H    0.963
    21   6 C    3.915 --    20 C    1.525    22 S    1.147    45 S    1.086
    22  16 S    2.586 --    21 C    1.147    13 C    1.104
    23   6 C    3.929 --    27 C    1.457    11 C    1.169    24 S    1.141
    24  16 S    2.615 --    23 C    1.141    25 C    1.134
    25   6 C    3.934 --    26 C    1.456    28 C    1.161    24 S    1.134
    26   6 C    3.948 --    25 C    1.456    27 C    1.362   161 H    0.961
    27   6 C    3.962 --    23 C    1.457    26 C    1.362   162 H    0.960
    28   6 C    3.934 --    29 C    1.367    33 C    1.195    25 C    1.161
    29   6 C    3.849 --    28 C    1.367    30 C    1.312    48 F    0.942
    30   6 C    3.849 --    31 C    1.366    29 C    1.312    49 F    0.942
    31   6 C    3.935 --    30 C    1.366    32 C    1.195    37 C    1.162
    32   6 C    3.974 --    34 N    1.351    33 C    1.224    31 C    1.195
    33   6 C    3.973 --    36 N    1.349    32 C    1.224    28 C    1.195
    34   7 N    3.016 --    32 C    1.351    35 N    1.300    36 N    0.200
    35   7 N    3.759 --    34 N    1.300    36 N    1.298    38 C    0.970
    36   7 N    3.015 --    33 C    1.349    35 N    1.298    34 N    0.200
    37   6 C    3.933 --    40 C    1.449    31 C    1.162    43 S    1.138
    38   6 C    3.938 --    39 C    1.000    35 N    0.970   163 H    0.964
                           164 H    0.950
    39   6 C    3.977 --    38 C    1.000   165 H    0.986   167 H    0.983
                           166 H    0.978
    40   6 C    3.949 --    37 C    1.449    41 C    1.372   168 H    0.961
    41   6 C    3.962 --    42 C    1.442    40 C    1.372   169 H    0.961
    42   6 C    3.929 --    41 C    1.442    59 C    1.169    43 S    1.156
    43  16 S    2.625 --    42 C    1.156    37 C    1.138
    44  16 S    2.292 --    17 C    1.090    47 C    0.970
    45  16 S    2.290 --    21 C    1.086    46 C    0.970
    46   6 C    3.964 --    51 C    1.025   171 H    0.970    45 S    0.970
                           170 H    0.970
    47   6 C    3.962 --    50 C    1.025   172 H    0.970    44 S    0.970
                           173 H    0.967
    48   9 F    1.068 --    29 C    0.942
    49   9 F    1.068 --    30 C    0.942
    50   6 C    3.987 --    47 C    1.025   174 H    0.984   176 H    0.984
                           175 H    0.976
    51   6 C    3.988 --    46 C    1.025   179 H    0.985   177 H    0.985
                           178 H    0.976
    52   6 C    3.935 --    57 C    1.362    53 C    1.259    64 C    1.097
    53   6 C    3.968 --    52 C    1.259    54 C    1.254    58 C    1.242
    54   6 C    3.939 --    55 C    1.354    53 C    1.254    60 S    1.103
    55   6 C    3.938 --    54 C    1.354    56 C    1.257    65 C    1.111
    56   6 C    3.966 --    55 C    1.257    57 C    1.252    61 C    1.241
    57   6 C    3.940 --    52 C    1.362    56 C    1.252    63 S    1.098
    58   6 C    3.957 --    59 C    1.524    53 C    1.242   180 H    0.952
    59   6 C    3.933 --    58 C    1.524    42 C    1.169    60 S    1.092
    60  16 S    2.509 --    54 C    1.103    59 C    1.092
    61   6 C    3.956 --    62 C    1.529    56 C    1.241   181 H    0.947
    62   6 C    3.928 --    61 C    1.529    74 C    1.172    63 S    1.080
    63  16 S    2.497 --    57 C    1.098    62 C    1.080
    64   6 C    3.940 --    70 C    1.538    73 S    1.104    52 C    1.097
    65   6 C    3.940 --    66 C    1.520    55 C    1.111    69 S    1.101
    66   6 C    3.960 --    65 C    1.520    67 C    1.308   182 H    0.955
    67   6 C    3.973 --    68 C    1.518    66 C    1.308   183 H    0.962
    68   6 C    3.913 --    67 C    1.518    69 S    1.151    95 S    1.091
    69  16 S    2.583 --    68 C    1.151    65 C    1.101
    70   6 C    3.960 --    64 C    1.538    71 C    1.289   184 H    0.956
    71   6 C    3.974 --    72 C    1.531    70 C    1.289   185 H    0.961
    72   6 C    3.914 --    71 C    1.531    73 S    1.146    96 S    1.084
    73  16 S    2.557 --    72 C    1.146    64 C    1.104
    74   6 C    3.929 --    78 C    1.454    62 C    1.172    75 S    1.142
    75  16 S    2.620 --    74 C    1.142    76 C    1.134
    76   6 C    3.933 --    77 C    1.455    79 C    1.162    75 S    1.134
    77   6 C    3.948 --    76 C    1.455    78 C    1.364   186 H    0.961
    78   6 C    3.961 --    74 C    1.454    77 C    1.364   187 H    0.960
    79   6 C    3.936 --    80 C    1.368    84 C    1.193    76 C    1.162
    80   6 C    3.848 --    79 C    1.368    81 C    1.312    99 F    0.942
    81   6 C    3.845 --    82 C    1.369    80 C    1.312   100 F    0.940
    82   6 C    3.934 --    81 C    1.369    83 C    1.189    88 C    1.164
    83   6 C    3.972 --    85 N    1.349    84 C    1.224    82 C    1.189
    84   6 C    3.974 --    87 N    1.353    83 C    1.224    79 C    1.193
    85   7 N    2.990 --    83 C    1.349    86 N    1.300    87 N    0.201
    86   7 N    3.760 --    85 N    1.300    87 N    1.299    89 C    0.969
    87   7 N    3.026 --    84 C    1.353    86 N    1.299    85 N    0.201
    88   6 C    3.929 --    91 C    1.449    82 C    1.164    94 S    1.130
    89   6 C    3.937 --    90 C    1.003    86 N    0.969   189 H    0.964
                           188 H    0.947
    90   6 C    3.980 --    89 C    1.003   192 H    0.986   190 H    0.982
                           191 H    0.978
    91   6 C    3.948 --    88 C    1.449    92 C    1.366   193 H    0.953
    92   6 C    3.960 --    93 C    1.453    91 C    1.366   194 H    0.959
    93   6 C    3.926 --    92 C    1.453   110 C    1.171    94 S    1.138
    94  16 S    2.599 --    93 C    1.138    88 C    1.130
    95  16 S    2.294 --    68 C    1.091    98 C    0.970
    96  16 S    2.281 --    72 C    1.084    97 C    0.969
    97   6 C    3.965 --   102 C    1.025   195 H    0.973   196 H    0.973
                            96 S    0.969
    98   6 C    3.962 --   101 C    1.025    95 S    0.970   197 H    0.970
                           198 H    0.967
    99   9 F    1.068 --    80 C    0.942
   100   9 F    1.090 --    81 C    0.940
   101   6 C    3.987 --    98 C    1.025   199 H    0.985   201 H    0.983
                           200 H    0.976
   102   6 C    3.988 --    97 C    1.025   204 H    0.985   202 H    0.985
                           203 H    0.976
   103   6 C    3.936 --   108 C    1.364   104 C    1.254   115 C    1.102
   104   6 C    3.967 --   105 C    1.256   103 C    1.254   109 C    1.239
   105   6 C    3.940 --   106 C    1.359   104 C    1.256   111 S    1.097
   106   6 C    3.948 --   105 C    1.359   107 C    1.259   116 C    1.104
   107   6 C    3.967 --   106 C    1.259   108 C    1.253   112 C    1.241
   108   6 C    3.940 --   103 C    1.364   107 C    1.253   114 S    1.100
   109   6 C    3.959 --   110 C    1.533   104 C    1.239   205 H    0.954
   110   6 C    3.933 --   109 C    1.533    93 C    1.171   111 S    1.081
   111  16 S    2.494 --   105 C    1.097   110 C    1.081
   112   6 C    3.958 --   113 C    1.531   107 C    1.241   206 H    0.947
   113   6 C    3.928 --   112 C    1.531   125 C    1.168   114 S    1.080
   114  16 S    2.508 --   108 C    1.100   113 C    1.080
   115   6 C    3.939 --   121 C    1.526   124 S    1.103   103 C    1.102
   116   6 C    3.941 --   117 C    1.532   120 S    1.106   106 C    1.104
   117   6 C    3.959 --   116 C    1.532   118 C    1.293   207 H    0.955
   118   6 C    3.973 --   119 C    1.527   117 C    1.293   208 H    0.961
   119   6 C    3.916 --   118 C    1.527   120 S    1.151   146 S    1.085
   120  16 S    2.566 --   119 C    1.151   116 C    1.106
   121   6 C    3.975 --   115 C    1.526   122 C    1.305   209 H    0.960
   122   6 C    3.974 --   123 C    1.521   121 C    1.305   210 H    0.963
   123   6 C    3.913 --   122 C    1.521   124 S    1.148   147 S    1.089
   124  16 S    2.588 --   123 C    1.148   115 C    1.103
   125   6 C    3.932 --   129 C    1.459   113 C    1.168   126 S    1.141
   126  16 S    2.635 --   125 C    1.141   127 C    1.137
   127   6 C    3.935 --   128 C    1.460   130 C    1.156   126 S    1.137
   128   6 C    3.950 --   127 C    1.460   129 C    1.359   211 H    0.962
   129   6 C    3.962 --   125 C    1.459   128 C    1.359   212 H    0.961
   130   6 C    3.943 --   131 C    1.376   135 C    1.195   127 C    1.156
   131   6 C    3.850 --   130 C    1.376   132 C    1.303   150 F    0.943
   132   6 C    3.859 --   133 C    1.381   131 C    1.303   151 F    0.941
   133   6 C    3.936 --   132 C    1.381   134 C    1.192   139 C    1.151
   134   6 C    3.976 --   136 N    1.345   135 C    1.226   133 C    1.192
   135   6 C    3.974 --   138 N    1.349   134 C    1.226   130 C    1.195
   136   7 N    2.989 --   134 C    1.345   137 N    1.301   138 N    0.201
   137   7 N    3.764 --   136 N    1.301   138 N    1.300   140 C    0.969
   138   7 N    3.035 --   135 C    1.349   137 N    1.300   136 N    0.201
   139   6 C    3.946 --   142 C    1.486   133 C    1.151   145 S    1.132
   140   6 C    3.938 --   141 C    1.007   137 N    0.969   214 H    0.963
                           213 H    0.944
   141   6 C    3.980 --   140 C    1.007   217 H    0.985   215 H    0.982
                           216 H    0.978
   142   6 C    3.949 --   139 C    1.486   143 C    1.320   218 H    0.954
   143   6 C    3.982 --   144 C    1.581   142 C    1.320   219 H    0.962
   144   6 C    3.919 --   143 C    1.581   145 S    1.218   220 H    0.967
   145  16 S    2.638 --   144 C    1.218   139 C    1.132
   146  16 S    2.284 --   119 C    1.085   149 C    0.969
   147  16 S    2.293 --   123 C    1.089   148 C    0.970
   148   6 C    3.963 --   153 C    1.025   147 S    0.970   221 H    0.970
                           222 H    0.969
   149   6 C    3.965 --   152 C    1.025   224 H    0.973   223 H    0.972
                           146 S    0.969
   150   9 F    1.068 --   131 C    0.943
   151   9 F    1.087 --   132 C    0.941
   152   6 C    3.988 --   149 C    1.025   227 H    0.985   225 H    0.985
                           226 H    0.976
   153   6 C    3.987 --   148 C    1.025   230 H    0.985   228 H    0.984
                           229 H    0.976
   154   1 H    0.997 --     7 C    0.958
   155   1 H    0.995 --     8 C    0.966
   156   1 H    0.995 --    10 C    0.948
   157   1 H    0.997 --    15 C    0.956
   158   1 H    0.997 --    16 C    0.963
   159   1 H    0.997 --    19 C    0.960
   160   1 H    0.997 --    20 C    0.963
   161   1 H    0.996 --    26 C    0.961
   162   1 H    0.996 --    27 C    0.960
   163   1 H    0.989 --    38 C    0.964
   164   1 H    0.985 --    38 C    0.950
   165   1 H    0.996 --    39 C    0.986
   166   1 H    0.992 --    39 C    0.978
   167   1 H    0.995 --    39 C    0.983
   168   1 H    0.996 --    40 C    0.961
   169   1 H    0.996 --    41 C    0.961
   170   1 H    0.996 --    46 C    0.970
   171   1 H    0.996 --    46 C    0.970
   172   1 H    0.996 --    47 C    0.970
   173   1 H    0.995 --    47 C    0.967
   174   1 H    0.996 --    50 C    0.984
   175   1 H    0.995 --    50 C    0.976
   176   1 H    0.996 --    50 C    0.984
   177   1 H    0.996 --    51 C    0.985
   178   1 H    0.995 --    51 C    0.976
   179   1 H    0.996 --    51 C    0.985
   180   1 H    0.997 --    58 C    0.952
   181   1 H    0.994 --    61 C    0.947
   182   1 H    0.997 --    66 C    0.955
   183   1 H    0.996 --    67 C    0.962
   184   1 H    0.997 --    70 C    0.956
   185   1 H    0.997 --    71 C    0.961
   186   1 H    0.997 --    77 C    0.961
   187   1 H    0.996 --    78 C    0.960
   188   1 H    0.985 --    89 C    0.947
   189   1 H    0.988 --    89 C    0.964
   190   1 H    0.995 --    90 C    0.982
   191   1 H    0.993 --    90 C    0.978
   192   1 H    0.996 --    90 C    0.986
   193   1 H    0.992 --    91 C    0.953
   194   1 H    0.995 --    92 C    0.959
   195   1 H    0.996 --    97 C    0.973
   196   1 H    0.996 --    97 C    0.973
   197   1 H    0.995 --    98 C    0.970
   198   1 H    0.994 --    98 C    0.967
   199   1 H    0.996 --   101 C    0.985
   200   1 H    0.995 --   101 C    0.976
   201   1 H    0.996 --   101 C    0.983
   202   1 H    0.997 --   102 C    0.985
   203   1 H    0.995 --   102 C    0.976
   204   1 H    0.997 --   102 C    0.985
   205   1 H    0.997 --   109 C    0.954
   206   1 H    0.995 --   112 C    0.947
   207   1 H    0.997 --   117 C    0.955
   208   1 H    0.997 --   118 C    0.961
   209   1 H    0.997 --   121 C    0.960
   210   1 H    0.997 --   122 C    0.963
   211   1 H    0.996 --   128 C    0.962
   212   1 H    0.996 --   129 C    0.961
   213   1 H    0.984 --   140 C    0.944
   214   1 H    0.988 --   140 C    0.963
   215   1 H    0.995 --   141 C    0.982
   216   1 H    0.993 --   141 C    0.978
   217   1 H    0.996 --   141 C    0.985
   218   1 H    0.994 --   142 C    0.954
   219   1 H    0.995 --   143 C    0.962
   220   1 H    0.995 --   144 C    0.967
   221   1 H    0.995 --   148 C    0.970
   222   1 H    0.995 --   148 C    0.969
   223   1 H    0.996 --   149 C    0.972
   224   1 H    0.996 --   149 C    0.973
   225   1 H    0.996 --   152 C    0.985
   226   1 H    0.995 --   152 C    0.976
   227   1 H    0.996 --   152 C    0.985
   228   1 H    0.996 --   153 C    0.984
   229   1 H    0.995 --   153 C    0.976
   230   1 H    0.996 --   153 C    0.985
 ---------------------------------------------------------------------------

Topologies differ in bond orders
Writing corrected topology to xtbtopo.mol

molecular dipole:
                 x           y           z       tot (Debye)
 q only:        3.788      -2.426      -7.716
   full:        2.385      -1.665      -6.036      17.030
molecular quadrupole (traceless):
                xx          xy          yy          xz          yz          zz
 q only:      371.884    -239.914    -147.750    -799.310    -298.274    -224.134
  q+dip:      230.404    -200.071     -80.719    -671.073    -239.302    -149.685
   full:      222.826    -204.155     -68.043    -669.702    -246.668    -154.783


           -------------------------------------------------
          | TOTAL ENERGY             -416.143113124055 Eh   |
          | GRADIENT NORM               0.034416217908 Eh/α |
          | HOMO-LUMO GAP               0.931124949290 eV   |
           -------------------------------------------------

------------------------------------------------------------------------
 * finished run on 2021/12/28 at 11:48:45.878     
------------------------------------------------------------------------
 total:
 * wall-time:     0 d,  0 h,  0 min,  4.113 sec
 *  cpu-time:     0 d,  0 h,  0 min,  4.109 sec
 * ratio c/w:     0.999 speedup
 SCF:
 * wall-time:     0 d,  0 h,  0 min,  3.886 sec
 *  cpu-time:     0 d,  0 h,  0 min,  3.885 sec
 * ratio c/w:     1.000 speedup

