      -----------------------------------------------------------      
     |                   =====================                   |     
     |                           x T B                           |     
     |                   =====================                   |     
     |                         S. Grimme                         |     
     |          Mulliken Center for Theoretical Chemistry        |     
     |                    University of Bonn                     |     
      -----------------------------------------------------------      

   * xtb version 6.4.1 (unknown) compiled by 'oda6@login1.crc.pitt.edu' on 2021-06-25

   xtb is free software: you can redistribute it and/or modify it under
   the terms of the GNU Lesser General Public License as published by
   the Free Software Foundation, either version 3 of the License, or
   (at your option) any later version.
   
   xtb is distributed in the hope that it will be useful,
   but WITHOUT ANY WARRANTY; without even the implied warranty of
   MERCHANTABILITY or FITNESS FOR A PARTICULAR PURPOSE.  See the
   GNU Lesser General Public License for more details.
   
   Cite this work as:
   * C. Bannwarth, E. Caldeweyher, S. Ehlert, A. Hansen, P. Pracht,
     J. Seibert, S. Spicher, S. Grimme, WIREs Comput. Mol. Sci., 2020, 11,
     e01493. DOI: 10.1002/wcms.1493
   
   for GFN2-xTB:
   * C. Bannwarth, S. Ehlert and S. Grimme., J. Chem. Theory Comput., 2019,
     15, 1652-1671. DOI: 10.1021/acs.jctc.8b01176
   for GFN1-xTB:
   * S. Grimme, C. Bannwarth, P. Shushkov, J. Chem. Theory Comput., 2017,
     13, 1989-2009. DOI: 10.1021/acs.jctc.7b00118
   for GFN0-xTB:
   * P. Pracht, E. Caldeweyher, S. Ehlert, S. Grimme, ChemRxiv, 2019, preprint.
     DOI: 10.26434/chemrxiv.8326202.v1
   for GFN-FF:
   * S. Spicher and S. Grimme, Angew. Chem. Int. Ed., 2020, 59, 15665-15673.
     DOI: 10.1002/anie.202004239
   
   for DFT-D4:
   * E. Caldeweyher, C. Bannwarth and S. Grimme, J. Chem. Phys., 2017,
     147, 034112. DOI: 10.1063/1.4993215
   * E. Caldeweyher, S. Ehlert, A. Hansen, H. Neugebauer, S. Spicher,
     C. Bannwarth and S. Grimme, J. Chem. Phys., 2019, 150, 154122.
     DOI: 10.1063/1.5090222
   * E. Caldeweyher, J.-M. Mewes, S. Ehlert and S. Grimme, Phys. Chem. Chem. Phys.
     2020, 22, 8499-8512. DOI: 10.1039/D0CP00502A
   
   for sTDA-xTB:
   * S. Grimme and C. Bannwarth, J. Chem. Phys., 2016, 145, 054103.
     DOI: 10.1063/1.4959605
   
   in the mass-spec context:
   * V. Asgeirsson, C. Bauer and S. Grimme, Chem. Sci., 2017, 8, 4879.
     DOI: 10.1039/c7sc00601b
   * J. Koopman and S. Grimme, ACS Omega 2019, 4, 12, 15120-15133.
     DOI: 10.1021/acsomega.9b02011
   
   for metadynamics refer to:
   * S. Grimme, J. Chem. Theory Comput., 2019, 155, 2847-2862
     DOI: 10.1021/acs.jctc.9b00143
   
   for SPH calculations refer to:
   * S. Spicher and S. Grimme, J. Chem. Theory Comput., 2021, 17, 1701-1714
     DOI: 10.1021/acs.jctc.0c01306
   
   with help from (in alphabetical order)
   P. Atkinson, C. Bannwarth, F. Bohle, G. Brandenburg, E. Caldeweyher
   M. Checinski, S. Dohm, S. Ehlert, S. Ehrlich, I. Gerasimov, J. Koopman
   C. Lavigne, S. Lehtola, F. März, M. Müller, F. Musil, H. Neugebauer
   J. Pisarek, C. Plett, P. Pracht, J. Seibert, P. Shushkov, S. Spicher
   M. Stahn, M. Steiner, T. Strunk, J. Stückrath, T. Rose, and J. Unsleber
   
 * started run on 2022/01/11 at 10:01:29.439     

           -------------------------------------------------
          |                Calculation Setup                |
           -------------------------------------------------

          program call               : /ihome/ghutchison/oda6/xtb/xtb-641/bin//xtb PDBT-2F.mol --sp --alpb water
          hostname                   : smp-n65
          coordinate file            : PDBT-2F.mol
          omp threads                :                     1
          number of atoms            :                   272
          number of electrons        :                   956
          charge                     :                     0
          spin                       :                   0.0
          first test random number   :      0.35974595443271

   ID    Z sym.   atoms
    1    8 O      1, 73, 74, 136, 137, 192
    2    6 C      2-8, 10-14, 16-22, 24-28, 30-32, 35, 37-41, 43, 45, 47-50,
                  52, 53, 55-66, 68-72, 75, 76, 78-81, 83-90, 92-94, 97,
                  99-103, 105, 107, 109-112, 114, 115, 117-121, 123-129,
                  131-135, 138-142, 148-152, 154-156, 158-161, 163-166, 168,
                  170-172, 174-176, 178, 179, 181, 182, 184-186, 188, 190, 191
    3   16 S      9, 15, 23, 33, 36, 42, 51, 54, 67, 77, 82, 95, 98, 104,
                  113, 116, 122, 130, 143-147, 153, 157, 162, 173, 177, 180,
                  189
    4    9 F      29, 34, 44, 46, 91, 96, 106, 108, 167, 169, 183, 187
    5    1 H      193-272

           -------------------------------------------------
          |                 G F N 2 - x T B                 |
           -------------------------------------------------

        Reference                      10.1021/acs.jctc.8b01176
      * Hamiltonian:
        H0-scaling (s, p, d)           1.850000    2.230000    2.230000
        zeta-weighting                 0.500000
      * Dispersion:
        s8                             2.700000
        a1                             0.520000
        a2                             5.000000
        s9                             5.000000
      * Repulsion:
        kExp                           1.500000    1.000000
        rExp                           1.000000
      * Coulomb:
        alpha                          2.000000
        third order                    shell-resolved
        anisotropic                    true
        a3                             3.000000
        a5                             4.000000
        cn-shift                       1.200000
        cn-exp                         4.000000
        max-rad                        5.000000

      * Solvation model:               ALPB
        Solvent                        water
        Parameter file                 internal GFN2-xTB/ALPB
        Dielectric constant                8.0200E+01
        Reference state                gsolv [1 M gas/solution]
        Free energy shift                  1.0808E-03 Eh       6.7819E-01 kcal/mol
        Temperature                        2.9815E+02 K
        Density                            1.0000E+00 kg/L
        Solvent mass                       1.8000E+01 g/mol
        Interaction kernel             P16
        Born radius scaling (c1)           1.4744E+00
        Born radii integrator          GBOBC
        Born offset                        0.0000E+00 a0       0.0000E+00 AA
        H-bond correction              true
        Ion screening                  false
        Surface tension                    1.0000E-05 Eh       1.5569E+01 dyn/cm
        Grid points                               230 per atom

          ...................................................
          :                      SETUP                      :
          :.................................................:
          :  # basis functions                1028          :
          :  # atomic orbitals                 998          :
          :  # shells                          494          :
          :  # electrons                       956          :
          :  max. iterations                   250          :
          :  Hamiltonian                  GFN2-xTB          :
          :  restarted?                      false          :
          :  GBSA solvation                   true          :
          :  PC potential                    false          :
          :  electronic temp.          300.0000000     K    :
          :  accuracy                    1.0000000          :
          :  -> integral cutoff          0.2500000E+02      :
          :  -> integral neglect         0.1000000E-07      :
          :  -> SCF convergence          0.1000000E-05 Eh   :
          :  -> wf. convergence          0.1000000E-03 e    :
          :  Broyden damping             0.4000000          :
          ...................................................

 iter      E             dE          RMSdq      gap      omega  full diag
   1   -534.3911979 -0.534391E+03  0.426E+00    1.21       0.0  T
   2   -534.6943498 -0.303152E+00  0.229E+00    1.17       1.0  T
   3   -534.5466331  0.147717E+00  0.127E+00    1.26       1.0  T
   4   -534.7935916 -0.246958E+00  0.394E-01    1.24       1.0  T
   5   -534.8070014 -0.134099E-01  0.158E-01    1.21       1.0  T
   6   -534.8084558 -0.145434E-02  0.607E-02    1.22       1.0  T
   7   -534.8087988 -0.343047E-03  0.283E-02    1.22       1.0  T
   8   -534.8089017 -0.102825E-03  0.150E-02    1.22       1.0  T
   9   -534.8089092 -0.752156E-05  0.740E-03    1.22       1.0  T
  10   -534.8089123 -0.310329E-05  0.438E-03    1.22       1.4  T
  11   -534.8089135 -0.118044E-05  0.269E-03    1.22       2.3  T
  12   -534.8089138 -0.364776E-06  0.137E-03    1.22       4.4  T
  13   -534.8089140 -0.194654E-06  0.742E-04    1.22       8.2  T
  14   -534.8089141 -0.390605E-07  0.413E-04    1.22      14.7  T

   *** convergence criteria satisfied after 14 iterations ***

         #    Occupation            Energy/Eh            Energy/eV
      -------------------------------------------------------------
         1        2.0000           -0.8535191             -23.2254
       ...           ...                  ...                  ...
       472        2.0000           -0.3870641             -10.5325
       473        2.0000           -0.3824139             -10.4060
       474        2.0000           -0.3810539             -10.3690
       475        2.0000           -0.3782973             -10.2940
       476        2.0000           -0.3760373             -10.2325
       477        2.0000           -0.3706202             -10.0851
       478        2.0000           -0.3669691              -9.9857 (HOMO)
       479                         -0.3222425              -8.7687 (LUMO)
       480                         -0.3212191              -8.7408
       481                         -0.3187230              -8.6729
       482                         -0.3159950              -8.5987
       483                         -0.3139401              -8.5427
       ...                                ...                  ...
       998                          0.7322906              19.9266
      -------------------------------------------------------------
                  HL-Gap            0.0447265 Eh            1.2171 eV
             Fermi-level           -0.3447433 Eh           -9.3809 eV

 SCC (total)                   0 d,  0 h,  0 min,  6.446 sec
 SCC setup                      ...        0 min,  0.024 sec (  0.377%)
 Dispersion                     ...        0 min,  0.029 sec (  0.445%)
 classical contributions        ...        0 min,  0.003 sec (  0.039%)
 integral evaluation            ...        0 min,  0.317 sec (  4.923%)
 iterations                     ...        0 min,  4.652 sec ( 72.179%)
 molecular gradient             ...        0 min,  1.380 sec ( 21.404%)
 printout                       ...        0 min,  0.041 sec (  0.633%)

         :::::::::::::::::::::::::::::::::::::::::::::::::::::
         ::                     SUMMARY                     ::
         :::::::::::::::::::::::::::::::::::::::::::::::::::::
         :: total energy            -528.034924762043 Eh    ::
         :: total w/o Gsasa/hb      -528.047931390467 Eh    ::
         :: gradient norm              0.060191855138 Eh/a0 ::
         :: HOMO-LUMO gap              1.217071145919 eV    ::
         ::.................................................::
         :: SCC energy              -534.808914066434 Eh    ::
         :: -> isotropic ES            0.404942337637 Eh    ::
         :: -> anisotropic ES         -0.017708102486 Eh    ::
         :: -> anisotropic XC          0.096964903291 Eh    ::
         :: -> dispersion             -0.546805931340 Eh    ::
         :: -> Gsolv                  -0.069314844131 Eh    ::
         ::    -> Gelec               -0.082321472555 Eh    ::
         ::    -> Gsasa                0.025871533261 Eh    ::
         ::    -> Ghb                 -0.013945664535 Eh    ::
         ::    -> Gshift               0.001080759698 Eh    ::
         :: repulsion energy           6.758562919051 Eh    ::
         :: add. restraining           0.000000000000 Eh    ::
         :: total charge              -0.000000000041 e     ::
         :::::::::::::::::::::::::::::::::::::::::::::::::::::

           -------------------------------------------------
          |                Property Printout                |
           -------------------------------------------------

    * Orbital Energies and Occupations

         #    Occupation            Energy/Eh            Energy/eV
      -------------------------------------------------------------
         1        2.0000           -0.8535191             -23.2254
       ...           ...                  ...                  ...
       466        2.0000           -0.4012230             -10.9178
       467        2.0000           -0.3998070             -10.8793
       468        2.0000           -0.3979221             -10.8280
       469        2.0000           -0.3976910             -10.8217
       470        2.0000           -0.3934458             -10.7062
       471        2.0000           -0.3878940             -10.5551
       472        2.0000           -0.3870641             -10.5325
       473        2.0000           -0.3824139             -10.4060
       474        2.0000           -0.3810539             -10.3690
       475        2.0000           -0.3782973             -10.2940
       476        2.0000           -0.3760373             -10.2325
       477        2.0000           -0.3706202             -10.0851
       478        2.0000           -0.3669691              -9.9857 (HOMO)
       479                         -0.3222425              -8.7687 (LUMO)
       480                         -0.3212191              -8.7408
       481                         -0.3187230              -8.6729
       482                         -0.3159950              -8.5987
       483                         -0.3139401              -8.5427
       484                         -0.3116159              -8.4795
       485                         -0.3048923              -8.2965
       486                         -0.3028951              -8.2422
       487                         -0.2993192              -8.1449
       488                         -0.2874355              -7.8215
       489                         -0.2860486              -7.7838
       ...                                ...                  ...
       998                          0.7322906              19.9266
      -------------------------------------------------------------
                  HL-Gap            0.0447265 Eh            1.2171 eV
             Fermi-level           -0.3447433 Eh           -9.3809 eV

     #   Z          covCN         q      C6AA      α(0)
     1   8 O        0.948    -0.435    22.342     6.339
     2   6 C        2.825     0.224    23.283     7.907
     3   6 C        3.162    -0.046    28.787     8.770
     4   6 C        3.162    -0.048    28.851     8.780
     5   6 C        2.981     0.039    27.116     8.542
     6   6 C        3.828    -0.062    21.660     6.622
     7   6 C        3.754    -0.107    22.608     6.780
     8   6 C        2.980     0.040    27.098     8.539
     9  16 S        2.351     0.039   139.471    19.877
    10   6 C        3.828    -0.062    21.669     6.624
    11   6 C        3.754    -0.109    22.647     6.786
    12   6 C        3.136    -0.043    28.834     8.789
    13   6 C        3.012     0.036    27.180     8.552
    14   6 C        3.037     0.020    27.522     8.605
    15  16 S        2.421     0.013   140.538    19.953
    16   6 C        3.099    -0.045    28.986     8.823
    17   6 C        3.080    -0.046    29.062     8.838
    18   6 C        3.030     0.020    27.521     8.605
    19   6 C        3.040     0.029    27.328     8.574
    20   6 C        3.068    -0.056    29.328     8.880
    21   6 C        3.188     0.029    26.878     8.458
    22   6 C        3.149     0.009    27.541     8.585
    23  16 S        2.293    -0.025   142.087    20.062
    24   6 C        3.110    -0.006    28.021     8.672
    25   6 C        3.015     0.002    27.965     8.675
    26   6 C        2.990    -0.010    28.258     8.720
    27   6 C        2.979     0.135    25.039     8.208
    28   6 C        2.993     0.129    25.159     8.228
    29   9 F        0.785    -0.239    11.649     4.032
    30   6 C        2.981     0.007    27.861     8.658
    31   6 C        3.822    -0.062    21.666     6.624
    32   6 C        3.754    -0.120    22.853     6.817
    33  16 S        2.403     0.045   139.211    19.858
    34   9 F        0.785    -0.234    11.593     4.022
    35   6 C        3.015     0.024    27.442     8.593
    36  16 S        2.211    -0.061   143.600    20.169
    37   6 C        3.191     0.026    26.940     8.465
    38   6 C        3.149     0.010    27.516     8.581
    39   6 C        3.107    -0.006    28.039     8.676
    40   6 C        3.008     0.002    27.963     8.674
    41   6 C        2.989    -0.012    28.303     8.727
    42  16 S        2.423     0.046   139.201    19.857
    43   6 C        2.981     0.136    25.031     8.207
    44   9 F        0.785    -0.236    11.615     4.026
    45   6 C        2.990     0.128    25.196     8.234
    46   9 F        0.785    -0.239    11.649     4.032
    47   6 C        2.981     0.007    27.860     8.658
    48   6 C        3.822    -0.061    21.647     6.621
    49   6 C        3.754    -0.122    22.904     6.824
    50   6 C        3.014     0.022    27.500     8.602
    51  16 S        2.246    -0.044   142.879    20.118
    52   6 C        3.068    -0.060    29.415     8.893
    53   6 C        3.037     0.027    27.360     8.579
    54  16 S        2.333    -0.038   142.633    20.101
    55   6 C        3.037     0.015    27.644     8.624
    56   6 C        3.079    -0.049    29.119     8.847
    57   6 C        3.105    -0.047    29.029     8.828
    58   6 C        3.041     0.021    27.491     8.600
    59   6 C        2.998     0.034    27.220     8.558
    60   6 C        3.144    -0.043    28.793     8.779
    61   6 C        3.135    -0.040    28.764     8.779
    62   6 C        2.823     0.228    23.226     7.897
    63   6 C        3.161    -0.047    28.833     8.778
    64   6 C        2.981     0.040    27.108     8.541
    65   6 C        3.828    -0.061    21.658     6.622
    66   6 C        3.754    -0.105    22.561     6.773
    67  16 S        2.355     0.038   139.523    19.880
    68   6 C        2.979     0.039    27.128     8.544
    69   6 C        3.827    -0.061    21.642     6.620
    70   6 C        3.754    -0.103    22.525     6.768
    71   6 C        3.167    -0.046    28.768     8.764
    72   6 C        2.825     0.223    23.302     7.910
    73   8 O        0.991    -0.436    22.350     6.342
    74   8 O        0.858    -0.451    22.735     6.393
    75   6 C        3.032     0.034    27.205     8.555
    76   6 C        3.038     0.024    27.434     8.591
    77  16 S        2.496    -0.003   141.198    19.999
    78   6 C        3.096    -0.033    28.711     8.782
    79   6 C        3.104    -0.048    29.063     8.834
    80   6 C        3.038     0.026    27.389     8.584
    81   6 C        3.052     0.029    27.312     8.571
    82  16 S        2.445    -0.030   142.303    20.077
    83   6 C        3.064    -0.060    29.415     8.894
    84   6 C        3.195     0.028    26.868     8.451
    85   6 C        3.158     0.008    27.528     8.578
    86   6 C        3.108    -0.009    28.109     8.686
    87   6 C        3.017    -0.003    28.080     8.692
    88   6 C        2.986    -0.015    28.369     8.737
    89   6 C        2.988     0.130    25.147     8.226
    90   6 C        2.994     0.127    25.205     8.235
    91   9 F        0.785    -0.239    11.647     4.031
    92   6 C        2.981     0.008    27.825     8.653
    93   6 C        3.822    -0.062    21.678     6.626
    94   6 C        3.754    -0.121    22.886     6.822
    95  16 S        2.469     0.044   139.256    19.861
    96   9 F        0.786    -0.235    11.603     4.024
    97   6 C        3.016     0.025    27.434     8.592
    98  16 S        2.211    -0.086   144.647    20.242
    99   6 C        3.194     0.027    26.886     8.454
   100   6 C        3.149     0.006    27.617     8.596
   101   6 C        3.099    -0.005    28.028     8.676
   102   6 C        3.005     0.002    27.975     8.676
   103   6 C        2.988    -0.013    28.322     8.730
   104  16 S        2.442     0.051   139.004    19.843
   105   6 C        2.988     0.136    25.026     8.206
   106   9 F        0.785    -0.237    11.626     4.028
   107   6 C        2.992     0.130    25.153     8.227
   108   9 F        0.785    -0.239    11.644     4.031
   109   6 C        2.982     0.007    27.850     8.657
   110   6 C        3.823    -0.063    21.688     6.627
   111   6 C        3.754    -0.121    22.873     6.820
   112   6 C        3.018     0.022    27.486     8.600
   113  16 S        2.217    -0.052   143.205    20.141
   114   6 C        3.068    -0.058    29.367     8.886
   115   6 C        3.042     0.026    27.373     8.581
   116  16 S        2.339    -0.005   141.251    20.003
   117   6 C        3.033     0.013    27.685     8.630
   118   6 C        3.077    -0.045    29.035     8.834
   119   6 C        3.107    -0.047    29.014     8.825
   120   6 C        3.041     0.022    27.486     8.599
   121   6 C        2.994     0.035    27.200     8.555
   122  16 S        2.391     0.005   140.849    19.975
   123   6 C        3.140    -0.043    28.829     8.787
   124   6 C        3.139    -0.045    28.870     8.793
   125   6 C        2.825     0.222    23.330     7.915
   126   6 C        3.163    -0.047    28.801     8.771
   127   6 C        2.981     0.039    27.122     8.543
   128   6 C        3.828    -0.062    21.676     6.625
   129   6 C        3.754    -0.108    22.621     6.782
   130  16 S        2.356     0.033   139.700    19.893
   131   6 C        2.980     0.038    27.151     8.547
   132   6 C        3.828    -0.060    21.640     6.619
   133   6 C        3.754    -0.105    22.557     6.772
   134   6 C        3.166    -0.046    28.774     8.766
   135   6 C        2.825     0.221    23.345     7.917
   136   8 O        1.036    -0.437    22.335     6.341
   137   8 O        0.990    -0.436    22.341     6.340
   138   6 C        2.992     0.037    27.167     8.550
   139   6 C        3.044     0.014    27.654     8.625
   140   6 C        3.120    -0.049    29.033     8.825
   141   6 C        3.089    -0.046    29.033     8.832
   142   6 C        2.952    -0.029    28.728     8.791
   143  16 S        2.423     0.016   140.410    19.943
   144  16 S        2.495     0.008   140.733    19.966
   145  16 S        2.406     0.025   140.045    19.918
   146  16 S        2.488     0.008   140.733    19.966
   147  16 S        2.347     0.016   140.408    19.943
   148   6 C        3.047     0.032    27.242     8.560
   149   6 C        3.024     0.029    27.333     8.576
   150   6 C        3.098    -0.047    29.036     8.831
   151   6 C        3.103    -0.048    29.053     8.832
   152   6 C        3.013     0.024    27.460     8.596
   153  16 S        2.405    -0.012   141.557    20.025
   154   6 C        3.051     0.026    27.379     8.581
   155   6 C        3.077    -0.061    29.438     8.895
   156   6 C        3.200     0.027    26.859     8.446
   157  16 S        2.218    -0.058   143.461    20.159
   158   6 C        3.021     0.024    27.440     8.593
   159   6 C        3.100    -0.002    27.961     8.665
   160   6 C        3.010     0.004    27.921     8.668
   161   6 C        2.989    -0.012    28.294     8.725
   162  16 S        2.403     0.043   139.325    19.866
   163   6 C        2.980     0.007    27.849     8.656
   164   6 C        3.822    -0.060    21.643     6.620
   165   6 C        3.754    -0.106    22.581     6.776
   166   6 C        2.994     0.127    25.197     8.234
   167   9 F        0.785    -0.233    11.583     4.020
   168   6 C        2.982     0.136    25.035     8.208
   169   9 F        0.785    -0.234    11.591     4.021
   170   6 C        3.014     0.022    27.505     8.603
   171   6 C        3.108    -0.007    28.052     8.678
   172   6 C        3.156     0.002    27.676     8.602
   173  16 S        2.273    -0.040   142.712    20.106
   174   6 C        2.957    -0.017    28.433     8.746
   175   6 C        3.078    -0.055    29.282     8.872
   176   6 C        3.207     0.023    26.890     8.444
   177  16 S        2.223    -0.063   143.683    20.175
   178   6 C        3.016    -0.002    28.044     8.687
   179   6 C        2.989    -0.009    28.245     8.718
   180  16 S        2.397     0.032   139.745    19.896
   181   6 C        2.983     0.137    24.999     8.202
   182   6 C        2.991     0.131    25.123     8.222
   183   9 F        0.785    -0.230    11.549     4.014
   184   6 C        2.981     0.006    27.870     8.660
   185   6 C        3.821    -0.049    21.428     6.588
   186   6 C        3.754    -0.106    22.579     6.776
   187   9 F        0.785    -0.231    11.555     4.015
   188   6 C        3.144     0.006    27.630     8.600
   189  16 S        2.286    -0.034   142.477    20.090
   190   6 C        3.147    -0.038    28.668     8.759
   191   6 C        2.824     0.230    23.185     7.890
   192   8 O        0.858    -0.454    22.791     6.401
   193   1 H        0.924     0.067     2.121     2.278
   194   1 H        0.924     0.072     2.060     2.245
   195   1 H        0.925     0.052     2.295     2.369
   196   1 H        0.925     0.041     2.431     2.438
   197   1 H        0.925     0.059     2.208     2.323
   198   1 H        0.924     0.067     2.118     2.276
   199   1 H        0.924     0.074     2.039     2.233
   200   1 H        0.925     0.046     2.374     2.409
   201   1 H        0.925     0.051     2.305     2.374
   202   1 H        0.925     0.062     2.177     2.307
   203   1 H        0.926     0.070     2.085     2.258
   204   1 H        0.926     0.069     2.091     2.261
   205   1 H        0.926     0.077     2.014     2.219
   206   1 H        0.924     0.071     2.078     2.254
   207   1 H        0.924     0.082     1.963     2.191
   208   1 H        0.925     0.066     2.127     2.281
   209   1 H        0.925     0.060     2.204     2.322
   210   1 H        0.925     0.048     2.348     2.396
   211   1 H        0.924     0.087     1.910     2.161
   212   1 H        0.924     0.070     2.083     2.257
   213   1 H        0.925     0.049     2.329     2.387
   214   1 H        0.925     0.062     2.179     2.308
   215   1 H        0.925     0.065     2.136     2.286
   216   1 H        0.926     0.072     2.064     2.247
   217   1 H        0.926     0.067     2.124     2.279
   218   1 H        0.926     0.075     2.030     2.228
   219   1 H        0.924     0.065     2.139     2.287
   220   1 H        0.924     0.075     2.026     2.226
   221   1 H        0.925     0.057     2.233     2.337
   222   1 H        0.925     0.043     2.413     2.429
   223   1 H        0.925     0.048     2.339     2.392
   224   1 H        0.924     0.070     2.083     2.257
   225   1 H        0.924     0.065     2.137     2.286
   226   1 H        0.925     0.043     2.409     2.427
   227   1 H        0.925     0.053     2.283     2.363
   228   1 H        0.925     0.055     2.258     2.350
   229   1 H        0.926     0.072     2.067     2.248
   230   1 H        0.926     0.067     2.120     2.277
   231   1 H        0.926     0.077     2.015     2.220
   232   1 H        0.924     0.089     1.893     2.151
   233   1 H        0.924     0.071     2.071     2.250
   234   1 H        0.925     0.061     2.185     2.312
   235   1 H        0.925     0.047     2.358     2.402
   236   1 H        0.925     0.068     2.108     2.270
   237   1 H        0.924     0.085     1.928     2.171
   238   1 H        0.924     0.072     2.066     2.248
   239   1 H        0.925     0.068     2.105     2.269
   240   1 H        0.925     0.060     2.202     2.321
   241   1 H        0.925     0.048     2.346     2.395
   242   1 H        0.926     0.052     2.298     2.371
   243   1 H        0.926     0.073     2.054     2.241
   244   1 H        0.926     0.078     2.004     2.214
   245   1 H        0.924     0.077     2.014     2.220
   246   1 H        0.924     0.066     2.125     2.280
   247   1 H        0.925     0.043     2.411     2.428
   248   1 H        0.925     0.049     2.337     2.390
   249   1 H        0.925     0.061     2.184     2.311
   250   1 H        0.924     0.071     2.078     2.254
   251   1 H        0.924     0.062     2.171     2.304
   252   1 H        0.925     0.051     2.303     2.373
   253   1 H        0.925     0.045     2.387     2.416
   254   1 H        0.925     0.054     2.269     2.355
   255   1 H        0.926     0.067     2.116     2.275
   256   1 H        0.926     0.066     2.131     2.283
   257   1 H        0.926     0.073     2.049     2.238
   258   1 H        0.926     0.068     2.111     2.272
   259   1 H        0.926     0.062     2.179     2.309
   260   1 H        0.926     0.071     2.072     2.251
   261   1 H        0.924     0.082     1.962     2.190
   262   1 H        0.924     0.075     2.037     2.232
   263   1 H        0.925     0.049     2.334     2.389
   264   1 H        0.925     0.049     2.337     2.391
   265   1 H        0.925     0.055     2.264     2.353
   266   1 H        0.926     0.087     1.913     2.163
   267   1 H        0.926     0.081     1.964     2.192
   268   1 H        0.924     0.068     2.112     2.273
   269   1 H        0.924     0.060     2.202     2.321
   270   1 H        0.925     0.043     2.409     2.427
   271   1 H        0.925     0.050     2.325     2.384
   272   1 H        0.925     0.060     2.195     2.317

 Mol. C6AA /au·bohr⁶  :    1643110.288552
 Mol. C8AA /au·bohr⁸  :   51458714.300260
 Mol. α(0) /au        :       2061.790195


Wiberg/Mayer (AO) data.
largest (>0.10) Wiberg bond orders for each atom

 ---------------------------------------------------------------------------
     #   Z sym  total        # sym  WBO       # sym  WBO       # sym  WBO
 ---------------------------------------------------------------------------
     1   8 O    2.052 --     2 C    1.624    15 S    0.117
     2   6 C    3.931 --     1 O    1.624    12 C    1.087     3 C    1.072
     3   6 C    3.978 --     8 C    1.504     4 C    1.168     2 C    1.072
     4   6 C    3.978 --     5 C    1.506     3 C    1.168   191 C    1.069
     5   6 C    3.944 --     4 C    1.506     9 S    1.180     6 C    1.038
     6   6 C    3.989 --     5 C    1.038     7 C    0.986   193 H    0.969
                           194 H    0.954
     7   6 C    3.988 --   196 H    0.988   195 H    0.987     6 C    0.986
                           197 H    0.982
     8   6 C    3.937 --     3 C    1.504     9 S    1.179    10 C    1.038
     9  16 S    2.655 --     5 C    1.180     8 C    1.179
    10   6 C    3.988 --     8 C    1.038    11 C    0.985   198 H    0.969
                           199 H    0.954
    11   6 C    3.987 --   201 H    0.987   200 H    0.987    10 C    0.985
                           202 H    0.982
    12   6 C    3.962 --    13 C    1.407   190 C    1.196     2 C    1.087
    13   6 C    3.942 --    12 C    1.407    14 C    1.205   147 S    1.120
    14   6 C    3.929 --    16 C    1.420    13 C    1.205    15 S    1.120
    15  16 S    2.721 --    18 C    1.142    14 C    1.120     1 O    0.117
    16   6 C    3.973 --    14 C    1.420    17 C    1.393   203 H    0.957
    17   6 C    3.965 --    18 C    1.423    16 C    1.393   204 H    0.959
    18   6 C    3.946 --    17 C    1.423    19 C    1.186    15 S    1.142
    19   6 C    3.932 --    20 C    1.472    18 C    1.186    23 S    1.099
    20   6 C    3.962 --    19 C    1.472    21 C    1.309   205 H    0.955
    21   6 C    3.934 --    22 C    1.369    20 C    1.309    51 S    1.078
    22   6 C    3.918 --    21 C    1.369    24 C    1.204    23 S    1.124
    23  16 S    2.559 --    22 C    1.124    19 C    1.099
    24   6 C    3.964 --    25 C    1.279    50 C    1.250    22 C    1.204
    25   6 C    3.961 --    35 C    1.379    24 C    1.279    26 C    1.064
    26   6 C    3.950 --    27 C    1.507    33 S    1.138    25 C    1.064
                            30 C    0.100
    27   6 C    3.852 --    26 C    1.507    28 C    1.214    34 F    0.948
    28   6 C    3.861 --    30 C    1.529    27 C    1.214    29 F    0.943
    29   9 F    1.072 --    28 C    0.943
    30   6 C    3.941 --    28 C    1.529    33 S    1.169    31 C    1.028
                            26 C    0.100
    31   6 C    3.984 --    30 C    1.028    32 C    0.994   206 H    0.966
                           207 H    0.958
    32   6 C    3.988 --    31 C    0.994   210 H    0.988   209 H    0.985
                           208 H    0.982
    33  16 S    2.607 --    30 C    1.169    26 C    1.138
    34   9 F    1.083 --    27 C    0.948
    35   6 C    3.945 --    25 C    1.379    39 C    1.244    36 S    1.088
    36  16 S    2.467 --    35 C    1.088    37 C    1.079
    37   6 C    3.934 --    38 C    1.368    52 C    1.308    36 S    1.079
    38   6 C    3.919 --    37 C    1.368    39 C    1.206    54 S    1.128
    39   6 C    3.963 --    40 C    1.276    35 C    1.244    38 C    1.206
    40   6 C    3.958 --    50 C    1.372    39 C    1.276    41 C    1.079
    41   6 C    3.950 --    43 C    1.493    42 S    1.136    40 C    1.079
    42  16 S    2.618 --    47 C    1.170    41 C    1.136
    43   6 C    3.860 --    41 C    1.493    45 C    1.219    44 F    0.947
    44   9 F    1.081 --    43 C    0.947
    45   6 C    3.860 --    47 C    1.523    43 C    1.219    46 F    0.943
    46   9 F    1.071 --    45 C    0.943
    47   6 C    3.939 --    45 C    1.523    42 S    1.170    48 C    1.028
    48   6 C    3.984 --    47 C    1.028    49 C    1.004   212 H    0.964
                           211 H    0.948
    49   6 C    3.988 --    48 C    1.004   213 H    0.986   215 H    0.983
                           214 H    0.981
    50   6 C    3.946 --    40 C    1.372    24 C    1.250    51 S    1.089
    51  16 S    2.482 --    50 C    1.089    21 C    1.078
    52   6 C    3.959 --    53 C    1.470    37 C    1.308   216 H    0.958
    53   6 C    3.932 --    52 C    1.470    55 C    1.180    54 S    1.109
    54  16 S    2.573 --    38 C    1.128    53 C    1.109
    55   6 C    3.945 --    56 C    1.413    53 C    1.180   146 S    1.162
    56   6 C    3.965 --    55 C    1.413    57 C    1.401   217 H    0.961
    57   6 C    3.972 --    58 C    1.410    56 C    1.401   218 H    0.955
    58   6 C    3.930 --    57 C    1.410    59 C    1.210   146 S    1.128
    59   6 C    3.943 --    60 C    1.398    58 C    1.210   145 S    1.127
    60   6 C    3.962 --    59 C    1.398    61 C    1.198    72 C    1.092
    61   6 C    3.968 --    75 C    1.445    60 C    1.198    62 C    1.056
    62   6 C    3.936 --    74 O    1.674    63 C    1.069    61 C    1.056
    63   6 C    3.978 --    64 C    1.504    71 C    1.171    62 C    1.069
    64   6 C    3.941 --    63 C    1.504    67 S    1.179    65 C    1.039
    65   6 C    3.989 --    64 C    1.039    66 C    0.986   219 H    0.970
                           220 H    0.952
    66   6 C    3.989 --   223 H    0.987   222 H    0.986    65 C    0.986
                           221 H    0.982
    67  16 S    2.656 --    68 C    1.182    64 C    1.179
    68   6 C    3.938 --    71 C    1.501    67 S    1.182    69 C    1.038
    69   6 C    3.989 --    68 C    1.038    70 C    0.986   225 H    0.970
                           224 H    0.954
    70   6 C    3.988 --   228 H    0.987    69 C    0.986   226 H    0.986
                           227 H    0.982
    71   6 C    3.978 --    68 C    1.501    63 C    1.171    72 C    1.075
    72   6 C    3.929 --    73 O    1.614    60 C    1.092    71 C    1.075
    73   8 O    2.061 --    72 C    1.614   146 S    0.138
    74   8 O    1.989 --    62 C    1.674
    75   6 C    3.937 --    61 C    1.445    76 C    1.142   145 S    1.138
    76   6 C    3.931 --    78 C    1.489    75 C    1.142    77 S    1.118
    77  16 S    2.608 --    80 C    1.143    76 C    1.118
    78   6 C    3.975 --    76 C    1.489    79 C    1.338   229 H    0.958
    79   6 C    3.970 --    80 C    1.472    78 C    1.338   230 H    0.960
    80   6 C    3.942 --    79 C    1.472    81 C    1.156    77 S    1.143
    81   6 C    3.933 --    83 C    1.491    80 C    1.156    82 S    1.116
    82  16 S    2.603 --    85 C    1.130    81 C    1.116
    83   6 C    3.967 --    81 C    1.491    84 C    1.295   231 H    0.959
    84   6 C    3.934 --    85 C    1.376    83 C    1.295   113 S    1.082
    85   6 C    3.927 --    84 C    1.376    86 C    1.202    82 S    1.130
    86   6 C    3.964 --    87 C    1.279   112 C    1.254    85 C    1.202
    87   6 C    3.964 --    97 C    1.371    86 C    1.279    88 C    1.073
    88   6 C    3.949 --    89 C    1.503    95 S    1.131    87 C    1.073
    89   6 C    3.846 --    88 C    1.503    90 C    1.214    96 F    0.946
    90   6 C    3.860 --    92 C    1.526    89 C    1.214    91 F    0.943
    91   9 F    1.072 --    90 C    0.943
    92   6 C    3.938 --    90 C    1.526    95 S    1.167    93 C    1.028
    93   6 C    3.983 --    92 C    1.028    94 C    0.998   233 H    0.965
                           232 H    0.952
    94   6 C    3.988 --    93 C    0.998   235 H    0.988   234 H    0.983
                           236 H    0.982
    95  16 S    2.613 --    92 C    1.167    88 C    1.131
    96   9 F    1.084 --    89 C    0.946
    97   6 C    3.944 --    87 C    1.371   101 C    1.241    98 S    1.096
    98  16 S    2.484 --    97 C    1.096    99 C    1.081
    99   6 C    3.933 --   100 C    1.370   114 C    1.306    98 S    1.081
   100   6 C    3.922 --    99 C    1.370   101 C    1.203   116 S    1.131
   101   6 C    3.965 --   102 C    1.291    97 C    1.241   100 C    1.203
   102   6 C    3.953 --   112 C    1.372   101 C    1.291   103 C    1.055
   103   6 C    3.950 --   105 C    1.513   104 S    1.138   102 C    1.055
                           109 C    0.102
   104  16 S    2.624 --   109 C    1.164   103 C    1.138
   105   6 C    3.858 --   103 C    1.513   107 C    1.211   106 F    0.947
   106   9 F    1.079 --   105 C    0.947
   107   6 C    3.861 --   109 C    1.530   105 C    1.211   108 F    0.944
   108   9 F    1.072 --   107 C    0.944
   109   6 C    3.941 --   107 C    1.530   104 S    1.164   110 C    1.028
                           103 C    0.102
   110   6 C    3.983 --   109 C    1.028   111 C    0.995   238 H    0.965
                           237 H    0.956
   111   6 C    3.988 --   110 C    0.995   241 H    0.988   240 H    0.984
                           239 H    0.982
   112   6 C    3.949 --   102 C    1.372    86 C    1.254   113 S    1.091
   113  16 S    2.474 --   112 C    1.091    84 C    1.082
   114   6 C    3.963 --   115 C    1.477    99 C    1.306   242 H    0.959
   115   6 C    3.938 --   114 C    1.477   117 C    1.182   116 S    1.108
   116  16 S    2.581 --   100 C    1.131   115 C    1.108
   117   6 C    3.946 --   118 C    1.417   115 C    1.182   144 S    1.156
   118   6 C    3.965 --   117 C    1.417   119 C    1.406   243 H    0.958
   119   6 C    3.968 --   118 C    1.406   120 C    1.402   244 H    0.953
   120   6 C    3.933 --   119 C    1.402   121 C    1.221   144 S    1.130
   121   6 C    3.939 --   123 C    1.396   120 C    1.221   122 S    1.118
   122  16 S    2.600 --   138 C    1.120   121 C    1.118
   123   6 C    3.962 --   121 C    1.396   124 C    1.191   135 C    1.101
   124   6 C    3.976 --   138 C    1.406   123 C    1.191   125 C    1.094
   125   6 C    3.932 --   137 O    1.618   124 C    1.094   126 C    1.071
   126   6 C    3.976 --   127 C    1.504   134 C    1.171   125 C    1.071
   127   6 C    3.934 --   126 C    1.504   130 S    1.179   128 C    1.037
   128   6 C    3.988 --   127 C    1.037   129 C    0.986   246 H    0.969
                           245 H    0.953
   129   6 C    3.988 --   248 H    0.987   247 H    0.987   128 C    0.986
                           249 H    0.982
   130  16 S    2.654 --   131 C    1.182   127 C    1.179
   131   6 C    3.936 --   134 C    1.499   130 S    1.182   132 C    1.038
   132   6 C    3.989 --   131 C    1.038   133 C    0.985   251 H    0.969
                           250 H    0.955
   133   6 C    3.988 --   252 H    0.987   253 H    0.986   132 C    0.985
                           254 H    0.983
   134   6 C    3.976 --   131 C    1.499   126 C    1.171   135 C    1.076
   135   6 C    3.927 --   136 O    1.599   123 C    1.101   134 C    1.076
   136   8 O    2.070 --   135 C    1.599   144 S    0.160
   137   8 O    2.062 --   125 C    1.618   143 S    0.134
   138   6 C    3.938 --   124 C    1.406   139 C    1.212   122 S    1.120
   139   6 C    3.949 --   140 C    1.436   138 C    1.212   143 S    1.124
   140   6 C    3.970 --   139 C    1.436   141 C    1.356   255 H    0.954
                           143 S    0.105
   141   6 C    3.979 --   142 C    1.543   140 C    1.356   256 H    0.963
   142   6 C    3.942 --   141 C    1.543   143 S    1.249   257 H    0.966
   143  16 S    2.798 --   142 C    1.249   139 C    1.124   137 O    0.134
                           140 C    0.105
   144  16 S    2.787 --   117 C    1.156   120 C    1.130   136 O    0.160
   145  16 S    2.617 --    75 C    1.138    59 C    1.127
   146  16 S    2.764 --    55 C    1.162    58 C    1.128    73 O    0.138
   147  16 S    2.601 --   148 C    1.131    13 C    1.120
   148   6 C    3.934 --   190 C    1.477   147 S    1.131   149 C    1.099
   149   6 C    3.929 --   150 C    1.527   153 S    1.121   148 C    1.099
   150   6 C    3.976 --   149 C    1.527   151 C    1.318   258 H    0.960
   151   6 C    3.970 --   152 C    1.491   150 C    1.318   259 H    0.960
   152   6 C    3.942 --   151 C    1.491   154 C    1.155   153 S    1.131
   153  16 S    2.599 --   152 C    1.131   149 C    1.121
   154   6 C    3.935 --   155 C    1.493   152 C    1.155   189 S    1.114
   155   6 C    3.974 --   154 C    1.493   156 C    1.298   260 H    0.956
   156   6 C    3.939 --   188 C    1.381   155 C    1.298   157 S    1.083
   157  16 S    2.482 --   158 C    1.094   156 C    1.083
   158   6 C    3.949 --   178 C    1.374   159 C    1.248   157 S    1.094
   159   6 C    3.969 --   160 C    1.287   158 C    1.248   188 C    1.199
   160   6 C    3.965 --   170 C    1.373   159 C    1.287   161 C    1.064
   161   6 C    3.950 --   168 C    1.504   162 S    1.140   160 C    1.064
                           163 C    0.102
   162  16 S    2.611 --   163 C    1.172   161 C    1.140
   163   6 C    3.941 --   166 C    1.527   162 S    1.172   164 C    1.025
                           161 C    0.102
   164   6 C    3.984 --   163 C    1.025   165 C    0.993   261 H    0.968
                           262 H    0.958
   165   6 C    3.990 --   164 C    0.993   263 H    0.987   265 H    0.983
                           264 H    0.983
   166   6 C    3.864 --   163 C    1.527   168 C    1.215   167 F    0.947
   167   9 F    1.076 --   166 C    0.947
   168   6 C    3.862 --   161 C    1.504   166 C    1.215   169 F    0.948
   169   9 F    1.085 --   168 C    0.948
   170   6 C    3.956 --   160 C    1.373   171 C    1.253   177 S    1.091
   171   6 C    3.967 --   178 C    1.295   170 C    1.253   172 C    1.190
   172   6 C    3.940 --   176 C    1.407   171 C    1.190   173 S    1.129
   173  16 S    2.604 --   174 C    1.177   172 C    1.129
   174   6 C    3.924 --   175 C    1.622   173 S    1.177   266 H    0.963
   175   6 C    3.980 --   174 C    1.622   176 C    1.258   267 H    0.952
   176   6 C    3.934 --   172 C    1.407   175 C    1.258   177 S    1.083
   177  16 S    2.487 --   170 C    1.091   176 C    1.083
   178   6 C    3.971 --   158 C    1.374   171 C    1.295   179 C    1.054
   179   6 C    3.949 --   181 C    1.511   180 S    1.139   178 C    1.054
                           184 C    0.104
   180  16 S    2.609 --   184 C    1.170   179 C    1.139
   181   6 C    3.866 --   179 C    1.511   182 C    1.213   187 F    0.950
   182   6 C    3.867 --   184 C    1.529   181 C    1.213   183 F    0.950
   183   9 F    1.081 --   182 C    0.950
   184   6 C    3.943 --   182 C    1.529   180 S    1.170   185 C    1.026
                           179 C    0.104
   185   6 C    3.988 --   184 C    1.026   186 C    0.992   268 H    0.967
                           269 H    0.960
   186   6 C    3.990 --   185 C    0.992   271 H    0.987   272 H    0.986
                           270 H    0.983
   187   9 F    1.084 --   181 C    0.950
   188   6 C    3.926 --   156 C    1.381   159 C    1.199   189 S    1.124
   189  16 S    2.570 --   188 C    1.124   154 C    1.114
   190   6 C    3.974 --   148 C    1.477    12 C    1.196   191 C    1.049
   191   6 C    3.935 --   192 O    1.680     4 C    1.069   190 C    1.049
   192   8 O    1.991 --   191 C    1.680
   193   1 H    0.995 --     6 C    0.969
   194   1 H    0.994 --     6 C    0.954
   195   1 H    0.997 --     7 C    0.987
   196   1 H    0.998 --     7 C    0.988
   197   1 H    0.996 --     7 C    0.982
   198   1 H    0.995 --    10 C    0.969
   199   1 H    0.993 --    10 C    0.954
   200   1 H    0.998 --    11 C    0.987
   201   1 H    0.997 --    11 C    0.987
   202   1 H    0.995 --    11 C    0.982
   203   1 H    0.995 --    16 C    0.957
   204   1 H    0.994 --    17 C    0.959
   205   1 H    0.994 --    20 C    0.955
   206   1 H    0.995 --    31 C    0.966
   207   1 H    0.992 --    31 C    0.958
   208   1 H    0.995 --    32 C    0.982
   209   1 H    0.996 --    32 C    0.985
   210   1 H    0.998 --    32 C    0.988
   211   1 H    0.991 --    48 C    0.948
   212   1 H    0.995 --    48 C    0.964
   213   1 H    0.997 --    49 C    0.986
   214   1 H    0.996 --    49 C    0.981
   215   1 H    0.995 --    49 C    0.983
   216   1 H    0.994 --    52 C    0.958
   217   1 H    0.994 --    56 C    0.961
   218   1 H    0.994 --    57 C    0.955
   219   1 H    0.995 --    65 C    0.970
   220   1 H    0.993 --    65 C    0.952
   221   1 H    0.996 --    66 C    0.982
   222   1 H    0.998 --    66 C    0.986
   223   1 H    0.998 --    66 C    0.987
   224   1 H    0.994 --    69 C    0.954
   225   1 H    0.995 --    69 C    0.970
   226   1 H    0.998 --    70 C    0.986
   227   1 H    0.996 --    70 C    0.982
   228   1 H    0.997 --    70 C    0.987
   229   1 H    0.994 --    78 C    0.958
   230   1 H    0.995 --    79 C    0.960
   231   1 H    0.994 --    83 C    0.959
   232   1 H    0.991 --    93 C    0.952
   233   1 H    0.995 --    93 C    0.965
   234   1 H    0.996 --    94 C    0.983
   235   1 H    0.998 --    94 C    0.988
   236   1 H    0.995 --    94 C    0.982
   237   1 H    0.992 --   110 C    0.956
   238   1 H    0.994 --   110 C    0.965
   239   1 H    0.994 --   111 C    0.982
   240   1 H    0.996 --   111 C    0.984
   241   1 H    0.998 --   111 C    0.988
   242   1 H    0.997 --   114 C    0.959
   243   1 H    0.993 --   118 C    0.958
   244   1 H    0.993 --   119 C    0.953
   245   1 H    0.993 --   128 C    0.953
   246   1 H    0.995 --   128 C    0.969
   247   1 H    0.998 --   129 C    0.987
   248   1 H    0.998 --   129 C    0.987
   249   1 H    0.995 --   129 C    0.982
   250   1 H    0.994 --   132 C    0.955
   251   1 H    0.995 --   132 C    0.969
   252   1 H    0.997 --   133 C    0.987
   253   1 H    0.998 --   133 C    0.986
   254   1 H    0.996 --   133 C    0.983
   255   1 H    0.995 --   140 C    0.954
   256   1 H    0.994 --   141 C    0.963
   257   1 H    0.994 --   142 C    0.966
   258   1 H    0.995 --   150 C    0.960
   259   1 H    0.996 --   151 C    0.960
   260   1 H    0.994 --   155 C    0.956
   261   1 H    0.993 --   164 C    0.968
   262   1 H    0.994 --   164 C    0.958
   263   1 H    0.998 --   165 C    0.987
   264   1 H    0.998 --   165 C    0.983
   265   1 H    0.996 --   165 C    0.983
   266   1 H    0.992 --   174 C    0.963
   267   1 H    0.993 --   175 C    0.952
   268   1 H    0.995 --   185 C    0.967
   269   1 H    0.996 --   185 C    0.960
   270   1 H    0.997 --   186 C    0.983
   271   1 H    0.997 --   186 C    0.987
   272   1 H    0.996 --   186 C    0.986
 ---------------------------------------------------------------------------

Topologies differ in bond orders
Writing corrected topology to xtbtopo.mol

molecular dipole:
                 x           y           z       tot (Debye)
 q only:       -2.587       1.196       2.032
   full:       -2.298       0.657       1.308       6.925
molecular quadrupole (traceless):
                xx          xy          yy          xz          yz          zz
 q only:        9.060     -29.100     -39.318      87.546     -31.130      30.257
  q+dip:        0.317      -5.592     -23.056      51.368     -37.788      22.739
   full:        1.535      -6.038     -24.610      45.175     -35.496      23.074


           -------------------------------------------------
          | TOTAL ENERGY             -528.034924762043 Eh   |
          | GRADIENT NORM               0.060191855138 Eh/α |
          | HOMO-LUMO GAP               1.217071145919 eV   |
           -------------------------------------------------

------------------------------------------------------------------------
 * finished run on 2022/01/11 at 10:01:36.208     
------------------------------------------------------------------------
 total:
 * wall-time:     0 d,  0 h,  0 min,  6.769 sec
 *  cpu-time:     0 d,  0 h,  0 min,  6.769 sec
 * ratio c/w:     1.000 speedup
 SCF:
 * wall-time:     0 d,  0 h,  0 min,  6.450 sec
 *  cpu-time:     0 d,  0 h,  0 min,  6.449 sec
 * ratio c/w:     1.000 speedup

