      -----------------------------------------------------------      
     |                   =====================                   |     
     |                           x T B                           |     
     |                   =====================                   |     
     |                         S. Grimme                         |     
     |          Mulliken Center for Theoretical Chemistry        |     
     |                    University of Bonn                     |     
      -----------------------------------------------------------      

   * xtb version 6.4.1 (unknown) compiled by 'oda6@login1.crc.pitt.edu' on 2021-06-25

   xtb is free software: you can redistribute it and/or modify it under
   the terms of the GNU Lesser General Public License as published by
   the Free Software Foundation, either version 3 of the License, or
   (at your option) any later version.
   
   xtb is distributed in the hope that it will be useful,
   but WITHOUT ANY WARRANTY; without even the implied warranty of
   MERCHANTABILITY or FITNESS FOR A PARTICULAR PURPOSE.  See the
   GNU Lesser General Public License for more details.
   
   Cite this work as:
   * C. Bannwarth, E. Caldeweyher, S. Ehlert, A. Hansen, P. Pracht,
     J. Seibert, S. Spicher, S. Grimme, WIREs Comput. Mol. Sci., 2020, 11,
     e01493. DOI: 10.1002/wcms.1493
   
   for GFN2-xTB:
   * C. Bannwarth, S. Ehlert and S. Grimme., J. Chem. Theory Comput., 2019,
     15, 1652-1671. DOI: 10.1021/acs.jctc.8b01176
   for GFN1-xTB:
   * S. Grimme, C. Bannwarth, P. Shushkov, J. Chem. Theory Comput., 2017,
     13, 1989-2009. DOI: 10.1021/acs.jctc.7b00118
   for GFN0-xTB:
   * P. Pracht, E. Caldeweyher, S. Ehlert, S. Grimme, ChemRxiv, 2019, preprint.
     DOI: 10.26434/chemrxiv.8326202.v1
   for GFN-FF:
   * S. Spicher and S. Grimme, Angew. Chem. Int. Ed., 2020, 59, 15665-15673.
     DOI: 10.1002/anie.202004239
   
   for DFT-D4:
   * E. Caldeweyher, C. Bannwarth and S. Grimme, J. Chem. Phys., 2017,
     147, 034112. DOI: 10.1063/1.4993215
   * E. Caldeweyher, S. Ehlert, A. Hansen, H. Neugebauer, S. Spicher,
     C. Bannwarth and S. Grimme, J. Chem. Phys., 2019, 150, 154122.
     DOI: 10.1063/1.5090222
   * E. Caldeweyher, J.-M. Mewes, S. Ehlert and S. Grimme, Phys. Chem. Chem. Phys.
     2020, 22, 8499-8512. DOI: 10.1039/D0CP00502A
   
   for sTDA-xTB:
   * S. Grimme and C. Bannwarth, J. Chem. Phys., 2016, 145, 054103.
     DOI: 10.1063/1.4959605
   
   in the mass-spec context:
   * V. Asgeirsson, C. Bauer and S. Grimme, Chem. Sci., 2017, 8, 4879.
     DOI: 10.1039/c7sc00601b
   * J. Koopman and S. Grimme, ACS Omega 2019, 4, 12, 15120-15133.
     DOI: 10.1021/acsomega.9b02011
   
   for metadynamics refer to:
   * S. Grimme, J. Chem. Theory Comput., 2019, 155, 2847-2862
     DOI: 10.1021/acs.jctc.9b00143
   
   for SPH calculations refer to:
   * S. Spicher and S. Grimme, J. Chem. Theory Comput., 2021, 17, 1701-1714
     DOI: 10.1021/acs.jctc.0c01306
   
   with help from (in alphabetical order)
   P. Atkinson, C. Bannwarth, F. Bohle, G. Brandenburg, E. Caldeweyher
   M. Checinski, S. Dohm, S. Ehlert, S. Ehrlich, I. Gerasimov, J. Koopman
   C. Lavigne, S. Lehtola, F. März, M. Müller, F. Musil, H. Neugebauer
   J. Pisarek, C. Plett, P. Pracht, J. Seibert, P. Shushkov, S. Spicher
   M. Stahn, M. Steiner, T. Strunk, J. Stückrath, T. Rose, and J. Unsleber
   
 * started run on 2022/02/11 at 12:13:22.862     

           -------------------------------------------------
          |                Calculation Setup                |
           -------------------------------------------------

          program call               : /ihome/ghutchison/oda6/xtb/xtb-641/bin/xtb ../../GFN2_output/15_6_126_6_65.mol --sp --alpb hexane
          hostname                   : smp-n25
          coordinate file            : ../../GFN2_output/15_6_126_6_65.mol
          omp threads                :                     8
          number of atoms            :                   128
          number of electrons        :                   454
          charge                     :                     0
          spin                       :                   0.0
          first test random number   :      0.75104182578556

   ID    Z sym.   atoms
    1    6 C      1-3, 5-14, 16, 18, 20-22, 24-29, 31-33, 35-38, 42-44,
                  46-49, 51, 52, 54-57, 59, 60, 62, 64-66, 68-73, 75-77, 79,
                  80, 82, 84, 86, 88-91, 93
    2    8 O      4, 78
    3    7 N      15, 17, 23, 39, 41, 45, 50, 67, 92, 94
    4   16 S      19, 30, 34, 40, 58, 63, 74
    5   34 Se     53, 61
    6   17 Cl     81, 83, 85, 87
    7    1 H      95-128

           -------------------------------------------------
          |                 G F N 2 - x T B                 |
           -------------------------------------------------

        Reference                      10.1021/acs.jctc.8b01176
      * Hamiltonian:
        H0-scaling (s, p, d)           1.850000    2.230000    2.230000
        zeta-weighting                 0.500000
      * Dispersion:
        s8                             2.700000
        a1                             0.520000
        a2                             5.000000
        s9                             5.000000
      * Repulsion:
        kExp                           1.500000    1.000000
        rExp                           1.000000
      * Coulomb:
        alpha                          2.000000
        third order                    shell-resolved
        anisotropic                    true
        a3                             3.000000
        a5                             4.000000
        cn-shift                       1.200000
        cn-exp                         4.000000
        max-rad                        5.000000

      * Solvation model:               ALPB
        Solvent                        hexane
        Parameter file                 internal GFN2-xTB/ALPB
        Dielectric constant                1.8800E+00
        Reference state                gsolv [1 M gas/solution]
        Free energy shift                  4.8134E-03 Eh       3.0204E+00 kcal/mol
        Temperature                        2.9815E+02 K
        Density                            6.6000E-01 kg/L
        Solvent mass                       8.6180E+01 g/mol
        Interaction kernel             P16
        Born radius scaling (c1)           1.1040E+00
        Born radii integrator          GBOBC
        Born offset                        0.0000E+00 a0       0.0000E+00 AA
        H-bond correction              false
        Ion screening                  false
        Surface tension                    1.0000E-05 Eh       1.5569E+01 dyn/cm
        Grid points                               230 per atom

          ...................................................
          :                      SETUP                      :
          :.................................................:
          :  # basis functions                 488          :
          :  # atomic orbitals                 475          :
          :  # shells                          235          :
          :  # electrons                       454          :
          :  max. iterations                   250          :
          :  Hamiltonian                  GFN2-xTB          :
          :  restarted?                      false          :
          :  GBSA solvation                   true          :
          :  PC potential                    false          :
          :  electronic temp.          300.0000000     K    :
          :  accuracy                    1.0000000          :
          :  -> integral cutoff          0.2500000E+02      :
          :  -> integral neglect         0.1000000E-07      :
          :  -> SCF convergence          0.1000000E-05 Eh   :
          :  -> wf. convergence          0.1000000E-03 e    :
          :  Broyden damping             0.4000000          :
          ...................................................

 iter      E             dE          RMSdq      gap      omega  full diag
   1   -253.0744177 -0.253074E+03  0.461E+00    1.08       0.0  T
   2   -253.3236659 -0.249248E+00  0.271E+00    0.74       1.0  T
   3   -253.2762820  0.473838E-01  0.144E+00    0.69       1.0  T
   4   -253.3849322 -0.108650E+00  0.559E-01    0.77       1.0  T
   5   -253.4085578 -0.236256E-01  0.184E-01    0.61       1.0  T
   6   -253.4098555 -0.129764E-02  0.103E-01    0.68       1.0  T
   7   -253.4102604 -0.404904E-03  0.499E-02    0.67       1.0  T
   8   -253.4103333 -0.729330E-04  0.323E-02    0.67       1.0  T
   9   -253.4103558 -0.225465E-04  0.220E-02    0.67       1.0  T
  10   -253.4103701 -0.142564E-04  0.130E-02    0.67       1.0  T
  11   -253.4103782 -0.806060E-05  0.762E-03    0.67       1.2  T
  12   -253.4103801 -0.198154E-05  0.498E-03    0.67       1.8  T
  13   -253.4103813 -0.112476E-05  0.338E-03    0.67       2.6  T
  14   -253.4103817 -0.441594E-06  0.232E-03    0.67       3.8  T
  15   -253.4103820 -0.298576E-06  0.141E-03    0.67       6.3  T
  16   -253.4103821 -0.100090E-06  0.918E-04    0.67       9.6  T
  17   -253.4103821 -0.472094E-07  0.548E-04    0.67      16.1  T

   *** convergence criteria satisfied after 17 iterations ***

         #    Occupation            Energy/Eh            Energy/eV
      -------------------------------------------------------------
         1        2.0000           -1.0880456             -29.6072
       ...           ...                  ...                  ...
       221        2.0000           -0.3883407             -10.5673
       222        2.0000           -0.3876240             -10.5478
       223        2.0000           -0.3833712             -10.4321
       224        2.0000           -0.3822417             -10.4013
       225        2.0000           -0.3772096             -10.2644
       226        2.0000           -0.3740253             -10.1777
       227        2.0000           -0.3621808              -9.8554 (HOMO)
       228        0.0000           -0.3374147              -9.1815 (LUMO)
       229                         -0.3290848              -8.9549
       230                         -0.3246195              -8.8333
       231                         -0.3143792              -8.5547
       232                         -0.3038575              -8.2684
       ...                                ...                  ...
       475                          1.1621345              31.6233
      -------------------------------------------------------------
                  HL-Gap            0.0247661 Eh            0.6739 eV
             Fermi-level           -0.3497978 Eh           -9.5185 eV

 SCC (total)                   0 d,  0 h,  0 min,  0.450 sec
 SCC setup                      ...        0 min,  0.003 sec (  0.764%)
 Dispersion                     ...        0 min,  0.004 sec (  0.932%)
 classical contributions        ...        0 min,  0.000 sec (  0.032%)
 integral evaluation            ...        0 min,  0.020 sec (  4.447%)
 iterations                     ...        0 min,  0.376 sec ( 83.479%)
 molecular gradient             ...        0 min,  0.045 sec (  9.921%)
 printout                       ...        0 min,  0.002 sec (  0.404%)

         :::::::::::::::::::::::::::::::::::::::::::::::::::::
         ::                     SUMMARY                     ::
         :::::::::::::::::::::::::::::::::::::::::::::::::::::
         :: total energy            -249.829160464464 Eh    ::
         :: total w/o Gsasa/hb      -249.738585983555 Eh    ::
         :: gradient norm              0.022780179519 Eh/a0 ::
         :: HOMO-LUMO gap              0.673921061048 eV    ::
         ::.................................................::
         :: SCC energy              -253.410382148392 Eh    ::
         :: -> isotropic ES            0.157903783903 Eh    ::
         :: -> anisotropic ES          0.004988204911 Eh    ::
         :: -> anisotropic XC          0.134371360667 Eh    ::
         :: -> dispersion             -0.224378286977 Eh    ::
         :: -> Gsolv                  -0.116508804778 Eh    ::
         ::    -> Gelec               -0.025934323869 Eh    ::
         ::    -> Gsasa               -0.095387836729 Eh    ::
         ::    -> Ghb                  0.000000000000 Eh    ::
         ::    -> Gshift               0.004813355820 Eh    ::
         :: repulsion energy           3.583417447580 Eh    ::
         :: add. restraining           0.000000000000 Eh    ::
         :: total charge              -0.000000000670 e     ::
         :::::::::::::::::::::::::::::::::::::::::::::::::::::

           -------------------------------------------------
          |                Property Printout                |
           -------------------------------------------------

    * Orbital Energies and Occupations

         #    Occupation            Energy/Eh            Energy/eV
      -------------------------------------------------------------
         1        2.0000           -1.0880456             -29.6072
       ...           ...                  ...                  ...
       215        2.0000           -0.4132327             -11.2446
       216        2.0000           -0.4122294             -11.2173
       217        2.0000           -0.4070058             -11.0752
       218        2.0000           -0.4022342             -10.9453
       219        2.0000           -0.4002613             -10.8917
       220        2.0000           -0.3992661             -10.8646
       221        2.0000           -0.3883407             -10.5673
       222        2.0000           -0.3876240             -10.5478
       223        2.0000           -0.3833712             -10.4321
       224        2.0000           -0.3822417             -10.4013
       225        2.0000           -0.3772096             -10.2644
       226        2.0000           -0.3740253             -10.1777
       227        2.0000           -0.3621808              -9.8554 (HOMO)
       228        0.0000           -0.3374147              -9.1815 (LUMO)
       229                         -0.3290848              -8.9549
       230                         -0.3246195              -8.8333
       231                         -0.3143792              -8.5547
       232                         -0.3038575              -8.2684
       233                         -0.2945437              -8.0149
       234                         -0.2894183              -7.8755
       235                         -0.2825114              -7.6875
       236                         -0.2612948              -7.1102
       237                         -0.2576891              -7.0121
       238                         -0.2560201              -6.9667
       ...                                ...                  ...
       475                          1.1621345              31.6233
      -------------------------------------------------------------
                  HL-Gap            0.0247661 Eh            0.6739 eV
             Fermi-level           -0.3497978 Eh           -9.5185 eV

     #   Z          covCN         q      C6AA      α(0)
     1   6 C        2.954    -0.013    28.325     8.729
     2   6 C        3.001    -0.040    28.976     8.830
     3   6 C        2.868     0.232    23.139     7.885
     4   8 O        0.856    -0.431    22.318     6.334
     5   6 C        3.044    -0.020    28.459     8.750
     6   6 C        2.918    -0.026    28.647     8.777
     7   6 C        2.967     0.030    27.326     8.574
     8   6 C        3.758    -0.117    22.792     6.806
     9   6 C        2.926    -0.031    28.785     8.799
    10   6 C        2.913    -0.028    28.705     8.785
    11   6 C        3.032     0.003    27.934     8.669
    12   6 C        3.023     0.035    27.187     8.553
    13   6 C        2.947     0.005    27.911     8.665
    14   6 C        1.946     0.130    27.907     8.531
    15   7 N        0.911    -0.272    27.022     7.518
    16   6 C        1.949     0.133    27.822     8.518
    17   7 N        0.911    -0.271    27.007     7.516
    18   6 C        2.997     0.030    27.312     8.573
    19  16 S        2.255    -0.040   142.717    20.107
    20   6 C        3.091     0.007    27.763     8.637
    21   6 C        3.098    -0.004    28.008     8.673
    22   6 C        3.286     0.041    25.593     8.129
    23   7 N        2.793    -0.032    21.854     6.943
    24   6 C        3.738     0.001    20.642     6.483
    25   6 C        3.752    -0.115    22.759     6.803
    26   6 C        3.295     0.037    25.523     8.100
    27   6 C        3.023    -0.054    29.309     8.880
    28   6 C        3.036    -0.065    29.578     8.921
    29   6 C        3.034     0.030    27.305     8.571
    30  16 S        2.232    -0.052   143.192    20.140
    31   6 C        3.013     0.004    27.927     8.669
    32   6 C        3.055    -0.048    29.133     8.852
    33   6 C        3.181     0.019    27.149     8.506
    34  16 S        2.186    -0.043   142.834    20.115
    35   6 C        3.097     0.002    27.850     8.649
    36   6 C        3.085    -0.039    28.859     8.806
    37   6 C        3.341     0.070    24.015     7.748
    38   6 C        3.341     0.069    24.016     7.748
    39   7 N        1.854    -0.297    28.545     7.919
    40  16 S        2.687     0.337   128.083    19.048
    41   7 N        1.854    -0.296    28.532     7.917
    42   6 C        3.088    -0.038    28.847     8.804
    43   6 C        3.092     0.004    27.827     8.646
    44   6 C        3.261     0.030    26.174     8.264
    45   7 N        2.799    -0.034    21.893     6.949
    46   6 C        3.748    -0.008    20.779     6.502
    47   6 C        3.752    -0.113    22.729     6.799
    48   6 C        3.066     0.029    27.293     8.567
    49   6 C        3.066     0.027    27.333     8.573
    50   7 N        2.800    -0.034    21.898     6.950
    51   6 C        3.249     0.029    26.344     8.309
    52   6 C        3.105    -0.014    28.234     8.706
    53  34 Se       2.274    -0.055   237.585    26.858
    54   6 C        3.743     0.002    20.616     6.477
    55   6 C        3.751    -0.122    22.899     6.824
    56   6 C        3.103    -0.014    28.227     8.706
    57   6 C        3.175     0.019    27.180     8.514
    58  16 S        2.185    -0.045   142.899    20.119
    59   6 C        3.051    -0.049    29.160     8.856
    60   6 C        3.021     0.001    27.974     8.676
    61  34 Se       2.345    -0.032   236.802    26.814
    62   6 C        3.037     0.031    27.279     8.567
    63  16 S        2.324    -0.038   142.608    20.099
    64   6 C        3.098    -0.002    27.950     8.664
    65   6 C        3.094     0.009    27.703     8.627
    66   6 C        3.291     0.042    25.489     8.103
    67   7 N        2.793    -0.031    21.843     6.941
    68   6 C        3.739     0.003    20.615     6.479
    69   6 C        3.752    -0.115    22.762     6.804
    70   6 C        3.292     0.045    25.415     8.089
    71   6 C        3.034    -0.068    29.654     8.932
    72   6 C        3.029    -0.047    29.124     8.852
    73   6 C        2.997     0.027    27.385     8.584
    74  16 S        2.247    -0.011   141.524    20.022
    75   6 C        2.948    -0.009    28.250     8.718
    76   6 C        3.010    -0.037    28.896     8.818
    77   6 C        2.878     0.241    22.978     7.858
    78   8 O        0.856    -0.387    21.423     6.206
    79   6 C        3.076    -0.027    28.592     8.767
    80   6 C        2.912     0.099    25.797     8.329
    81  17 Cl       0.992    -0.079   101.636    15.424
    82   6 C        2.959     0.081    26.190     8.394
    83  17 Cl       1.032    -0.084   101.771    15.434
    84   6 C        2.961     0.084    26.122     8.383
    85  17 Cl       1.049    -0.083   101.765    15.433
    86   6 C        2.914     0.089    26.029     8.366
    87  17 Cl       1.005    -0.101   102.322    15.476
    88   6 C        3.064     0.005    27.856     8.655
    89   6 C        3.021     0.047    26.923     8.511
    90   6 C        2.948     0.012    27.741     8.638
    91   6 C        1.952     0.131    27.871     8.526
    92   7 N        0.911    -0.255    26.632     7.464
    93   6 C        1.949     0.135    27.780     8.512
    94   7 N        0.911    -0.265    26.874     7.498
    95   1 H        0.925     0.071     2.072     2.251
    96   1 H        0.926     0.059     2.210     2.325
    97   1 H        0.925     0.055     2.253     2.347
    98   1 H        0.925     0.057     2.235     2.338
    99   1 H        0.924     0.064     2.157     2.297
   100   1 H        0.926     0.054     2.270     2.356
   101   1 H        0.926     0.057     2.237     2.339
   102   1 H        0.924     0.067     2.115     2.275
   103   1 H        0.924     0.062     2.175     2.307
   104   1 H        0.925     0.049     2.338     2.391
   105   1 H        0.925     0.056     2.250     2.346
   106   1 H        0.925     0.054     2.271     2.357
   107   1 H        0.926     0.099     1.794     2.095
   108   1 H        0.926     0.057     2.235     2.338
   109   1 H        0.926     0.059     2.215     2.327
   110   1 H        0.925     0.080     1.981     2.201
   111   1 H        0.923     0.075     2.029     2.228
   112   1 H        0.925     0.049     2.328     2.386
   113   1 H        0.925     0.053     2.278     2.360
   114   1 H        0.925     0.058     2.226     2.333
   115   1 H        0.924     0.064     2.156     2.296
   116   1 H        0.923     0.066     2.127     2.281
   117   1 H        0.925     0.068     2.109     2.271
   118   1 H        0.925     0.058     2.218     2.329
   119   1 H        0.925     0.063     2.165     2.301
   120   1 H        0.926     0.055     2.259     2.350
   121   1 H        0.924     0.061     2.192     2.315
   122   1 H        0.924     0.064     2.151     2.294
   123   1 H        0.925     0.052     2.294     2.368
   124   1 H        0.925     0.054     2.271     2.357
   125   1 H        0.925     0.055     2.254     2.348
   126   1 H        0.926     0.053     2.282     2.362
   127   1 H        0.926     0.055     2.264     2.353
   128   1 H        0.925     0.090     1.880     2.144

 Mol. C6AA /au·bohr⁶  :     383305.011326
 Mol. C8AA /au·bohr⁸  :   11996600.766837
 Mol. α(0) /au        :        992.825944


Wiberg/Mayer (AO) data.
largest (>0.10) Wiberg bond orders for each atom

 ---------------------------------------------------------------------------
     #   Z sym  total        # sym  WBO       # sym  WBO       # sym  WBO
 ---------------------------------------------------------------------------
     1   6 C    3.941 --     2 C    1.497    18 C    1.294    95 H    0.942
     2   6 C    3.947 --     1 C    1.497    12 C    1.138     3 C    1.053
     3   6 C    3.910 --     4 O    1.710     2 C    1.053     5 C    1.024
     4   8 O    2.010 --     3 C    1.710
     5   6 C    3.977 --     6 C    1.430    11 C    1.287     3 C    1.024
     6   6 C    3.981 --     5 C    1.430     7 C    1.385    96 H    0.965
     7   6 C    3.966 --     9 C    1.402     6 C    1.385     8 C    1.032
     8   6 C    3.992 --     7 C    1.032    97 H    0.980    98 H    0.978
                            99 H    0.960
     9   6 C    3.977 --    10 C    1.437     7 C    1.402   100 H    0.967
    10   6 C    3.977 --     9 C    1.437    11 C    1.398   101 H    0.961
    11   6 C    3.979 --    10 C    1.398     5 C    1.287    12 C    1.088
    12   6 C    3.969 --    13 C    1.477     2 C    1.138    11 C    1.088
    13   6 C    3.946 --    12 C    1.477    14 C    1.100    16 C    1.099
    14   6 C    3.942 --    15 N    2.744    13 C    1.100
    15   7 N    2.954 --    14 C    2.744
    16   6 C    3.941 --    17 N    2.753    13 C    1.099
    17   7 N    2.960 --    16 C    2.753
    18   6 C    3.917 --    27 C    1.398     1 C    1.294    19 S    1.061
    19  16 S    2.527 --    20 C    1.150    18 C    1.061
    20   6 C    3.928 --    21 C    1.331    26 C    1.223    19 S    1.150
    21   6 C    3.921 --    20 C    1.331    22 C    1.255    30 S    1.106
    22   6 C    3.924 --    28 C    1.289    21 C    1.255    23 N    1.175
    23   7 N    3.577 --    22 C    1.175    26 C    1.152    24 C    0.983
    24   6 C    3.963 --    25 C    1.005    23 N    0.983   103 H    0.970
                           102 H    0.969
    25   6 C    3.989 --    24 C    1.005   104 H    0.987   106 H    0.986
                           105 H    0.983
    26   6 C    3.936 --    27 C    1.350    20 C    1.223    23 N    1.152
    27   6 C    3.949 --    18 C    1.398    26 C    1.350   107 H    0.937
    28   6 C    3.954 --    29 C    1.468    22 C    1.289   108 H    0.945
    29   6 C    3.899 --    28 C    1.468    31 C    1.193    30 S    1.096
    30  16 S    2.512 --    21 C    1.106    29 C    1.096
    31   6 C    3.933 --    32 C    1.494    29 C    1.193    53 Se   1.076
    32   6 C    3.956 --    31 C    1.494    33 C    1.297   109 H    0.955
    33   6 C    3.928 --    52 C    1.345    32 C    1.297    34 S    1.097
    34  16 S    2.515 --    35 C    1.112    33 C    1.097
    35   6 C    3.921 --    51 C    1.313    36 C    1.263    34 S    1.112
    36   6 C    3.953 --    49 C    1.274    35 C    1.263    37 C    1.176
    37   6 C    3.972 --    41 N    1.421    36 C    1.176    38 C    1.165
                            40 S    0.103
    38   6 C    3.972 --    39 N    1.422    42 C    1.176    37 C    1.165
                            40 S    0.103
    39   7 N    3.061 --    38 C    1.422    40 S    1.387    41 N    0.146
    40  16 S    3.104 --    41 N    1.388    39 N    1.387    37 C    0.103
                            38 C    0.103
    41   7 N    3.062 --    37 C    1.421    40 S    1.388    39 N    0.146
    42   6 C    3.955 --    48 C    1.273    43 C    1.264    38 C    1.176
    43   6 C    3.920 --    44 C    1.313    42 C    1.264    58 S    1.109
    44   6 C    3.939 --    43 C    1.313    56 C    1.243    45 N    1.155
    45   7 N    3.549 --    48 C    1.164    44 C    1.155    46 C    0.981
    46   6 C    3.959 --    47 C    1.005    45 N    0.981   110 H    0.953
                           111 H    0.946
    47   6 C    3.988 --    46 C    1.005   112 H    0.984   114 H    0.982
                           113 H    0.981
    48   6 C    3.931 --    42 C    1.273    49 C    1.224    45 N    1.164
    49   6 C    3.931 --    36 C    1.274    48 C    1.224    50 N    1.164
    50   7 N    3.550 --    49 C    1.164    51 C    1.155    54 C    0.982
    51   6 C    3.939 --    35 C    1.313    52 C    1.245    50 N    1.155
    52   6 C    3.930 --    33 C    1.345    51 C    1.245    53 Se   1.116
    53  34 Se   2.636 --    52 C    1.116    31 C    1.076
    54   6 C    3.963 --    55 C    1.007    50 N    0.982   115 H    0.961
                           116 H    0.956
    55   6 C    3.983 --    54 C    1.007   118 H    0.983   119 H    0.979
                           117 H    0.960
    56   6 C    3.931 --    57 C    1.335    44 C    1.243    61 Se   1.131
    57   6 C    3.928 --    56 C    1.335    59 C    1.307    58 S    1.093
    58  16 S    2.507 --    43 C    1.109    57 C    1.093
    59   6 C    3.955 --    60 C    1.473    57 C    1.307   120 H    0.958
    60   6 C    3.934 --    59 C    1.473    62 C    1.194    61 Se   1.096
    61  34 Se   2.663 --    56 C    1.131    60 C    1.096
    62   6 C    3.895 --    71 C    1.456    60 C    1.194    63 S    1.110
    63  16 S    2.524 --    62 C    1.110    64 C    1.099
    64   6 C    3.921 --    65 C    1.339    70 C    1.249    63 S    1.099
    65   6 C    3.924 --    64 C    1.339    66 C    1.215    74 S    1.149
    66   6 C    3.941 --    72 C    1.362    65 C    1.215    67 N    1.154
    67   7 N    3.572 --    70 C    1.170    66 C    1.154    68 C    0.981
    68   6 C    3.964 --    69 C    1.005    67 N    0.981   122 H    0.970
                           121 H    0.970
    69   6 C    3.987 --    68 C    1.005   123 H    0.986   124 H    0.984
                           125 H    0.983
    70   6 C    3.923 --    71 C    1.296    64 C    1.249    67 N    1.170
    71   6 C    3.953 --    62 C    1.456    70 C    1.296   126 H    0.959
    72   6 C    3.966 --    73 C    1.379    66 C    1.362   127 H    0.957
    73   6 C    3.921 --    72 C    1.379    75 C    1.303    74 S    1.071
    74  16 S    2.536 --    65 C    1.149    73 C    1.071
    75   6 C    3.932 --    76 C    1.484    73 C    1.303   128 H    0.948
    76   6 C    3.945 --    75 C    1.484    89 C    1.150    77 C    1.034
    77   6 C    3.918 --    78 O    1.747    76 C    1.034    79 C    1.010
    78   8 O    2.033 --    77 C    1.747
    79   6 C    3.970 --    80 C    1.381    88 C    1.277    77 C    1.010
    80   6 C    3.930 --    79 C    1.381    82 C    1.311    81 Cl   1.038
    81  17 Cl   1.206 --    80 C    1.038
    82   6 C    3.924 --    84 C    1.370    80 C    1.311    83 Cl   1.028
    83  17 Cl   1.188 --    82 C    1.028
    84   6 C    3.928 --    82 C    1.370    86 C    1.317    85 Cl   1.030
    85  17 Cl   1.188 --    84 C    1.030
    86   6 C    3.919 --    88 C    1.376    84 C    1.317    87 Cl   1.015
    87  17 Cl   1.183 --    86 C    1.015
    88   6 C    3.980 --    86 C    1.376    79 C    1.277    89 C    1.070
    89   6 C    3.963 --    90 C    1.468    76 C    1.150    88 C    1.070
    90   6 C    3.952 --    89 C    1.468    93 C    1.103    91 C    1.096
    91   6 C    3.944 --    92 N    2.761    90 C    1.096
    92   7 N    2.962 --    91 C    2.761
    93   6 C    3.944 --    94 N    2.750    90 C    1.103
    94   7 N    2.969 --    93 C    2.750
    95   1 H    0.994 --     1 C    0.942
    96   1 H    0.996 --     6 C    0.965
    97   1 H    0.996 --     8 C    0.980
    98   1 H    0.996 --     8 C    0.978
    99   1 H    0.992 --     8 C    0.960
   100   1 H    0.997 --     9 C    0.967
   101   1 H    0.996 --    10 C    0.961
   102   1 H    0.994 --    24 C    0.969
   103   1 H    0.995 --    24 C    0.970
   104   1 H    0.998 --    25 C    0.987
   105   1 H    0.996 --    25 C    0.983
   106   1 H    0.997 --    25 C    0.986
   107   1 H    0.989 --    27 C    0.937
   108   1 H    0.996 --    28 C    0.945
   109   1 H    0.996 --    32 C    0.955
   110   1 H    0.992 --    46 C    0.953
   111   1 H    0.993 --    46 C    0.946
   112   1 H    0.997 --    47 C    0.984
   113   1 H    0.997 --    47 C    0.981
   114   1 H    0.996 --    47 C    0.982
   115   1 H    0.995 --    54 C    0.961
   116   1 H    0.993 --    54 C    0.956
   117   1 H    0.995 --    55 C    0.960
   118   1 H    0.996 --    55 C    0.983
   119   1 H    0.996 --    55 C    0.979
   120   1 H    0.996 --    59 C    0.958
   121   1 H    0.995 --    68 C    0.970
   122   1 H    0.995 --    68 C    0.970
   123   1 H    0.997 --    69 C    0.986
   124   1 H    0.997 --    69 C    0.984
   125   1 H    0.996 --    69 C    0.983
   126   1 H    0.997 --    71 C    0.959
   127   1 H    0.996 --    72 C    0.957
   128   1 H    0.989 --    75 C    0.948
 ---------------------------------------------------------------------------

Topologies differ in bond orders
Writing corrected topology to xtbtopo.mol

molecular dipole:
                 x           y           z       tot (Debye)
 q only:       -3.025       0.703       0.172
   full:       -3.603      -0.098       1.090       9.571
molecular quadrupole (traceless):
                xx          xy          yy          xz          yz          zz
 q only:      122.212     -72.569      21.603     104.343     281.892    -143.815
  q+dip:       91.273     -57.757      66.909     101.118     251.396    -158.182
   full:       97.890     -58.827      59.228     110.034     254.131    -157.118


           -------------------------------------------------
          | TOTAL ENERGY             -249.829160464464 Eh   |
          | GRADIENT NORM               0.022780179519 Eh/α |
          | HOMO-LUMO GAP               0.673921061048 eV   |
           -------------------------------------------------

------------------------------------------------------------------------
 * finished run on 2022/02/11 at 12:13:23.379     
------------------------------------------------------------------------
 total:
 * wall-time:     0 d,  0 h,  0 min,  0.517 sec
 *  cpu-time:     0 d,  0 h,  0 min,  4.055 sec
 * ratio c/w:     7.836 speedup
 SCF:
 * wall-time:     0 d,  0 h,  0 min,  0.452 sec
 *  cpu-time:     0 d,  0 h,  0 min,  3.604 sec
 * ratio c/w:     7.969 speedup

