      -----------------------------------------------------------      
     |                   =====================                   |     
     |                           x T B                           |     
     |                   =====================                   |     
     |                         S. Grimme                         |     
     |          Mulliken Center for Theoretical Chemistry        |     
     |                    University of Bonn                     |     
      -----------------------------------------------------------      

   * xtb version 6.4.1 (unknown) compiled by 'oda6@login1.crc.pitt.edu' on 2021-06-25

   xtb is free software: you can redistribute it and/or modify it under
   the terms of the GNU Lesser General Public License as published by
   the Free Software Foundation, either version 3 of the License, or
   (at your option) any later version.
   
   xtb is distributed in the hope that it will be useful,
   but WITHOUT ANY WARRANTY; without even the implied warranty of
   MERCHANTABILITY or FITNESS FOR A PARTICULAR PURPOSE.  See the
   GNU Lesser General Public License for more details.
   
   Cite this work as:
   * C. Bannwarth, E. Caldeweyher, S. Ehlert, A. Hansen, P. Pracht,
     J. Seibert, S. Spicher, S. Grimme, WIREs Comput. Mol. Sci., 2020, 11,
     e01493. DOI: 10.1002/wcms.1493
   
   for GFN2-xTB:
   * C. Bannwarth, S. Ehlert and S. Grimme., J. Chem. Theory Comput., 2019,
     15, 1652-1671. DOI: 10.1021/acs.jctc.8b01176
   for GFN1-xTB:
   * S. Grimme, C. Bannwarth, P. Shushkov, J. Chem. Theory Comput., 2017,
     13, 1989-2009. DOI: 10.1021/acs.jctc.7b00118
   for GFN0-xTB:
   * P. Pracht, E. Caldeweyher, S. Ehlert, S. Grimme, ChemRxiv, 2019, preprint.
     DOI: 10.26434/chemrxiv.8326202.v1
   for GFN-FF:
   * S. Spicher and S. Grimme, Angew. Chem. Int. Ed., 2020, 59, 15665-15673.
     DOI: 10.1002/anie.202004239
   
   for DFT-D4:
   * E. Caldeweyher, C. Bannwarth and S. Grimme, J. Chem. Phys., 2017,
     147, 034112. DOI: 10.1063/1.4993215
   * E. Caldeweyher, S. Ehlert, A. Hansen, H. Neugebauer, S. Spicher,
     C. Bannwarth and S. Grimme, J. Chem. Phys., 2019, 150, 154122.
     DOI: 10.1063/1.5090222
   * E. Caldeweyher, J.-M. Mewes, S. Ehlert and S. Grimme, Phys. Chem. Chem. Phys.
     2020, 22, 8499-8512. DOI: 10.1039/D0CP00502A
   
   for sTDA-xTB:
   * S. Grimme and C. Bannwarth, J. Chem. Phys., 2016, 145, 054103.
     DOI: 10.1063/1.4959605
   
   in the mass-spec context:
   * V. Asgeirsson, C. Bauer and S. Grimme, Chem. Sci., 2017, 8, 4879.
     DOI: 10.1039/c7sc00601b
   * J. Koopman and S. Grimme, ACS Omega 2019, 4, 12, 15120-15133.
     DOI: 10.1021/acsomega.9b02011
   
   for metadynamics refer to:
   * S. Grimme, J. Chem. Theory Comput., 2019, 155, 2847-2862
     DOI: 10.1021/acs.jctc.9b00143
   
   for SPH calculations refer to:
   * S. Spicher and S. Grimme, J. Chem. Theory Comput., 2021, 17, 1701-1714
     DOI: 10.1021/acs.jctc.0c01306
   
   with help from (in alphabetical order)
   P. Atkinson, C. Bannwarth, F. Bohle, G. Brandenburg, E. Caldeweyher
   M. Checinski, S. Dohm, S. Ehlert, S. Ehrlich, I. Gerasimov, J. Koopman
   C. Lavigne, S. Lehtola, F. März, M. Müller, F. Musil, H. Neugebauer
   J. Pisarek, C. Plett, P. Pracht, J. Seibert, P. Shushkov, S. Spicher
   M. Stahn, M. Steiner, T. Strunk, J. Stückrath, T. Rose, and J. Unsleber
   
 * started run on 2022/02/11 at 08:32:06.257     

           -------------------------------------------------
          |                Calculation Setup                |
           -------------------------------------------------

          program call               : /ihome/ghutchison/oda6/xtb/xtb-641/bin/xtb ../../GFN2_output/15_71_86_71_15.mol --sp --alpb hexane
          hostname                   : smp-n25
          coordinate file            : ../../GFN2_output/15_71_86_71_15.mol
          omp threads                :                     8
          number of atoms            :                   223
          number of electrons        :                   684
          charge                     :                     0
          spin                       :                   0.0
          first test random number   :      0.63194415937888

   ID    Z sym.   atoms
    1    6 C      1-3, 5-14, 16, 18-26, 28-38, 40-43, 45, 46, 48-58, 60-63,
                  67, 68, 70-80, 82, 83, 85, 86, 88, 89, 91-103, 105-115,
                  117-120, 122, 123, 125-127, 129-138, 140
    2    8 O      4, 128
    3    7 N      15, 17, 64, 66, 84, 87, 139, 141
    4   16 S      27, 39, 44, 47, 59, 65, 69, 81, 90, 104, 116, 121, 124
    5    1 H      142-223

           -------------------------------------------------
          |                 G F N 2 - x T B                 |
           -------------------------------------------------

        Reference                      10.1021/acs.jctc.8b01176
      * Hamiltonian:
        H0-scaling (s, p, d)           1.850000    2.230000    2.230000
        zeta-weighting                 0.500000
      * Dispersion:
        s8                             2.700000
        a1                             0.520000
        a2                             5.000000
        s9                             5.000000
      * Repulsion:
        kExp                           1.500000    1.000000
        rExp                           1.000000
      * Coulomb:
        alpha                          2.000000
        third order                    shell-resolved
        anisotropic                    true
        a3                             3.000000
        a5                             4.000000
        cn-shift                       1.200000
        cn-exp                         4.000000
        max-rad                        5.000000

      * Solvation model:               ALPB
        Solvent                        hexane
        Parameter file                 internal GFN2-xTB/ALPB
        Dielectric constant                1.8800E+00
        Reference state                gsolv [1 M gas/solution]
        Free energy shift                  4.8134E-03 Eh       3.0204E+00 kcal/mol
        Temperature                        2.9815E+02 K
        Density                            6.6000E-01 kg/L
        Solvent mass                       8.6180E+01 g/mol
        Interaction kernel             P16
        Born radius scaling (c1)           1.1040E+00
        Born radii integrator          GBOBC
        Born offset                        0.0000E+00 a0       0.0000E+00 AA
        H-bond correction              false
        Ion screening                  false
        Surface tension                    1.0000E-05 Eh       1.5569E+01 dyn/cm
        Grid points                               230 per atom

          ...................................................
          :                      SETUP                      :
          :.................................................:
          :  # basis functions                 724          :
          :  # atomic orbitals                 711          :
          :  # shells                          377          :
          :  # electrons                       684          :
          :  max. iterations                   250          :
          :  Hamiltonian                  GFN2-xTB          :
          :  restarted?                      false          :
          :  GBSA solvation                   true          :
          :  PC potential                    false          :
          :  electronic temp.          300.0000000     K    :
          :  accuracy                    1.0000000          :
          :  -> integral cutoff          0.2500000E+02      :
          :  -> integral neglect         0.1000000E-07      :
          :  -> SCF convergence          0.1000000E-05 Eh   :
          :  -> wf. convergence          0.1000000E-03 e    :
          :  Broyden damping             0.4000000          :
          ...................................................

 iter      E             dE          RMSdq      gap      omega  full diag
   1   -374.0776987 -0.374078E+03  0.450E+00    1.09       0.0  T
   2   -374.3503042 -0.272606E+00  0.261E+00    0.87       1.0  T
   3   -374.2178169  0.132487E+00  0.123E+00    0.71       1.0  T
   4   -374.4063442 -0.188527E+00  0.471E-01    0.72       1.0  T
   5   -374.4303918 -0.240476E-01  0.179E-01    0.68       1.0  T
   6   -374.4320106 -0.161877E-02  0.833E-02    0.73       1.0  T
   7   -374.4327016 -0.691018E-03  0.334E-02    0.74       1.0  T
   8   -374.4327736 -0.719918E-04  0.177E-02    0.74       1.0  T
   9   -374.4327917 -0.181384E-04  0.917E-03    0.74       1.0  T
  10   -374.4327965 -0.470362E-05  0.390E-03    0.74       1.7  T
  11   -374.4327975 -0.102468E-05  0.184E-03    0.74       3.6  T
  12   -374.4327976 -0.121954E-06  0.985E-04    0.74       6.8  T
  13   -374.4327977 -0.605793E-07  0.434E-04    0.74      15.4  T

   *** convergence criteria satisfied after 13 iterations ***

         #    Occupation            Energy/Eh            Energy/eV
      -------------------------------------------------------------
         1        2.0000           -0.7549623             -20.5436
       ...           ...                  ...                  ...
       336        2.0000           -0.3729070             -10.1473
       337        2.0000           -0.3686181             -10.0306
       338        2.0000           -0.3658335              -9.9548
       339        2.0000           -0.3650355              -9.9331
       340        2.0000           -0.3618892              -9.8475
       341        2.0000           -0.3614542              -9.8357
       342        2.0000           -0.3573674              -9.7245 (HOMO)
       343        0.0000           -0.3302250              -8.9859 (LUMO)
       344        0.0000           -0.3294757              -8.9655
       345                         -0.3192515              -8.6873
       346                         -0.3186427              -8.6707
       347                         -0.3019814              -8.2173
       ...                                ...                  ...
       711                          1.1584170              31.5221
      -------------------------------------------------------------
                  HL-Gap            0.0271424 Eh            0.7386 eV
             Fermi-level           -0.3439635 Eh           -9.3597 eV

 SCC (total)                   0 d,  0 h,  0 min,  0.829 sec
 SCC setup                      ...        0 min,  0.010 sec (  1.149%)
 Dispersion                     ...        0 min,  0.011 sec (  1.385%)
 classical contributions        ...        0 min,  0.000 sec (  0.048%)
 integral evaluation            ...        0 min,  0.046 sec (  5.528%)
 iterations                     ...        0 min,  0.633 sec ( 76.337%)
 molecular gradient             ...        0 min,  0.125 sec ( 15.054%)
 printout                       ...        0 min,  0.004 sec (  0.488%)

         :::::::::::::::::::::::::::::::::::::::::::::::::::::
         ::                     SUMMARY                     ::
         :::::::::::::::::::::::::::::::::::::::::::::::::::::
         :: total energy            -368.409720674799 Eh    ::
         :: total w/o Gsasa/hb      -368.273241021039 Eh    ::
         :: gradient norm              0.019505530704 Eh/a0 ::
         :: HOMO-LUMO gap              0.738581744053 eV    ::
         ::.................................................::
         :: SCC energy              -374.432797658623 Eh    ::
         :: -> isotropic ES            0.157624862848 Eh    ::
         :: -> anisotropic ES          0.017902421985 Eh    ::
         :: -> anisotropic XC          0.229315041802 Eh    ::
         :: -> dispersion             -0.372711798343 Eh    ::
         :: -> Gsolv                  -0.163782309506 Eh    ::
         ::    -> Gelec               -0.027302655746 Eh    ::
         ::    -> Gsasa               -0.141293009580 Eh    ::
         ::    -> Ghb                  0.000000000000 Eh    ::
         ::    -> Gshift               0.004813355820 Eh    ::
         :: repulsion energy           6.023022745534 Eh    ::
         :: add. restraining           0.000000000000 Eh    ::
         :: total charge               0.000000000001 e     ::
         :::::::::::::::::::::::::::::::::::::::::::::::::::::

           -------------------------------------------------
          |                Property Printout                |
           -------------------------------------------------

    * Orbital Energies and Occupations

         #    Occupation            Energy/Eh            Energy/eV
      -------------------------------------------------------------
         1        2.0000           -0.7549623             -20.5436
       ...           ...                  ...                  ...
       330        2.0000           -0.4009504             -10.9104
       331        2.0000           -0.3986490             -10.8478
       332        2.0000           -0.3950624             -10.7502
       333        2.0000           -0.3836406             -10.4394
       334        2.0000           -0.3829797             -10.4214
       335        2.0000           -0.3748359             -10.1998
       336        2.0000           -0.3729070             -10.1473
       337        2.0000           -0.3686181             -10.0306
       338        2.0000           -0.3658335              -9.9548
       339        2.0000           -0.3650355              -9.9331
       340        2.0000           -0.3618892              -9.8475
       341        2.0000           -0.3614542              -9.8357
       342        2.0000           -0.3573674              -9.7245 (HOMO)
       343        0.0000           -0.3302250              -8.9859 (LUMO)
       344        0.0000           -0.3294757              -8.9655
       345                         -0.3192515              -8.6873
       346                         -0.3186427              -8.6707
       347                         -0.3019814              -8.2173
       348                         -0.2911761              -7.9233
       349                         -0.2902715              -7.8987
       350                         -0.2694484              -7.3321
       351                         -0.2668307              -7.2608
       352                         -0.2577741              -7.0144
       353                         -0.2563441              -6.9755
       ...                                ...                  ...
       711                          1.1584170              31.5221
      -------------------------------------------------------------
                  HL-Gap            0.0271424 Eh            0.7386 eV
             Fermi-level           -0.3439635 Eh           -9.3597 eV

     #   Z          covCN         q      C6AA      α(0)
     1   6 C        2.918    -0.010    28.268     8.719
     2   6 C        3.005    -0.033    28.805     8.804
     3   6 C        2.871     0.234    23.114     7.881
     4   8 O        0.919    -0.396    21.563     6.227
     5   6 C        3.042    -0.019    28.430     8.745
     6   6 C        2.917    -0.024    28.614     8.772
     7   6 C        2.967     0.032    27.271     8.566
     8   6 C        3.758    -0.118    22.809     6.809
     9   6 C        2.926    -0.030    28.750     8.793
    10   6 C        2.912    -0.027    28.675     8.781
    11   6 C        3.035     0.004    27.899     8.664
    12   6 C        3.018     0.037    27.161     8.549
    13   6 C        2.947     0.009    27.822     8.651
    14   6 C        1.944     0.132    27.865     8.525
    15   7 N        0.911    -0.268    26.932     7.506
    16   6 C        1.946     0.134    27.805     8.516
    17   7 N        0.911    -0.265    26.864     7.496
    18   6 C        2.976     0.035    27.208     8.556
    19   6 C        3.072    -0.040    28.904     8.815
    20   6 C        3.123    -0.001    27.873     8.646
    21   6 C        2.995     0.001    28.005     8.681
    22   6 C        2.977     0.015    27.664     8.628
    23   6 C        2.923    -0.039    28.966     8.826
    24   6 C        2.920    -0.030    28.744     8.792
    25   6 C        2.942    -0.043    29.071     8.843
    26   6 C        2.965     0.056    26.742     8.482
    27  16 S        2.066    -0.200   149.578    20.584
    28   6 C        3.793     0.003    20.545     6.455
    29   6 C        3.779    -0.104    22.510     6.759
    30   6 C        2.996    -0.043    29.048     8.841
    31   6 C        3.009     0.027    27.375     8.583
    32   6 C        3.123     0.003    27.784     8.632
    33   6 C        2.992    -0.005    28.126     8.700
    34   6 C        2.977     0.014    27.695     8.632
    35   6 C        2.924    -0.038    28.936     8.821
    36   6 C        2.919    -0.031    28.773     8.796
    37   6 C        2.962    -0.036    28.904     8.818
    38   6 C        2.966     0.059    26.669     8.471
    39  16 S        2.054    -0.236   151.184    20.695
    40   6 C        3.793     0.006    20.483     6.445
    41   6 C        3.782    -0.098    22.386     6.740
    42   6 C        2.962    -0.037    28.914     8.820
    43   6 C        3.008     0.017    27.612     8.620
    44  16 S        2.303    -0.018   141.818    20.043
    45   6 C        3.066    -0.057    29.336     8.882
    46   6 C        3.023     0.035    27.189     8.553
    47  16 S        2.265    -0.081   144.409    20.226
    48   6 C        3.027     0.012    27.713     8.635
    49   6 C        3.109    -0.006    28.031     8.674
    50   6 C        2.976     0.012    27.742     8.640
    51   6 C        2.925    -0.035    28.871     8.812
    52   6 C        2.918    -0.030    28.759     8.794
    53   6 C        2.926    -0.038    28.940     8.822
    54   6 C        2.970     0.017    27.635     8.623
    55   6 C        3.807    -0.057    21.602     6.616
    56   6 C        3.754    -0.100    22.472     6.760
    57   6 C        2.933    -0.039    28.960     8.826
    58   6 C        3.197     0.011    27.242     8.508
    59  16 S        2.180    -0.046   142.940    20.122
    60   6 C        3.099     0.002    27.868     8.651
    61   6 C        3.088    -0.039    28.866     8.807
    62   6 C        3.341     0.070    24.001     7.744
    63   6 C        3.341     0.070    24.000     7.744
    64   7 N        1.854    -0.297    28.557     7.920
    65  16 S        2.687     0.332   128.255    19.061
    66   7 N        1.854    -0.297    28.542     7.918
    67   6 C        3.090    -0.040    28.879     8.808
    68   6 C        3.097     0.002    27.871     8.652
    69  16 S        2.181    -0.047   142.991    20.126
    70   6 C        3.200     0.010    27.234     8.505
    71   6 C        3.109    -0.006    28.016     8.672
    72   6 C        2.975     0.012    27.752     8.641
    73   6 C        2.925    -0.036    28.896     8.815
    74   6 C        2.918    -0.031    28.762     8.794
    75   6 C        2.925    -0.038    28.957     8.825
    76   6 C        2.970     0.018    27.614     8.620
    77   6 C        3.807    -0.059    21.628     6.620
    78   6 C        3.753    -0.100    22.464     6.758
    79   6 C        2.937    -0.039    28.966     8.827
    80   6 C        3.021     0.012    27.732     8.638
    81  16 S        2.288    -0.085   144.584    20.238
    82   6 C        3.123     0.003    27.764     8.629
    83   6 C        3.254     0.024    26.384     8.308
    84   7 N        2.800    -0.032    21.860     6.944
    85   6 C        3.068     0.030    27.269     8.563
    86   6 C        3.068     0.030    27.275     8.564
    87   7 N        2.799    -0.034    21.897     6.950
    88   6 C        3.252     0.025    26.401     8.315
    89   6 C        3.120     0.003    27.777     8.632
    90  16 S        2.271    -0.075   144.156    20.208
    91   6 C        3.744    -0.006    20.752     6.499
    92   6 C        3.752    -0.113    22.728     6.799
    93   6 C        3.744    -0.006    20.762     6.500
    94   6 C        3.752    -0.113    22.729     6.799
    95   6 C        3.031     0.034    27.216     8.557
    96   6 C        3.076    -0.057    29.339     8.881
    97   6 C        3.125     0.002    27.800     8.634
    98   6 C        2.992    -0.006    28.163     8.705
    99   6 C        2.977     0.013    27.718     8.636
   100   6 C        2.923    -0.037    28.931     8.821
   101   6 C        2.919    -0.027    28.688     8.783
   102   6 C        2.974    -0.038    28.940     8.824
   103   6 C        2.965     0.054    26.788     8.489
   104  16 S        2.048    -0.213   150.155    20.624
   105   6 C        3.793     0.001    20.580     6.460
   106   6 C        3.772    -0.104    22.519     6.762
   107   6 C        2.954    -0.045    29.121     8.851
   108   6 C        3.002     0.030    27.312     8.573
   109   6 C        3.139    -0.001    27.817     8.632
   110   6 C        2.995     0.002    27.968     8.675
   111   6 C        2.977     0.016    27.655     8.626
   112   6 C        2.923    -0.036    28.893     8.815
   113   6 C        2.920    -0.030    28.750     8.793
   114   6 C        2.949    -0.037    28.909     8.819
   115   6 C        2.966     0.060    26.649     8.467
   116  16 S        2.057    -0.220   150.433    20.643
   117   6 C        3.793     0.006    20.494     6.447
   118   6 C        3.779    -0.103    22.495     6.757
   119   6 C        2.980    -0.035    28.867     8.813
   120   6 C        3.010     0.025    27.433     8.592
   121  16 S        2.269    -0.074   144.146    20.207
   122   6 C        3.055    -0.038    28.889     8.815
   123   6 C        2.978     0.038    27.138     8.545
   124  16 S        2.294    -0.063   143.689    20.175
   125   6 C        2.953    -0.008    28.226     8.714
   126   6 C        3.001    -0.033    28.796     8.803
   127   6 C        2.867     0.236    23.074     7.874
   128   8 O        0.856    -0.415    21.989     6.287
   129   6 C        3.044    -0.018    28.420     8.744
   130   6 C        2.918    -0.024    28.609     8.771
   131   6 C        2.967     0.032    27.276     8.567
   132   6 C        3.758    -0.118    22.801     6.808
   133   6 C        2.926    -0.030    28.748     8.793
   134   6 C        2.912    -0.027    28.673     8.781
   135   6 C        3.032     0.004    27.896     8.663
   136   6 C        3.023     0.037    27.140     8.545
   137   6 C        2.947     0.009    27.814     8.650
   138   6 C        1.941     0.130    27.894     8.529
   139   7 N        0.911    -0.264    26.849     7.494
   140   6 C        1.943     0.134    27.810     8.516
   141   7 N        0.911    -0.264    26.847     7.494
   142   1 H        0.925     0.074     2.043     2.235
   143   1 H        0.926     0.060     2.199     2.319
   144   1 H        0.925     0.057     2.233     2.337
   145   1 H        0.924     0.066     2.134     2.284
   146   1 H        0.925     0.059     2.209     2.324
   147   1 H        0.926     0.057     2.234     2.337
   148   1 H        0.926     0.059     2.214     2.327
   149   1 H        0.926     0.062     2.176     2.307
   150   1 H        0.926     0.042     2.425     2.435
   151   1 H        0.926     0.041     2.433     2.439
   152   1 H        0.926     0.044     2.393     2.419
   153   1 H        0.925     0.051     2.302     2.373
   154   1 H        0.925     0.059     2.215     2.327
   155   1 H        0.925     0.051     2.313     2.378
   156   1 H        0.925     0.047     2.358     2.401
   157   1 H        0.925     0.047     2.353     2.399
   158   1 H        0.926     0.047     2.364     2.404
   159   1 H        0.926     0.041     2.440     2.443
   160   1 H        0.926     0.042     2.420     2.433
   161   1 H        0.926     0.051     2.312     2.378
   162   1 H        0.925     0.061     2.186     2.312
   163   1 H        0.925     0.051     2.311     2.377
   164   1 H        0.925     0.039     2.459     2.452
   165   1 H        0.925     0.050     2.320     2.382
   166   1 H        0.925     0.044     2.392     2.418
   167   1 H        0.926     0.051     2.307     2.375
   168   1 H        0.926     0.055     2.258     2.350
   169   1 H        0.926     0.037     2.482     2.464
   170   1 H        0.926     0.038     2.470     2.458
   171   1 H        0.926     0.038     2.478     2.462
   172   1 H        0.924     0.038     2.476     2.461
   173   1 H        0.924     0.040     2.450     2.448
   174   1 H        0.925     0.038     2.472     2.459
   175   1 H        0.925     0.040     2.455     2.450
   176   1 H        0.925     0.037     2.491     2.468
   177   1 H        0.925     0.035     2.522     2.484
   178   1 H        0.926     0.035     2.518     2.482
   179   1 H        0.926     0.038     2.469     2.457
   180   1 H        0.926     0.038     2.477     2.461
   181   1 H        0.924     0.040     2.447     2.446
   182   1 H        0.924     0.040     2.451     2.448
   183   1 H        0.925     0.038     2.480     2.463
   184   1 H        0.925     0.040     2.448     2.447
   185   1 H        0.925     0.038     2.476     2.461
   186   1 H        0.926     0.039     2.461     2.453
   187   1 H        0.924     0.075     2.037     2.232
   188   1 H        0.925     0.069     2.096     2.264
   189   1 H        0.925     0.050     2.322     2.383
   190   1 H        0.925     0.049     2.328     2.386
   191   1 H        0.925     0.055     2.255     2.348
   192   1 H        0.925     0.070     2.087     2.259
   193   1 H        0.924     0.074     2.046     2.237
   194   1 H        0.925     0.048     2.341     2.393
   195   1 H        0.925     0.051     2.311     2.377
   196   1 H        0.925     0.056     2.249     2.345
   197   1 H        0.926     0.051     2.304     2.374
   198   1 H        0.926     0.046     2.376     2.411
   199   1 H        0.926     0.047     2.360     2.403
   200   1 H        0.926     0.049     2.331     2.388
   201   1 H        0.925     0.054     2.275     2.359
   202   1 H        0.925     0.052     2.292     2.368
   203   1 H        0.925     0.047     2.360     2.402
   204   1 H        0.925     0.051     2.311     2.377
   205   1 H        0.925     0.046     2.376     2.410
   206   1 H        0.926     0.047     2.363     2.404
   207   1 H        0.926     0.042     2.424     2.435
   208   1 H        0.926     0.042     2.419     2.432
   209   1 H        0.926     0.044     2.396     2.420
   210   1 H        0.925     0.045     2.388     2.417
   211   1 H        0.925     0.054     2.271     2.357
   212   1 H        0.925     0.065     2.144     2.290
   213   1 H        0.925     0.038     2.470     2.458
   214   1 H        0.925     0.041     2.437     2.441
   215   1 H        0.926     0.053     2.277     2.360
   216   1 H        0.926     0.096     1.818     2.109
   217   1 H        0.925     0.073     2.055     2.241
   218   1 H        0.926     0.063     2.169     2.303
   219   1 H        0.925     0.059     2.214     2.327
   220   1 H        0.925     0.057     2.239     2.340
   221   1 H        0.924     0.065     2.140     2.288
   222   1 H        0.926     0.056     2.243     2.342
   223   1 H        0.926     0.058     2.220     2.330

 Mol. C6AA /au·bohr⁶  :     887910.524036
 Mol. C8AA /au·bohr⁸  :   25476054.391143
 Mol. α(0) /au        :       1515.010488


Wiberg/Mayer (AO) data.
largest (>0.10) Wiberg bond orders for each atom

 ---------------------------------------------------------------------------
     #   Z sym  total        # sym  WBO       # sym  WBO       # sym  WBO
 ---------------------------------------------------------------------------
     1   6 C    3.944 --     2 C    1.530    18 C    1.263   142 H    0.938
     2   6 C    3.949 --     1 C    1.530    12 C    1.129     3 C    1.053
     3   6 C    3.913 --     4 O    1.705     2 C    1.053     5 C    1.028
     4   8 O    2.083 --     3 C    1.705    44 S    0.101
     5   6 C    3.974 --     6 C    1.426    11 C    1.285     3 C    1.028
     6   6 C    3.982 --     5 C    1.426     7 C    1.387   143 H    0.964
     7   6 C    3.965 --     9 C    1.396     6 C    1.387     8 C    1.034
     8   6 C    3.991 --     7 C    1.034   144 H    0.981   146 H    0.975
                           145 H    0.959
     9   6 C    3.976 --    10 C    1.442     7 C    1.396   147 H    0.967
    10   6 C    3.977 --     9 C    1.442    11 C    1.394   148 H    0.961
    11   6 C    3.979 --    10 C    1.394     5 C    1.285    12 C    1.091
    12   6 C    3.971 --    13 C    1.484     2 C    1.129    11 C    1.091
    13   6 C    3.960 --    12 C    1.484    14 C    1.099    16 C    1.097
    14   6 C    3.942 --    15 N    2.747    13 C    1.099
    15   7 N    2.960 --    14 C    2.747
    16   6 C    3.942 --    17 N    2.757    13 C    1.097
    17   7 N    2.963 --    16 C    2.757
    18   6 C    3.941 --    19 C    1.433     1 C    1.263    44 S    1.093
    19   6 C    3.960 --    18 C    1.433    20 C    1.298   149 H    0.958
                            44 S    0.104
    20   6 C    3.968 --    19 C    1.298    21 C    1.248    43 C    1.222
    21   6 C    3.955 --    31 C    1.418    20 C    1.248    22 C    1.043
    22   6 C    3.986 --    30 C    1.403    23 C    1.370    21 C    1.043
    23   6 C    3.982 --    24 C    1.447    22 C    1.370   150 H    0.966
    24   6 C    3.990 --    23 C    1.447    25 C    1.434   151 H    0.968
                            30 C    0.103
    25   6 C    3.981 --    24 C    1.434    26 C    1.389   152 H    0.963
    26   6 C    3.964 --    25 C    1.389    30 C    1.387    27 S    1.045
    27  16 S    2.243 --    26 C    1.045    28 C    0.981
    28   6 C    3.973 --    29 C    1.026    27 S    0.981   153 H    0.969
                           154 H    0.969
    29   6 C    3.993 --    28 C    1.026   155 H    0.986   157 H    0.984
                           156 H    0.979
    30   6 C    3.983 --    22 C    1.403    26 C    1.387   158 H    0.965
                            24 C    0.103
    31   6 C    3.942 --    21 C    1.418    32 C    1.224    47 S    1.088
    32   6 C    3.961 --    33 C    1.288    45 C    1.241    31 C    1.224
    33   6 C    3.959 --    43 C    1.381    32 C    1.288    34 C    1.045
    34   6 C    3.988 --    42 C    1.391    35 C    1.377    33 C    1.045
                            37 C    0.100
    35   6 C    3.986 --    36 C    1.447    34 C    1.377   159 H    0.968
    36   6 C    3.990 --    35 C    1.447    37 C    1.436   160 H    0.969
                            42 C    0.104
    37   6 C    3.982 --    36 C    1.436    38 C    1.400   161 H    0.968
                            34 C    0.100
    38   6 C    3.967 --    42 C    1.412    37 C    1.400    39 S    1.010
    39  16 S    2.145 --    38 C    1.010    40 C    0.969
    40   6 C    3.971 --    41 C    1.028   163 H    0.972    39 S    0.969
                           162 H    0.968
    41   6 C    3.995 --    40 C    1.028   166 H    0.987   164 H    0.985
                           165 H    0.976
    42   6 C    3.983 --    38 C    1.412    34 C    1.391   167 H    0.960
                            36 C    0.104
    43   6 C    3.955 --    33 C    1.381    20 C    1.222    44 S    1.123
    44  16 S    2.646 --    43 C    1.123    18 C    1.093    19 C    0.104
                             4 O    0.101
    45   6 C    3.946 --    46 C    1.521    32 C    1.241   168 H    0.954
    46   6 C    3.923 --    45 C    1.521    48 C    1.175    47 S    1.086
    47  16 S    2.515 --    31 C    1.088    46 C    1.086
    48   6 C    3.915 --    49 C    1.447    46 C    1.175    90 S    1.073
    49   6 C    3.957 --    48 C    1.447    58 C    1.259    50 C    1.031
    50   6 C    3.987 --    51 C    1.390    57 C    1.384    49 C    1.031
                            53 C    0.103
    51   6 C    3.984 --    52 C    1.442    50 C    1.390   169 H    0.969
                            54 C    0.104
    52   6 C    3.990 --    53 C    1.443    51 C    1.442   170 H    0.970
                            57 C    0.106
    53   6 C    3.984 --    52 C    1.443    54 C    1.404   171 H    0.969
                            50 C    0.103
    54   6 C    3.986 --    57 C    1.420    53 C    1.404    55 C    1.012
                            51 C    0.104
    55   6 C    3.996 --    54 C    1.012    56 C    1.001   172 H    0.974
                           173 H    0.973
    56   6 C    3.996 --    55 C    1.001   176 H    0.988   174 H    0.988
                           175 H    0.986
    57   6 C    3.988 --    54 C    1.420    50 C    1.384   177 H    0.967
                            52 C    0.106
    58   6 C    3.926 --    89 C    1.354    49 C    1.259    59 S    1.095
    59  16 S    2.511 --    60 C    1.108    58 C    1.095
    60   6 C    3.924 --    88 C    1.318    61 C    1.263    59 S    1.108
    61   6 C    3.958 --    86 C    1.278    60 C    1.263    62 C    1.176
    62   6 C    3.972 --    66 N    1.421    61 C    1.176    63 C    1.165
                            65 S    0.104
    63   6 C    3.972 --    64 N    1.422    67 C    1.176    62 C    1.165
                            65 S    0.103
    64   7 N    3.062 --    63 C    1.422    65 S    1.386    66 N    0.147
    65  16 S    3.103 --    66 N    1.387    64 N    1.386    62 C    0.104
                            63 C    0.103
    66   7 N    3.062 --    62 C    1.421    65 S    1.387    64 N    0.147
    67   6 C    3.958 --    85 C    1.276    68 C    1.264    63 C    1.176
    68   6 C    3.925 --    83 C    1.317    67 C    1.264    69 S    1.108
    69  16 S    2.508 --    68 C    1.108    70 C    1.095
    70   6 C    3.925 --    82 C    1.354    71 C    1.258    69 S    1.095
    71   6 C    3.958 --    80 C    1.457    70 C    1.258    72 C    1.021
    72   6 C    3.987 --    79 C    1.396    73 C    1.389    71 C    1.021
                            75 C    0.103
    73   6 C    3.986 --    74 C    1.445    72 C    1.389   178 H    0.970
                            76 C    0.106
    74   6 C    3.989 --    73 C    1.445    75 C    1.438   179 H    0.970
                            79 C    0.106
    75   6 C    3.986 --    74 C    1.438    76 C    1.412   180 H    0.969
                            72 C    0.103
    76   6 C    3.987 --    75 C    1.412    79 C    1.408    77 C    1.012
                            73 C    0.106
    77   6 C    3.996 --    76 C    1.012    78 C    1.001   182 H    0.975
                           181 H    0.972
    78   6 C    3.995 --    77 C    1.001   185 H    0.988   183 H    0.988
                           184 H    0.986
    79   6 C    3.988 --    76 C    1.408    72 C    1.396   186 H    0.964
                            74 C    0.106
    80   6 C    3.915 --    71 C    1.457    95 C    1.172    81 S    1.066
    81  16 S    2.528 --    82 C    1.110    80 C    1.066
    82   6 C    3.928 --    70 C    1.354    83 C    1.236    81 S    1.110
    83   6 C    3.940 --    68 C    1.317    82 C    1.236    84 N    1.159
    84   7 N    3.556 --    85 C    1.167    83 C    1.159    93 C    0.980
    85   6 C    3.934 --    67 C    1.276    86 C    1.221    84 N    1.167
    86   6 C    3.934 --    61 C    1.278    85 C    1.221    87 N    1.164
    87   7 N    3.552 --    86 C    1.164    88 C    1.159    91 C    0.979
    88   6 C    3.940 --    60 C    1.318    89 C    1.236    87 N    1.159
    89   6 C    3.927 --    58 C    1.354    88 C    1.236    90 S    1.112
    90  16 S    2.527 --    89 C    1.112    48 C    1.073
    91   6 C    3.959 --    92 C    1.007    87 N    0.979   187 H    0.962
                           188 H    0.954
    92   6 C    3.988 --    91 C    1.007   190 H    0.987   191 H    0.983
                           189 H    0.983
    93   6 C    3.959 --    94 C    1.007    84 N    0.980   193 H    0.961
                           192 H    0.954
    94   6 C    3.989 --    93 C    1.007   194 H    0.986   195 H    0.983
                           196 H    0.983
    95   6 C    3.926 --    96 C    1.520    80 C    1.172   121 S    1.091
    96   6 C    3.947 --    95 C    1.520    97 C    1.242   197 H    0.951
    97   6 C    3.964 --    98 C    1.282    96 C    1.242   120 C    1.231
    98   6 C    3.961 --   108 C    1.386    97 C    1.282    99 C    1.044
    99   6 C    3.987 --   100 C    1.386   107 C    1.383    98 C    1.044
                           102 C    0.100
   100   6 C    3.981 --   101 C    1.435    99 C    1.386   198 H    0.965
   101   6 C    3.990 --   102 C    1.449   100 C    1.435   199 H    0.968
                           107 C    0.102
   102   6 C    3.982 --   101 C    1.449   103 C    1.382   200 H    0.968
                            99 C    0.100
   103   6 C    3.963 --   107 C    1.410   102 C    1.382   104 S    1.030
   104  16 S    2.199 --   103 C    1.030   105 C    0.975
   105   6 C    3.973 --   106 C    1.027   104 S    0.975   201 H    0.973
                           202 H    0.968
   106   6 C    3.994 --   105 C    1.027   204 H    0.986   205 H    0.983
                           203 H    0.978
   107   6 C    3.985 --   103 C    1.410    99 C    1.383   206 H    0.960
                           101 C    0.102
   108   6 C    3.946 --    98 C    1.386   109 C    1.226   124 S    1.120
   109   6 C    3.969 --   122 C    1.272   110 C    1.261   108 C    1.226
   110   6 C    3.959 --   120 C    1.407   109 C    1.261   111 C    1.044
   111   6 C    3.987 --   119 C    1.389   112 C    1.381   110 C    1.044
   112   6 C    3.984 --   113 C    1.440   111 C    1.381   207 H    0.966
   113   6 C    3.990 --   114 C    1.441   112 C    1.440   208 H    0.968
                           119 C    0.103
   114   6 C    3.983 --   113 C    1.441   115 C    1.393   209 H    0.967
   115   6 C    3.967 --   119 C    1.409   114 C    1.393   116 S    1.021
   116  16 S    2.174 --   115 C    1.021   117 C    0.973
   117   6 C    3.975 --   118 C    1.027   210 H    0.974   116 S    0.973
                           211 H    0.971
   118   6 C    3.992 --   117 C    1.027   213 H    0.985   214 H    0.979
                           212 H    0.978
   119   6 C    3.983 --   115 C    1.409   111 C    1.389   215 H    0.965
                           113 C    0.103
   120   6 C    3.944 --   110 C    1.407    97 C    1.231   121 S    1.089
   121  16 S    2.527 --    95 C    1.091   120 C    1.089
   122   6 C    3.942 --   123 C    1.474   109 C    1.272   216 H    0.938
   123   6 C    3.934 --   122 C    1.474   125 C    1.243   124 S    1.066
   124  16 S    2.506 --   108 C    1.120   123 C    1.066
   125   6 C    3.947 --   126 C    1.549   123 C    1.243   217 H    0.944
   126   6 C    3.949 --   125 C    1.549   136 C    1.121   127 C    1.037
   127   6 C    3.914 --   128 O    1.728   126 C    1.037   129 C    1.027
   128   8 O    2.032 --   127 C    1.728
   129   6 C    3.978 --   130 C    1.429   135 C    1.283   127 C    1.027
   130   6 C    3.982 --   129 C    1.429   131 C    1.385   218 H    0.963
   131   6 C    3.965 --   133 C    1.398   130 C    1.385   132 C    1.034
   132   6 C    3.991 --   131 C    1.034   220 H    0.980   219 H    0.978
                           221 H    0.959
   133   6 C    3.977 --   134 C    1.440   131 C    1.398   222 H    0.967
   134   6 C    3.978 --   133 C    1.440   135 C    1.395   223 H    0.961
   135   6 C    3.979 --   134 C    1.395   129 C    1.283   136 C    1.093
   136   6 C    3.973 --   137 C    1.490   126 C    1.121   135 C    1.093
   137   6 C    3.951 --   136 C    1.490   140 C    1.097   138 C    1.097
   138   6 C    3.943 --   139 N    2.752   137 C    1.097
   139   7 N    2.959 --   138 C    2.752
   140   6 C    3.942 --   141 N    2.759   137 C    1.097
   141   7 N    2.965 --   140 C    2.759
   142   1 H    0.994 --     1 C    0.938
   143   1 H    0.996 --     6 C    0.964
   144   1 H    0.996 --     8 C    0.981
   145   1 H    0.992 --     8 C    0.959
   146   1 H    0.995 --     8 C    0.975
   147   1 H    0.996 --     9 C    0.967
   148   1 H    0.996 --    10 C    0.961
   149   1 H    0.995 --    19 C    0.958
   150   1 H    0.997 --    23 C    0.966
   151   1 H    0.998 --    24 C    0.968
   152   1 H    0.998 --    25 C    0.963
   153   1 H    0.997 --    28 C    0.969
   154   1 H    0.996 --    28 C    0.969
   155   1 H    0.997 --    29 C    0.986
   156   1 H    0.997 --    29 C    0.979
   157   1 H    0.998 --    29 C    0.984
   158   1 H    0.998 --    30 C    0.965
   159   1 H    0.998 --    35 C    0.968
   160   1 H    0.997 --    36 C    0.969
   161   1 H    0.997 --    37 C    0.968
   162   1 H    0.996 --    40 C    0.968
   163   1 H    0.997 --    40 C    0.972
   164   1 H    0.998 --    41 C    0.985
   165   1 H    0.997 --    41 C    0.976
   166   1 H    0.998 --    41 C    0.987
   167   1 H    0.997 --    42 C    0.960
   168   1 H    0.996 --    45 C    0.954
   169   1 H    0.998 --    51 C    0.969
   170   1 H    0.997 --    52 C    0.970
   171   1 H    0.998 --    53 C    0.969
   172   1 H    0.998 --    55 C    0.974
   173   1 H    0.998 --    55 C    0.973
   174   1 H    0.999 --    56 C    0.988
   175   1 H    0.997 --    56 C    0.986
   176   1 H    0.999 --    56 C    0.988
   177   1 H    0.999 --    57 C    0.967
   178   1 H    0.998 --    73 C    0.970
   179   1 H    0.997 --    74 C    0.970
   180   1 H    0.998 --    75 C    0.969
   181   1 H    0.998 --    77 C    0.972
   182   1 H    0.998 --    77 C    0.975
   183   1 H    0.999 --    78 C    0.988
   184   1 H    0.997 --    78 C    0.986
   185   1 H    0.999 --    78 C    0.988
   186   1 H    0.998 --    79 C    0.964
   187   1 H    0.994 --    91 C    0.962
   188   1 H    0.993 --    91 C    0.954
   189   1 H    0.997 --    92 C    0.983
   190   1 H    0.997 --    92 C    0.987
   191   1 H    0.996 --    92 C    0.983
   192   1 H    0.993 --    93 C    0.954
   193   1 H    0.994 --    93 C    0.961
   194   1 H    0.997 --    94 C    0.986
   195   1 H    0.997 --    94 C    0.983
   196   1 H    0.996 --    94 C    0.983
   197   1 H    0.997 --    96 C    0.951
   198   1 H    0.997 --   100 C    0.965
   199   1 H    0.997 --   101 C    0.968
   200   1 H    0.997 --   102 C    0.968
   201   1 H    0.996 --   105 C    0.973
   202   1 H    0.997 --   105 C    0.968
   203   1 H    0.998 --   106 C    0.978
   204   1 H    0.997 --   106 C    0.986
   205   1 H    0.998 --   106 C    0.983
   206   1 H    0.998 --   107 C    0.960
   207   1 H    0.997 --   112 C    0.966
   208   1 H    0.997 --   113 C    0.968
   209   1 H    0.998 --   114 C    0.967
   210   1 H    0.998 --   117 C    0.974
   211   1 H    0.997 --   117 C    0.971
   212   1 H    0.996 --   118 C    0.978
   213   1 H    0.999 --   118 C    0.985
   214   1 H    0.998 --   118 C    0.979
   215   1 H    0.997 --   119 C    0.965
   216   1 H    0.990 --   122 C    0.938
   217   1 H    0.994 --   125 C    0.944
   218   1 H    0.995 --   130 C    0.963
   219   1 H    0.995 --   132 C    0.978
   220   1 H    0.996 --   132 C    0.980
   221   1 H    0.992 --   132 C    0.959
   222   1 H    0.996 --   133 C    0.967
   223   1 H    0.996 --   134 C    0.961
 ---------------------------------------------------------------------------

Topologies differ in bond orders
Writing corrected topology to xtbtopo.mol

molecular dipole:
                 x           y           z       tot (Debye)
 q only:        1.685       1.547       0.103
   full:        2.184       2.081       0.467       7.759
molecular quadrupole (traceless):
                xx          xy          yy          xz          yz          zz
 q only:      -35.635     115.815     -19.306      16.061     -72.666      54.941
  q+dip:      -14.653     120.628     -41.345       2.592     -83.235      55.998
   full:      -13.427     115.852     -47.588       6.969     -91.343      61.015


           -------------------------------------------------
          | TOTAL ENERGY             -368.409720674799 Eh   |
          | GRADIENT NORM               0.019505530704 Eh/α |
          | HOMO-LUMO GAP               0.738581744053 eV   |
           -------------------------------------------------

------------------------------------------------------------------------
 * finished run on 2022/02/11 at 08:32:07.191     
------------------------------------------------------------------------
 total:
 * wall-time:     0 d,  0 h,  0 min,  0.934 sec
 *  cpu-time:     0 d,  0 h,  0 min,  7.370 sec
 * ratio c/w:     7.893 speedup
 SCF:
 * wall-time:     0 d,  0 h,  0 min,  0.833 sec
 *  cpu-time:     0 d,  0 h,  0 min,  6.647 sec
 * ratio c/w:     7.984 speedup

