      -----------------------------------------------------------      
     |                   =====================                   |     
     |                           x T B                           |     
     |                   =====================                   |     
     |                         S. Grimme                         |     
     |          Mulliken Center for Theoretical Chemistry        |     
     |                    University of Bonn                     |     
      -----------------------------------------------------------      

   * xtb version 6.4.1 (unknown) compiled by 'oda6@login1.crc.pitt.edu' on 2021-06-25

   xtb is free software: you can redistribute it and/or modify it under
   the terms of the GNU Lesser General Public License as published by
   the Free Software Foundation, either version 3 of the License, or
   (at your option) any later version.
   
   xtb is distributed in the hope that it will be useful,
   but WITHOUT ANY WARRANTY; without even the implied warranty of
   MERCHANTABILITY or FITNESS FOR A PARTICULAR PURPOSE.  See the
   GNU Lesser General Public License for more details.
   
   Cite this work as:
   * C. Bannwarth, E. Caldeweyher, S. Ehlert, A. Hansen, P. Pracht,
     J. Seibert, S. Spicher, S. Grimme, WIREs Comput. Mol. Sci., 2020, 11,
     e01493. DOI: 10.1002/wcms.1493
   
   for GFN2-xTB:
   * C. Bannwarth, S. Ehlert and S. Grimme., J. Chem. Theory Comput., 2019,
     15, 1652-1671. DOI: 10.1021/acs.jctc.8b01176
   for GFN1-xTB:
   * S. Grimme, C. Bannwarth, P. Shushkov, J. Chem. Theory Comput., 2017,
     13, 1989-2009. DOI: 10.1021/acs.jctc.7b00118
   for GFN0-xTB:
   * P. Pracht, E. Caldeweyher, S. Ehlert, S. Grimme, ChemRxiv, 2019, preprint.
     DOI: 10.26434/chemrxiv.8326202.v1
   for GFN-FF:
   * S. Spicher and S. Grimme, Angew. Chem. Int. Ed., 2020, 59, 15665-15673.
     DOI: 10.1002/anie.202004239
   
   for DFT-D4:
   * E. Caldeweyher, C. Bannwarth and S. Grimme, J. Chem. Phys., 2017,
     147, 034112. DOI: 10.1063/1.4993215
   * E. Caldeweyher, S. Ehlert, A. Hansen, H. Neugebauer, S. Spicher,
     C. Bannwarth and S. Grimme, J. Chem. Phys., 2019, 150, 154122.
     DOI: 10.1063/1.5090222
   * E. Caldeweyher, J.-M. Mewes, S. Ehlert and S. Grimme, Phys. Chem. Chem. Phys.
     2020, 22, 8499-8512. DOI: 10.1039/D0CP00502A
   
   for sTDA-xTB:
   * S. Grimme and C. Bannwarth, J. Chem. Phys., 2016, 145, 054103.
     DOI: 10.1063/1.4959605
   
   in the mass-spec context:
   * V. Asgeirsson, C. Bauer and S. Grimme, Chem. Sci., 2017, 8, 4879.
     DOI: 10.1039/c7sc00601b
   * J. Koopman and S. Grimme, ACS Omega 2019, 4, 12, 15120-15133.
     DOI: 10.1021/acsomega.9b02011
   
   for metadynamics refer to:
   * S. Grimme, J. Chem. Theory Comput., 2019, 155, 2847-2862
     DOI: 10.1021/acs.jctc.9b00143
   
   for SPH calculations refer to:
   * S. Spicher and S. Grimme, J. Chem. Theory Comput., 2021, 17, 1701-1714
     DOI: 10.1021/acs.jctc.0c01306
   
   with help from (in alphabetical order)
   P. Atkinson, C. Bannwarth, F. Bohle, G. Brandenburg, E. Caldeweyher
   M. Checinski, S. Dohm, S. Ehlert, S. Ehrlich, I. Gerasimov, J. Koopman
   C. Lavigne, S. Lehtola, F. März, M. Müller, F. Musil, H. Neugebauer
   J. Pisarek, C. Plett, P. Pracht, J. Seibert, P. Shushkov, S. Spicher
   M. Stahn, M. Steiner, T. Strunk, J. Stückrath, T. Rose, and J. Unsleber
   
 * started run on 2022/02/05 at 03:04:12.546     

           -------------------------------------------------
          |                Calculation Setup                |
           -------------------------------------------------

          program call               : /ihome/ghutchison/oda6/xtb/xtb-641/bin/xtb ../../GFN2_output/34_50_86_50_9.mol --sp --alpb hexane
          hostname                   : smp-n29
          coordinate file            : ../../GFN2_output/34_50_86_50_9.mol
          omp threads                :                     8
          number of atoms            :                   151
          number of electrons        :                   490
          charge                     :                     0
          spin                       :                   0.0
          first test random number   :      0.54380621631794

   ID    Z sym.   atoms
    1    6 C      1-3, 5, 6, 8-14, 16, 18-20, 22-24, 26-36, 38-41, 45, 46,
                  48-58, 60, 61, 63, 64, 66, 67, 69-75, 77-79, 81-83, 85-90,
                  92-98, 100
    2    8 O      4, 84
    3   17 Cl     7
    4    7 N      15, 17, 42, 44, 62, 65, 99, 101
    5   16 S      21, 25, 37, 43, 47, 59, 68, 76, 80
    6    9 F      91
    7    1 H      102-151

           -------------------------------------------------
          |                 G F N 2 - x T B                 |
           -------------------------------------------------

        Reference                      10.1021/acs.jctc.8b01176
      * Hamiltonian:
        H0-scaling (s, p, d)           1.850000    2.230000    2.230000
        zeta-weighting                 0.500000
      * Dispersion:
        s8                             2.700000
        a1                             0.520000
        a2                             5.000000
        s9                             5.000000
      * Repulsion:
        kExp                           1.500000    1.000000
        rExp                           1.000000
      * Coulomb:
        alpha                          2.000000
        third order                    shell-resolved
        anisotropic                    true
        a3                             3.000000
        a5                             4.000000
        cn-shift                       1.200000
        cn-exp                         4.000000
        max-rad                        5.000000

      * Solvation model:               ALPB
        Solvent                        hexane
        Parameter file                 internal GFN2-xTB/ALPB
        Dielectric constant                1.8800E+00
        Reference state                gsolv [1 M gas/solution]
        Free energy shift                  4.8134E-03 Eh       3.0204E+00 kcal/mol
        Temperature                        2.9815E+02 K
        Density                            6.6000E-01 kg/L
        Solvent mass                       8.6180E+01 g/mol
        Interaction kernel             P16
        Born radius scaling (c1)           1.1040E+00
        Born radii integrator          GBOBC
        Born offset                        0.0000E+00 a0       0.0000E+00 AA
        H-bond correction              false
        Ion screening                  false
        Surface tension                    1.0000E-05 Eh       1.5569E+01 dyn/cm
        Grid points                               230 per atom

          ...................................................
          :                      SETUP                      :
          :.................................................:
          :  # basis functions                 514          :
          :  # atomic orbitals                 504          :
          :  # shells                          262          :
          :  # electrons                       490          :
          :  max. iterations                   250          :
          :  Hamiltonian                  GFN2-xTB          :
          :  restarted?                      false          :
          :  GBSA solvation                   true          :
          :  PC potential                    false          :
          :  electronic temp.          300.0000000     K    :
          :  accuracy                    1.0000000          :
          :  -> integral cutoff          0.2500000E+02      :
          :  -> integral neglect         0.1000000E-07      :
          :  -> SCF convergence          0.1000000E-05 Eh   :
          :  -> wf. convergence          0.1000000E-03 e    :
          :  Broyden damping             0.4000000          :
          ...................................................

 iter      E             dE          RMSdq      gap      omega  full diag
   1   -270.7574495 -0.270757E+03  0.484E+00    1.07       0.0  T
   2   -270.9795322 -0.222083E+00  0.284E+00    0.86       1.0  T
   3   -270.8687864  0.110746E+00  0.144E+00    0.77       1.0  T
   4   -271.0380607 -0.169274E+00  0.542E-01    0.91       1.0  T
   5   -271.0606911 -0.226304E-01  0.200E-01    0.79       1.0  T
   6   -271.0624607 -0.176959E-02  0.982E-02    0.86       1.0  T
   7   -271.0630524 -0.591712E-03  0.463E-02    0.84       1.0  T
   8   -271.0631657 -0.113228E-03  0.279E-02    0.85       1.0  T
   9   -271.0631960 -0.303118E-04  0.176E-02    0.84       1.0  T
  10   -271.0632083 -0.123329E-04  0.115E-02    0.84       1.0  T
  11   -271.0632144 -0.612002E-05  0.791E-03    0.84       1.0  T
  12   -271.0632175 -0.307965E-05  0.490E-03    0.84       1.7  T
  13   -271.0632191 -0.154493E-05  0.285E-03    0.84       2.9  T
  14   -271.0632194 -0.372945E-06  0.173E-03    0.84       4.7  T
  15   -271.0632196 -0.138882E-06  0.939E-04    0.84       8.7  T
  16   -271.0632196 -0.384792E-07  0.516E-04    0.84      15.8  T

   *** convergence criteria satisfied after 16 iterations ***

         #    Occupation            Energy/Eh            Energy/eV
      -------------------------------------------------------------
         1        2.0000           -1.0705751             -29.1318
       ...           ...                  ...                  ...
       239        2.0000           -0.3947201             -10.7409
       240        2.0000           -0.3872384             -10.5373
       241        2.0000           -0.3853410             -10.4857
       242        2.0000           -0.3812044             -10.3731
       243        2.0000           -0.3767011             -10.2506
       244        2.0000           -0.3756348             -10.2215
       245        2.0000           -0.3645170              -9.9190 (HOMO)
       246        0.0000           -0.3334836              -9.0746 (LUMO)
       247                         -0.3292233              -8.9586
       248                         -0.3226486              -8.7797
       249                         -0.3121692              -8.4946
       250                         -0.3009722              -8.1899
       ...                                ...                  ...
       504                          1.1615912              31.6085
      -------------------------------------------------------------
                  HL-Gap            0.0310334 Eh            0.8445 eV
             Fermi-level           -0.3490056 Eh           -9.4969 eV

 SCC (total)                   0 d,  0 h,  0 min,  0.501 sec
 SCC setup                      ...        0 min,  0.005 sec (  0.932%)
 Dispersion                     ...        0 min,  0.005 sec (  1.078%)
 classical contributions        ...        0 min,  0.000 sec (  0.043%)
 integral evaluation            ...        0 min,  0.021 sec (  4.189%)
 iterations                     ...        0 min,  0.409 sec ( 81.642%)
 molecular gradient             ...        0 min,  0.059 sec ( 11.737%)
 printout                       ...        0 min,  0.002 sec (  0.363%)

         :::::::::::::::::::::::::::::::::::::::::::::::::::::
         ::                     SUMMARY                     ::
         :::::::::::::::::::::::::::::::::::::::::::::::::::::
         :: total energy            -266.909195911936 Eh    ::
         :: total w/o Gsasa/hb      -266.813780666594 Eh    ::
         :: gradient norm              0.022625883593 Eh/a0 ::
         :: HOMO-LUMO gap              0.844462101483 eV    ::
         ::.................................................::
         :: SCC energy              -271.063219603439 Eh    ::
         :: -> isotropic ES            0.166156827188 Eh    ::
         :: -> anisotropic ES          0.007076825478 Eh    ::
         :: -> anisotropic XC          0.159876479423 Eh    ::
         :: -> dispersion             -0.253232290873 Eh    ::
         :: -> Gsolv                  -0.122694818056 Eh    ::
         ::    -> Gelec               -0.027279572713 Eh    ::
         ::    -> Gsasa               -0.100228601162 Eh    ::
         ::    -> Ghb                  0.000000000000 Eh    ::
         ::    -> Gshift               0.004813355820 Eh    ::
         :: repulsion energy           4.154430370101 Eh    ::
         :: add. restraining           0.000000000000 Eh    ::
         :: total charge              -0.000000001816 e     ::
         :::::::::::::::::::::::::::::::::::::::::::::::::::::

           -------------------------------------------------
          |                Property Printout                |
           -------------------------------------------------

    * Orbital Energies and Occupations

         #    Occupation            Energy/Eh            Energy/eV
      -------------------------------------------------------------
         1        2.0000           -1.0705751             -29.1318
       ...           ...                  ...                  ...
       233        2.0000           -0.4071995             -11.0805
       234        2.0000           -0.4057846             -11.0420
       235        2.0000           -0.4045568             -11.0086
       236        2.0000           -0.4042644             -11.0006
       237        2.0000           -0.4011630             -10.9162
       238        2.0000           -0.4000790             -10.8867
       239        2.0000           -0.3947201             -10.7409
       240        2.0000           -0.3872384             -10.5373
       241        2.0000           -0.3853410             -10.4857
       242        2.0000           -0.3812044             -10.3731
       243        2.0000           -0.3767011             -10.2506
       244        2.0000           -0.3756348             -10.2215
       245        2.0000           -0.3645170              -9.9190 (HOMO)
       246        0.0000           -0.3334836              -9.0746 (LUMO)
       247                         -0.3292233              -8.9586
       248                         -0.3226486              -8.7797
       249                         -0.3121692              -8.4946
       250                         -0.3009722              -8.1899
       251                         -0.2920834              -7.9480
       252                         -0.2859734              -7.7817
       253                         -0.2772554              -7.5445
       254                         -0.2618829              -7.1262
       255                         -0.2524325              -6.8690
       256                         -0.2474283              -6.7329
       ...                                ...                  ...
       504                          1.1615912              31.6085
      -------------------------------------------------------------
                  HL-Gap            0.0310334 Eh            0.8445 eV
             Fermi-level           -0.3490056 Eh           -9.4969 eV

     #   Z          covCN         q      C6AA      α(0)
     1   6 C        2.959    -0.013    28.338     8.731
     2   6 C        3.001    -0.038    28.932     8.823
     3   6 C        2.866     0.238    23.045     7.869
     4   8 O        0.856    -0.419    22.072     6.299
     5   6 C        3.073    -0.028    28.616     8.771
     6   6 C        2.880     0.115    25.457     8.271
     7  17 Cl       0.963    -0.150   103.843    15.590
     8   6 C        2.955    -0.034    28.837     8.808
     9   6 C        2.922    -0.017    28.440     8.745
    10   6 C        2.913    -0.031    28.763     8.794
    11   6 C        3.032     0.013    27.687     8.631
    12   6 C        3.019     0.036    27.170     8.550
    13   6 C        2.947     0.009    27.815     8.650
    14   6 C        1.954     0.134    27.814     8.517
    15   7 N        0.911    -0.264    26.850     7.494
    16   6 C        1.951     0.132    27.858     8.524
    17   7 N        0.911    -0.268    26.926     7.505
    18   6 C        2.981     0.030    27.326     8.575
    19   6 C        3.102    -0.051    29.127     8.844
    20   6 C        3.131     0.038    26.956     8.500
    21  16 S        2.195    -0.163   147.941    20.471
    22   6 C        3.793    -0.000    20.590     6.462
    23   6 C        3.778    -0.104    22.508     6.759
    24   6 C        3.046     0.026    27.377     8.582
    25  16 S        2.364    -0.019   141.847    20.045
    26   6 C        3.035     0.013    27.684     8.630
    27   6 C        3.110    -0.003    27.950     8.661
    28   6 C        2.979     0.009    27.802     8.649
    29   6 C        2.925    -0.036    28.900     8.816
    30   6 C        2.918    -0.029    28.725     8.789
    31   6 C        2.925    -0.035    28.877     8.813
    32   6 C        2.971     0.020    27.566     8.612
    33   6 C        3.807    -0.061    21.660     6.625
    34   6 C        3.754    -0.101    22.486     6.762
    35   6 C        2.930    -0.039    28.976     8.828
    36   6 C        3.190     0.012    27.249     8.515
    37  16 S        2.174    -0.035   142.520    20.093
    38   6 C        3.096     0.004    27.817     8.644
    39   6 C        3.092    -0.038    28.836     8.802
    40   6 C        3.343     0.070    23.969     7.736
    41   6 C        3.343     0.070    23.966     7.734
    42   7 N        1.854    -0.297    28.554     7.920
    43  16 S        2.690     0.337   128.063    19.046
    44   7 N        1.854    -0.296    28.524     7.916
    45   6 C        3.093    -0.039    28.846     8.803
    46   6 C        3.097     0.002    27.851     8.649
    47  16 S        2.178    -0.038   142.621    20.100
    48   6 C        3.194     0.010    27.274     8.515
    49   6 C        3.107    -0.006    28.019     8.673
    50   6 C        2.974     0.009    27.804     8.649
    51   6 C        2.924    -0.038    28.948     8.823
    52   6 C        2.918    -0.032    28.793     8.799
    53   6 C        2.925    -0.039    28.979     8.828
    54   6 C        2.969     0.017    27.635     8.623
    55   6 C        3.807    -0.060    21.647     6.623
    56   6 C        3.753    -0.098    22.424     6.753
    57   6 C        2.930    -0.041    29.030     8.836
    58   6 C        3.033     0.010    27.765     8.643
    59  16 S        2.288    -0.044   142.860    20.117
    60   6 C        3.119     0.005    27.744     8.627
    61   6 C        3.254     0.026    26.358     8.305
    62   7 N        2.804    -0.026    21.738     6.925
    63   6 C        3.061     0.028    27.319     8.571
    64   6 C        3.061     0.028    27.314     8.570
    65   7 N        2.803    -0.025    21.726     6.923
    66   6 C        3.252     0.027    26.351     8.306
    67   6 C        3.116     0.005    27.743     8.628
    68  16 S        2.417    -0.046   142.955    20.123
    69   6 C        3.745    -0.009    20.805     6.506
    70   6 C        3.752    -0.118    22.813     6.811
    71   6 C        3.746    -0.009    20.809     6.507
    72   6 C        3.752    -0.116    22.789     6.808
    73   6 C        3.022     0.035    27.183     8.552
    74   6 C        3.123    -0.060    29.307     8.865
    75   6 C        3.118     0.054    26.621     8.451
    76  16 S        2.094    -0.077   144.253    20.215
    77   6 C        3.793    -0.016    20.861     6.504
    78   6 C        3.775    -0.108    22.594     6.773
    79   6 C        3.012     0.024    27.440     8.593
    80  16 S        2.377    -0.024   142.044    20.059
    81   6 C        2.955    -0.013    28.331     8.730
    82   6 C        3.011    -0.037    28.902     8.819
    83   6 C        2.872     0.226    23.262     7.906
    84   8 O        0.915    -0.423    22.121     6.307
    85   6 C        3.037    -0.019    28.447     8.748
    86   6 C        2.913    -0.018    28.456     8.747
    87   6 C        2.987     0.015    27.659     8.627
    88   6 C        2.922    -0.030    28.745     8.792
    89   6 C        2.913    -0.043    29.066     8.841
    90   6 C        2.782     0.178    24.173     8.053
    91   9 F        0.787    -0.239    11.651     4.032
    92   6 C        2.917    -0.051    29.277     8.873
    93   6 C        2.991     0.022    27.513     8.604
    94   6 C        2.915    -0.030    28.750     8.793
    95   6 C        3.028     0.006    27.850     8.656
    96   6 C        3.017     0.036    27.168     8.550
    97   6 C        2.947     0.005    27.912     8.665
    98   6 C        1.940     0.132    27.849     8.522
    99   7 N        0.911    -0.271    27.014     7.517
   100   6 C        1.939     0.130    27.896     8.529
   101   7 N        0.911    -0.274    27.071     7.525
   102   1 H        0.925     0.073     2.047     2.238
   103   1 H        0.926     0.078     1.998     2.210
   104   1 H        0.926     0.072     2.066     2.248
   105   1 H        0.926     0.071     2.074     2.252
   106   1 H        0.926     0.101     1.778     2.085
   107   1 H        0.925     0.064     2.156     2.296
   108   1 H        0.925     0.064     2.151     2.293
   109   1 H        0.925     0.050     2.316     2.380
   110   1 H        0.925     0.051     2.313     2.378
   111   1 H        0.925     0.053     2.281     2.362
   112   1 H        0.926     0.030     2.583     2.513
   113   1 H        0.926     0.040     2.445     2.445
   114   1 H        0.926     0.044     2.394     2.420
   115   1 H        0.924     0.042     2.426     2.436
   116   1 H        0.924     0.043     2.412     2.429
   117   1 H        0.925     0.043     2.410     2.428
   118   1 H        0.925     0.040     2.450     2.448
   119   1 H        0.925     0.035     2.511     2.478
   120   1 H        0.926     0.039     2.457     2.451
   121   1 H        0.926     0.040     2.445     2.445
   122   1 H        0.926     0.039     2.460     2.452
   123   1 H        0.926     0.039     2.466     2.455
   124   1 H        0.924     0.040     2.446     2.446
   125   1 H        0.924     0.041     2.438     2.442
   126   1 H        0.925     0.033     2.551     2.498
   127   1 H        0.925     0.044     2.395     2.420
   128   1 H        0.925     0.041     2.437     2.441
   129   1 H        0.926     0.034     2.523     2.484
   130   1 H        0.925     0.076     2.021     2.223
   131   1 H        0.924     0.068     2.107     2.270
   132   1 H        0.925     0.060     2.204     2.322
   133   1 H        0.925     0.058     2.223     2.331
   134   1 H        0.925     0.047     2.353     2.399
   135   1 H        0.925     0.078     2.004     2.214
   136   1 H        0.924     0.067     2.117     2.276
   137   1 H        0.925     0.057     2.240     2.340
   138   1 H        0.925     0.058     2.219     2.329
   139   1 H        0.925     0.047     2.356     2.400
   140   1 H        0.926     0.063     2.162     2.300
   141   1 H        0.925     0.066     2.129     2.282
   142   1 H        0.925     0.060     2.194     2.316
   143   1 H        0.925     0.048     2.350     2.397
   144   1 H        0.925     0.054     2.275     2.359
   145   1 H        0.925     0.055     2.264     2.353
   146   1 H        0.925     0.068     2.107     2.270
   147   1 H        0.926     0.065     2.142     2.289
   148   1 H        0.926     0.062     2.172     2.305
   149   1 H        0.926     0.070     2.090     2.261
   150   1 H        0.926     0.073     2.050     2.239
   151   1 H        0.926     0.063     2.161     2.299

 Mol. C6AA /au·bohr⁶  :     434159.835976
 Mol. C8AA /au·bohr⁸  :   12566837.342127
 Mol. α(0) /au        :       1054.943208


Wiberg/Mayer (AO) data.
largest (>0.10) Wiberg bond orders for each atom

 ---------------------------------------------------------------------------
     #   Z sym  total        # sym  WBO       # sym  WBO       # sym  WBO
 ---------------------------------------------------------------------------
     1   6 C    3.930 --     2 C    1.486    18 C    1.292   102 H    0.939
     2   6 C    3.951 --     1 C    1.486    12 C    1.151     3 C    1.052
     3   6 C    3.914 --     4 O    1.715     2 C    1.052     5 C    1.027
     4   8 O    2.020 --     3 C    1.715
     5   6 C    3.975 --     6 C    1.385    11 C    1.287     3 C    1.027
     6   6 C    3.914 --     5 C    1.385     8 C    1.370     7 Cl   0.998
     7  17 Cl   1.153 --     6 C    0.998
     8   6 C    3.967 --     9 C    1.453     6 C    1.370   103 H    0.964
     9   6 C    3.978 --     8 C    1.453    10 C    1.410   104 H    0.966
    10   6 C    3.974 --    11 C    1.414     9 C    1.410   105 H    0.958
    11   6 C    3.981 --    10 C    1.414     5 C    1.287    12 C    1.078
    12   6 C    3.964 --    13 C    1.475     2 C    1.151    11 C    1.078
    13   6 C    3.942 --    12 C    1.475    16 C    1.100    14 C    1.098
    14   6 C    3.941 --    15 N    2.753    13 C    1.098
    15   7 N    2.959 --    14 C    2.753
    16   6 C    3.942 --    17 N    2.741    13 C    1.100
    17   7 N    2.954 --    16 C    2.741
    18   6 C    3.928 --    19 C    1.383     1 C    1.292    25 S    1.081
    19   6 C    3.952 --    18 C    1.383    20 C    1.375   106 H    0.934
    20   6 C    3.940 --    19 C    1.375    24 C    1.325    21 S    1.058
    21  16 S    2.295 --    20 C    1.058    22 C    0.969
    22   6 C    3.961 --    23 C    1.027    21 S    0.969   107 H    0.967
                           108 H    0.967
    23   6 C    3.991 --    22 C    1.027   110 H    0.986   109 H    0.982
                           111 H    0.976
    24   6 C    3.921 --    20 C    1.325    26 C    1.227    25 S    1.158
    25  16 S    2.605 --    24 C    1.158    18 C    1.081
    26   6 C    3.920 --    27 C    1.395    24 C    1.227    68 S    1.075
    27   6 C    3.950 --    26 C    1.395    36 C    1.294    28 C    1.028
    28   6 C    3.986 --    35 C    1.397    29 C    1.375    27 C    1.028
                            31 C    0.103
    29   6 C    3.987 --    30 C    1.449    28 C    1.375   112 H    0.970
                            32 C    0.106
    30   6 C    3.990 --    29 C    1.449    31 C    1.437   113 H    0.969
                            35 C    0.104
    31   6 C    3.985 --    30 C    1.437    32 C    1.409   114 H    0.968
                            28 C    0.103
    32   6 C    3.986 --    35 C    1.413    31 C    1.409    33 C    1.013
                            29 C    0.106
    33   6 C    3.995 --    32 C    1.013    34 C    0.999   116 H    0.974
                           115 H    0.973
    34   6 C    3.995 --    33 C    0.999   119 H    0.988   117 H    0.988
                           118 H    0.986
    35   6 C    3.983 --    32 C    1.413    28 C    1.397   120 H    0.967
                            30 C    0.104
    36   6 C    3.925 --    67 C    1.327    27 C    1.294    37 S    1.092
    37  16 S    2.508 --    38 C    1.110    36 C    1.092
    38   6 C    3.917 --    66 C    1.305    39 C    1.276    37 S    1.110
    39   6 C    3.955 --    38 C    1.276    64 C    1.266    40 C    1.174
    40   6 C    3.972 --    44 N    1.421    39 C    1.174    41 C    1.168
                            43 S    0.103
    41   6 C    3.972 --    42 N    1.421    45 C    1.174    40 C    1.168
                            43 S    0.104
    42   7 N    3.060 --    41 C    1.421    43 S    1.387    44 N    0.146
    43  16 S    3.103 --    44 N    1.387    42 N    1.387    41 C    0.104
                            40 C    0.103
    44   7 N    3.062 --    40 C    1.421    43 S    1.387    42 N    0.146
    45   6 C    3.954 --    46 C    1.273    63 C    1.268    41 C    1.174
    46   6 C    3.923 --    61 C    1.310    45 C    1.273    47 S    1.108
    47  16 S    2.513 --    46 C    1.108    48 C    1.095
    48   6 C    3.926 --    60 C    1.342    49 C    1.272    47 S    1.095
    49   6 C    3.959 --    58 C    1.420    48 C    1.272    50 C    1.038
    50   6 C    3.986 --    51 C    1.389    57 C    1.384    49 C    1.038
                            53 C    0.103
    51   6 C    3.985 --    52 C    1.441    50 C    1.389   121 H    0.968
                            54 C    0.104
    52   6 C    3.990 --    53 C    1.445    51 C    1.441   122 H    0.970
                            57 C    0.106
    53   6 C    3.983 --    52 C    1.445    54 C    1.400   123 H    0.969
                            50 C    0.103
    54   6 C    3.987 --    57 C    1.424    53 C    1.400    55 C    1.013
                            51 C    0.104
    55   6 C    3.996 --    54 C    1.013    56 C    0.999   124 H    0.974
                           125 H    0.973
    56   6 C    3.995 --    55 C    0.999   126 H    0.988   127 H    0.986
                           128 H    0.985
    57   6 C    3.988 --    54 C    1.424    50 C    1.384   129 H    0.967
                            52 C    0.106
    58   6 C    3.919 --    49 C    1.420    73 C    1.181    59 S    1.089
    59  16 S    2.552 --    60 C    1.121    58 C    1.089
    60   6 C    3.926 --    48 C    1.342    61 C    1.240    59 S    1.121
    61   6 C    3.938 --    46 C    1.310    60 C    1.240    62 N    1.163
    62   7 N    3.569 --    63 C    1.175    61 C    1.163    71 C    0.980
    63   6 C    3.931 --    45 C    1.268    64 C    1.218    62 N    1.175
    64   6 C    3.927 --    39 C    1.266    63 C    1.218    65 N    1.176
    65   7 N    3.567 --    64 C    1.176    66 C    1.162    69 C    0.980
    66   6 C    3.937 --    38 C    1.305    67 C    1.246    65 N    1.162
    67   6 C    3.919 --    36 C    1.327    66 C    1.246    68 S    1.117
    68  16 S    2.583 --    67 C    1.117    26 C    1.075
    69   6 C    3.958 --    70 C    1.005    65 N    0.980   131 H    0.964
                           130 H    0.958
    70   6 C    3.987 --    69 C    1.005   133 H    0.983   132 H    0.981
                           134 H    0.980
    71   6 C    3.958 --    72 C    1.005    62 N    0.980   136 H    0.963
                           135 H    0.957
    72   6 C    3.987 --    71 C    1.005   138 H    0.983   137 H    0.982
                           139 H    0.980
    73   6 C    3.934 --    74 C    1.443    58 C    1.181    80 S    1.144
    74   6 C    3.962 --    73 C    1.443    75 C    1.328   140 H    0.951
    75   6 C    3.943 --    74 C    1.328    79 C    1.319    76 S    1.113
    76  16 S    2.489 --    75 C    1.113    77 C    0.969
    77   6 C    3.971 --    78 C    1.026    76 S    0.969   141 H    0.968
                           142 H    0.967
    78   6 C    3.990 --    77 C    1.026   144 H    0.986   143 H    0.982
                           145 H    0.977
    79   6 C    3.926 --    81 C    1.324    75 C    1.319    80 S    1.082
    80  16 S    2.557 --    73 C    1.144    79 C    1.082
    81   6 C    3.958 --    82 C    1.457    79 C    1.324   146 H    0.944
    82   6 C    3.957 --    81 C    1.457    96 C    1.155    83 C    1.072
    83   6 C    3.919 --    84 O    1.668    82 C    1.072    85 C    1.027
    84   8 O    2.024 --    83 C    1.668
    85   6 C    3.978 --    86 C    1.526    95 C    1.199    83 C    1.027
    86   6 C    3.976 --    85 C    1.526    87 C    1.266   147 H    0.963
    87   6 C    3.980 --    88 C    1.290    86 C    1.266    93 C    1.243
    88   6 C    3.979 --    89 C    1.543    87 C    1.290   148 H    0.966
                            92 C    0.111
    89   6 C    3.974 --    88 C    1.543    90 C    1.296   149 H    0.965
    90   6 C    3.870 --    92 C    1.492    89 C    1.296    91 F    0.950
    91   9 F    1.074 --    90 C    0.950
    92   6 C    3.976 --    90 C    1.492    93 C    1.291   150 H    0.962
                            88 C    0.111
    93   6 C    3.983 --    92 C    1.291    94 C    1.268    87 C    1.243
    94   6 C    3.969 --    95 C    1.510    93 C    1.268   151 H    0.958
    95   6 C    3.985 --    94 C    1.510    85 C    1.199    96 C    1.084
    96   6 C    3.971 --    97 C    1.466    82 C    1.155    95 C    1.084
    97   6 C    3.933 --    96 C    1.466   100 C    1.103    98 C    1.103
    98   6 C    3.942 --    99 N    2.752    97 C    1.103
    99   7 N    2.959 --    98 C    2.752
   100   6 C    3.943 --   101 N    2.747    97 C    1.103
   101   7 N    2.953 --   100 C    2.747
   102   1 H    0.993 --     1 C    0.939
   103   1 H    0.993 --     8 C    0.964
   104   1 H    0.994 --     9 C    0.966
   105   1 H    0.994 --    10 C    0.958
   106   1 H    0.989 --    19 C    0.934
   107   1 H    0.995 --    22 C    0.967
   108   1 H    0.995 --    22 C    0.967
   109   1 H    0.997 --    23 C    0.982
   110   1 H    0.997 --    23 C    0.986
   111   1 H    0.997 --    23 C    0.976
   112   1 H    0.999 --    29 C    0.970
   113   1 H    0.997 --    30 C    0.969
   114   1 H    0.998 --    31 C    0.968
   115   1 H    0.998 --    33 C    0.973
   116   1 H    0.998 --    33 C    0.974
   117   1 H    0.998 --    34 C    0.988
   118   1 H    0.997 --    34 C    0.986
   119   1 H    0.999 --    34 C    0.988
   120   1 H    0.998 --    35 C    0.967
   121   1 H    0.998 --    51 C    0.968
   122   1 H    0.997 --    52 C    0.970
   123   1 H    0.998 --    53 C    0.969
   124   1 H    0.998 --    55 C    0.974
   125   1 H    0.998 --    55 C    0.973
   126   1 H    0.999 --    56 C    0.988
   127   1 H    0.998 --    56 C    0.986
   128   1 H    0.997 --    56 C    0.985
   129   1 H    0.999 --    57 C    0.967
   130   1 H    0.993 --    69 C    0.958
   131   1 H    0.993 --    69 C    0.964
   132   1 H    0.996 --    70 C    0.981
   133   1 H    0.996 --    70 C    0.983
   134   1 H    0.998 --    70 C    0.980
   135   1 H    0.993 --    71 C    0.957
   136   1 H    0.994 --    71 C    0.963
   137   1 H    0.997 --    72 C    0.982
   138   1 H    0.996 --    72 C    0.983
   139   1 H    0.998 --    72 C    0.980
   140   1 H    0.995 --    74 C    0.951
   141   1 H    0.995 --    77 C    0.968
   142   1 H    0.995 --    77 C    0.967
   143   1 H    0.998 --    78 C    0.982
   144   1 H    0.997 --    78 C    0.986
   145   1 H    0.996 --    78 C    0.977
   146   1 H    0.993 --    81 C    0.944
   147   1 H    0.995 --    86 C    0.963
   148   1 H    0.996 --    88 C    0.966
   149   1 H    0.994 --    89 C    0.965
   150   1 H    0.994 --    92 C    0.962
   151   1 H    0.995 --    94 C    0.958
 ---------------------------------------------------------------------------

Topologies differ in bond orders
Writing corrected topology to xtbtopo.mol

molecular dipole:
                 x           y           z       tot (Debye)
 q only:       -0.292       1.818      -0.007
   full:        0.272       1.505      -0.321       3.973
molecular quadrupole (traceless):
                xx          xy          yy          xz          yz          zz
 q only:     -182.319      33.134     114.908     -50.211      11.899      67.411
  q+dip:     -213.015      55.075     144.413     -56.493      20.305      68.601
   full:     -222.053      54.077     137.425     -55.152      23.583      84.628


           -------------------------------------------------
          | TOTAL ENERGY             -266.909195911936 Eh   |
          | GRADIENT NORM               0.022625883593 Eh/α |
          | HOMO-LUMO GAP               0.844462101483 eV   |
           -------------------------------------------------

------------------------------------------------------------------------
 * finished run on 2022/02/05 at 03:04:13.122     
------------------------------------------------------------------------
 total:
 * wall-time:     0 d,  0 h,  0 min,  0.576 sec
 *  cpu-time:     0 d,  0 h,  0 min,  4.500 sec
 * ratio c/w:     7.815 speedup
 SCF:
 * wall-time:     0 d,  0 h,  0 min,  0.504 sec
 *  cpu-time:     0 d,  0 h,  0 min,  4.012 sec
 * ratio c/w:     7.966 speedup

