      -----------------------------------------------------------      
     |                   =====================                   |     
     |                           x T B                           |     
     |                   =====================                   |     
     |                         S. Grimme                         |     
     |          Mulliken Center for Theoretical Chemistry        |     
     |                    University of Bonn                     |     
      -----------------------------------------------------------      

   * xtb version 6.4.1 (unknown) compiled by 'oda6@login1.crc.pitt.edu' on 2021-06-25

   xtb is free software: you can redistribute it and/or modify it under
   the terms of the GNU Lesser General Public License as published by
   the Free Software Foundation, either version 3 of the License, or
   (at your option) any later version.
   
   xtb is distributed in the hope that it will be useful,
   but WITHOUT ANY WARRANTY; without even the implied warranty of
   MERCHANTABILITY or FITNESS FOR A PARTICULAR PURPOSE.  See the
   GNU Lesser General Public License for more details.
   
   Cite this work as:
   * C. Bannwarth, E. Caldeweyher, S. Ehlert, A. Hansen, P. Pracht,
     J. Seibert, S. Spicher, S. Grimme, WIREs Comput. Mol. Sci., 2020, 11,
     e01493. DOI: 10.1002/wcms.1493
   
   for GFN2-xTB:
   * C. Bannwarth, S. Ehlert and S. Grimme., J. Chem. Theory Comput., 2019,
     15, 1652-1671. DOI: 10.1021/acs.jctc.8b01176
   for GFN1-xTB:
   * S. Grimme, C. Bannwarth, P. Shushkov, J. Chem. Theory Comput., 2017,
     13, 1989-2009. DOI: 10.1021/acs.jctc.7b00118
   for GFN0-xTB:
   * P. Pracht, E. Caldeweyher, S. Ehlert, S. Grimme, ChemRxiv, 2019, preprint.
     DOI: 10.26434/chemrxiv.8326202.v1
   for GFN-FF:
   * S. Spicher and S. Grimme, Angew. Chem. Int. Ed., 2020, 59, 15665-15673.
     DOI: 10.1002/anie.202004239
   
   for DFT-D4:
   * E. Caldeweyher, C. Bannwarth and S. Grimme, J. Chem. Phys., 2017,
     147, 034112. DOI: 10.1063/1.4993215
   * E. Caldeweyher, S. Ehlert, A. Hansen, H. Neugebauer, S. Spicher,
     C. Bannwarth and S. Grimme, J. Chem. Phys., 2019, 150, 154122.
     DOI: 10.1063/1.5090222
   * E. Caldeweyher, J.-M. Mewes, S. Ehlert and S. Grimme, Phys. Chem. Chem. Phys.
     2020, 22, 8499-8512. DOI: 10.1039/D0CP00502A
   
   for sTDA-xTB:
   * S. Grimme and C. Bannwarth, J. Chem. Phys., 2016, 145, 054103.
     DOI: 10.1063/1.4959605
   
   in the mass-spec context:
   * V. Asgeirsson, C. Bauer and S. Grimme, Chem. Sci., 2017, 8, 4879.
     DOI: 10.1039/c7sc00601b
   * J. Koopman and S. Grimme, ACS Omega 2019, 4, 12, 15120-15133.
     DOI: 10.1021/acsomega.9b02011
   
   for metadynamics refer to:
   * S. Grimme, J. Chem. Theory Comput., 2019, 155, 2847-2862
     DOI: 10.1021/acs.jctc.9b00143
   
   for SPH calculations refer to:
   * S. Spicher and S. Grimme, J. Chem. Theory Comput., 2021, 17, 1701-1714
     DOI: 10.1021/acs.jctc.0c01306
   
   with help from (in alphabetical order)
   P. Atkinson, C. Bannwarth, F. Bohle, G. Brandenburg, E. Caldeweyher
   M. Checinski, S. Dohm, S. Ehlert, S. Ehrlich, I. Gerasimov, J. Koopman
   C. Lavigne, S. Lehtola, F. März, M. Müller, F. Musil, H. Neugebauer
   J. Pisarek, C. Plett, P. Pracht, J. Seibert, P. Shushkov, S. Spicher
   M. Stahn, M. Steiner, T. Strunk, J. Stückrath, T. Rose, and J. Unsleber
   
 * started run on 2022/02/11 at 18:52:51.291     

           -------------------------------------------------
          |                Calculation Setup                |
           -------------------------------------------------

          program call               : /ihome/ghutchison/oda6/xtb/xtb-641/bin/xtb ../../GFN2_output/39_104_86_104_43.mol --sp --alpb hexane
          hostname                   : smp-n25
          coordinate file            : ../../GFN2_output/39_104_86_104_43.mol
          omp threads                :                     8
          number of atoms            :                   229
          number of electrons        :                   696
          charge                     :                     0
          spin                       :                   0.0
          first test random number   :      0.82818265603647

   ID    Z sym.   atoms
    1    6 C      1-3, 5-13, 15, 17-47, 49, 50, 52-62, 64-67, 71, 72, 74-84,
                  86, 87, 89, 90, 92, 93, 95-122, 124, 125, 127-129, 131,
                  132, 134-142, 144
    2    8 O      4, 48, 51, 123, 126, 130
    3    7 N      14, 16, 68, 70, 88, 91, 143, 145
    4   16 S      63, 69, 73, 85, 94, 133
    5    1 H      146-229

           -------------------------------------------------
          |                 G F N 2 - x T B                 |
           -------------------------------------------------

        Reference                      10.1021/acs.jctc.8b01176
      * Hamiltonian:
        H0-scaling (s, p, d)           1.850000    2.230000    2.230000
        zeta-weighting                 0.500000
      * Dispersion:
        s8                             2.700000
        a1                             0.520000
        a2                             5.000000
        s9                             5.000000
      * Repulsion:
        kExp                           1.500000    1.000000
        rExp                           1.000000
      * Coulomb:
        alpha                          2.000000
        third order                    shell-resolved
        anisotropic                    true
        a3                             3.000000
        a5                             4.000000
        cn-shift                       1.200000
        cn-exp                         4.000000
        max-rad                        5.000000

      * Solvation model:               ALPB
        Solvent                        hexane
        Parameter file                 internal GFN2-xTB/ALPB
        Dielectric constant                1.8800E+00
        Reference state                gsolv [1 M gas/solution]
        Free energy shift                  4.8134E-03 Eh       3.0204E+00 kcal/mol
        Temperature                        2.9815E+02 K
        Density                            6.6000E-01 kg/L
        Solvent mass                       8.6180E+01 g/mol
        Interaction kernel             P16
        Born radius scaling (c1)           1.1040E+00
        Born radii integrator          GBOBC
        Born offset                        0.0000E+00 a0       0.0000E+00 AA
        H-bond correction              false
        Ion screening                  false
        Surface tension                    1.0000E-05 Eh       1.5569E+01 dyn/cm
        Grid points                               230 per atom

          ...................................................
          :                      SETUP                      :
          :.................................................:
          :  # basis functions                 700          :
          :  # atomic orbitals                 694          :
          :  # shells                          380          :
          :  # electrons                       696          :
          :  max. iterations                   250          :
          :  Hamiltonian                  GFN2-xTB          :
          :  restarted?                      false          :
          :  GBSA solvation                   true          :
          :  PC potential                    false          :
          :  electronic temp.          300.0000000     K    :
          :  accuracy                    1.0000000          :
          :  -> integral cutoff          0.2500000E+02      :
          :  -> integral neglect         0.1000000E-07      :
          :  -> SCF convergence          0.1000000E-05 Eh   :
          :  -> wf. convergence          0.1000000E-03 e    :
          :  Broyden damping             0.4000000          :
          ...................................................

 iter      E             dE          RMSdq      gap      omega  full diag
   1   -383.8591186 -0.383859E+03  0.426E+00    1.09       0.0  T
   2   -384.1075631 -0.248444E+00  0.256E+00    0.72       1.0  T
   3   -383.9604059  0.147157E+00  0.126E+00    0.68       1.0  T
   4   -384.1715940 -0.211188E+00  0.414E-01    0.65       1.0  T
   5   -384.1942914 -0.226975E-01  0.146E-01    0.56       1.0  T
   6   -384.1962210 -0.192959E-02  0.721E-02    0.61       1.0  T
   7   -384.1967728 -0.551804E-03  0.297E-02    0.61       1.0  T
   8   -384.1968440 -0.712135E-04  0.129E-02    0.61       1.0  T
   9   -384.1968566 -0.125363E-04  0.597E-03    0.61       1.1  T
  10   -384.1968586 -0.198430E-05  0.283E-03    0.61       2.3  T
  11   -384.1968592 -0.630916E-06  0.133E-03    0.61       5.0  T
  12   -384.1968593 -0.963124E-07  0.717E-04    0.61       9.2  T
  13   -384.1968593 -0.325042E-07  0.317E-04    0.61      20.8  T

   *** convergence criteria satisfied after 13 iterations ***

         #    Occupation            Energy/Eh            Energy/eV
      -------------------------------------------------------------
         1        2.0000           -0.7530788             -20.4923
       ...           ...                  ...                  ...
       342        2.0000           -0.3897803             -10.6065
       343        2.0000           -0.3797807             -10.3344
       344        2.0000           -0.3780175             -10.2864
       345        2.0000           -0.3699631             -10.0672
       346        2.0000           -0.3696758             -10.0594
       347        2.0000           -0.3658322              -9.9548
       348        2.0000           -0.3566758              -9.7056 (HOMO)
       349        0.0000           -0.3344318              -9.1004 (LUMO)
       350                         -0.3258763              -8.8675
       351                         -0.3181599              -8.6576
       352                         -0.3129160              -8.5149
       353                         -0.2964955              -8.0681
       ...                                ...                  ...
       694                          1.1588965              31.5352
      -------------------------------------------------------------
                  HL-Gap            0.0222440 Eh            0.6053 eV
             Fermi-level           -0.3455538 Eh           -9.4030 eV

 SCC (total)                   0 d,  0 h,  0 min,  0.862 sec
 SCC setup                      ...        0 min,  0.010 sec (  1.165%)
 Dispersion                     ...        0 min,  0.013 sec (  1.556%)
 classical contributions        ...        0 min,  0.000 sec (  0.055%)
 integral evaluation            ...        0 min,  0.043 sec (  4.966%)
 iterations                     ...        0 min,  0.609 sec ( 70.676%)
 molecular gradient             ...        0 min,  0.182 sec ( 21.110%)
 printout                       ...        0 min,  0.004 sec (  0.459%)

         :::::::::::::::::::::::::::::::::::::::::::::::::::::
         ::                     SUMMARY                     ::
         :::::::::::::::::::::::::::::::::::::::::::::::::::::
         :: total energy            -377.923568941825 Eh    ::
         :: total w/o Gsasa/hb      -377.799834722526 Eh    ::
         :: gradient norm              0.021149392536 Eh/a0 ::
         :: HOMO-LUMO gap              0.605289923961 eV    ::
         ::.................................................::
         :: SCC energy              -384.196859319370 Eh    ::
         :: -> isotropic ES            0.190028015950 Eh    ::
         :: -> anisotropic ES          0.022623849348 Eh    ::
         :: -> anisotropic XC          0.211203198629 Eh    ::
         :: -> dispersion             -0.381477609422 Eh    ::
         :: -> Gsolv                  -0.149759962239 Eh    ::
         ::    -> Gelec               -0.026025742940 Eh    ::
         ::    -> Gsasa               -0.128547575119 Eh    ::
         ::    -> Ghb                  0.000000000000 Eh    ::
         ::    -> Gshift               0.004813355820 Eh    ::
         :: repulsion energy           6.259530773352 Eh    ::
         :: add. restraining           0.000000000000 Eh    ::
         :: total charge              -0.000000000927 e     ::
         :::::::::::::::::::::::::::::::::::::::::::::::::::::

           -------------------------------------------------
          |                Property Printout                |
           -------------------------------------------------

    * Orbital Energies and Occupations

         #    Occupation            Energy/Eh            Energy/eV
      -------------------------------------------------------------
         1        2.0000           -0.7530788             -20.4923
       ...           ...                  ...                  ...
       336        2.0000           -0.3993302             -10.8663
       337        2.0000           -0.3987479             -10.8505
       338        2.0000           -0.3971147             -10.8060
       339        2.0000           -0.3938460             -10.7171
       340        2.0000           -0.3929516             -10.6928
       341        2.0000           -0.3921249             -10.6703
       342        2.0000           -0.3897803             -10.6065
       343        2.0000           -0.3797807             -10.3344
       344        2.0000           -0.3780175             -10.2864
       345        2.0000           -0.3699631             -10.0672
       346        2.0000           -0.3696758             -10.0594
       347        2.0000           -0.3658322              -9.9548
       348        2.0000           -0.3566758              -9.7056 (HOMO)
       349        0.0000           -0.3344318              -9.1004 (LUMO)
       350                         -0.3258763              -8.8675
       351                         -0.3181599              -8.6576
       352                         -0.3129160              -8.5149
       353                         -0.2964955              -8.0681
       354                         -0.2874357              -7.8215
       355                         -0.2782675              -7.5720
       356                         -0.2653600              -7.2208
       357                         -0.2618417              -7.1251
       358                         -0.2507046              -6.8220
       359                         -0.2505011              -6.8165
       ...                                ...                  ...
       694                          1.1588965              31.5352
      -------------------------------------------------------------
                  HL-Gap            0.0222440 Eh            0.6053 eV
             Fermi-level           -0.3455538 Eh           -9.4030 eV

     #   Z          covCN         q      C6AA      α(0)
     1   6 C        2.898    -0.021    28.528     8.757
     2   6 C        3.005    -0.024    28.582     8.770
     3   6 C        2.876     0.234    23.116     7.882
     4   8 O        0.856    -0.411    21.912     6.276
     5   6 C        3.054    -0.020    28.445     8.747
     6   6 C        2.904    -0.023    28.585     8.767
     7   6 C        3.259     0.007    26.711     8.353
     8   6 C        3.258     0.012    26.612     8.339
     9   6 C        2.904    -0.033    28.833     8.805
    10   6 C        3.054     0.008    27.781     8.644
    11   6 C        3.013     0.044    26.985     8.521
    12   6 C        2.948     0.013    27.717     8.635
    13   6 C        1.962     0.140    27.656     8.493
    14   7 N        0.911    -0.283    27.311     7.558
    15   6 C        1.965     0.136    27.760     8.509
    16   7 N        0.911    -0.270    26.994     7.514
    17   6 C        4.162    -0.024    20.913     6.495
    18   6 C        4.012    -0.015    20.759     6.473
    19   6 C        2.987    -0.039    28.960     8.828
    20   6 C        2.989    -0.043    29.065     8.844
    21   6 C        4.010    -0.011    20.701     6.463
    22   6 C        3.926    -0.059    21.573     6.601
    23   6 C        4.161    -0.024    20.918     6.496
    24   6 C        3.080     0.130    25.076     8.210
    25   6 C        2.988    -0.054    29.321     8.882
    26   6 C        3.086    -0.017    28.324     8.724
    27   6 C        2.962    -0.011    28.294     8.725
    28   6 C        2.975     0.013    27.730     8.638
    29   6 C        2.924    -0.037    28.917     8.819
    30   6 C        2.923    -0.041    29.009     8.833
    31   6 C        2.971     0.014    27.700     8.633
    32   6 C        3.806    -0.059    21.638     6.622
    33   6 C        3.754    -0.100    22.476     6.760
    34   6 C        2.924    -0.038    28.943     8.822
    35   6 C        2.922    -0.031    28.765     8.795
    36   6 C        3.104     0.120    25.250     8.234
    37   6 C        3.090    -0.010    28.168     8.699
    38   6 C        2.962    -0.015    28.378     8.738
    39   6 C        2.977     0.010    27.794     8.648
    40   6 C        2.924    -0.036    28.901     8.816
    41   6 C        2.924    -0.040    29.001     8.831
    42   6 C        2.970     0.014    27.703     8.634
    43   6 C        3.806    -0.059    21.632     6.621
    44   6 C        3.753    -0.102    22.514     6.766
    45   6 C        2.924    -0.039    28.974     8.827
    46   6 C        2.922    -0.036    28.885     8.814
    47   6 C        3.118     0.123    25.141     8.212
    48   8 O        1.720    -0.232    17.839     5.703
    49   6 C        2.985    -0.075    29.875     8.966
    50   6 C        3.145     0.130    24.915     8.167
    51   8 O        1.720    -0.227    17.761     5.690
    52   6 C        2.996    -0.000    28.026     8.684
    53   6 C        3.096     0.001    27.876     8.653
    54   6 C        2.973     0.014    27.686     8.631
    55   6 C        2.925    -0.038    28.935     8.821
    56   6 C        2.918    -0.030    28.748     8.792
    57   6 C        2.925    -0.036    28.903     8.817
    58   6 C        2.971     0.016    27.652     8.626
    59   6 C        3.807    -0.059    21.631     6.621
    60   6 C        3.754    -0.096    22.393     6.748
    61   6 C        2.932    -0.036    28.892     8.815
    62   6 C        3.170     0.007    27.487     8.565
    63  16 S        2.206    -0.049   143.088    20.133
    64   6 C        3.099     0.000    27.902     8.656
    65   6 C        3.071    -0.036    28.823     8.803
    66   6 C        3.332     0.070    24.178     7.796
    67   6 C        3.331     0.071    24.164     7.797
    68   7 N        1.853    -0.294    28.468     7.908
    69  16 S        2.672     0.322   128.627    19.088
    70   7 N        1.852    -0.294    28.471     7.908
    71   6 C        3.079    -0.041    28.933     8.818
    72   6 C        3.096    -0.001    27.935     8.662
    73  16 S        2.197    -0.055   143.316    20.149
    74   6 C        3.190     0.008    27.359     8.532
    75   6 C        3.104    -0.005    28.003     8.671
    76   6 C        2.973     0.010    27.801     8.649
    77   6 C        2.925    -0.042    29.037     8.837
    78   6 C        2.917    -0.032    28.800     8.800
    79   6 C        2.925    -0.039    28.979     8.828
    80   6 C        2.970     0.016    27.640     8.624
    81   6 C        3.807    -0.061    21.672     6.627
    82   6 C        3.754    -0.100    22.471     6.759
    83   6 C        2.931    -0.041    29.027     8.836
    84   6 C        2.998     0.000    28.009     8.682
    85  16 S        2.316    -0.040   142.727    20.107
    86   6 C        3.130     0.002    27.779     8.629
    87   6 C        3.279     0.026    26.016     8.209
    88   7 N        2.796    -0.028    21.791     6.933
    89   6 C        3.102     0.027    27.271     8.557
    90   6 C        3.107     0.029    27.223     8.549
    91   7 N        2.792    -0.048    22.157     6.991
    92   6 C        3.273     0.029    26.035     8.223
    93   6 C        3.136     0.008    27.628     8.604
    94  16 S        2.275    -0.057   143.425    20.157
    95   6 C        3.740    -0.000    20.659     6.485
    96   6 C        3.752    -0.114    22.733     6.799
    97   6 C        3.743    -0.006    20.762     6.500
    98   6 C        3.752    -0.116    22.791     6.808
    99   6 C        3.153     0.127    24.954     8.170
   100   6 C        2.977    -0.073    29.815     8.957
   101   6 C        3.086    -0.015    28.281     8.717
   102   6 C        2.961    -0.018    28.453     8.749
   103   6 C        2.975     0.011    27.761     8.643
   104   6 C        2.923    -0.037    28.922     8.819
   105   6 C        2.924    -0.040    28.996     8.831
   106   6 C        2.971     0.014    27.697     8.633
   107   6 C        3.806    -0.060    21.645     6.623
   108   6 C        3.754    -0.100    22.475     6.760
   109   6 C        2.924    -0.038    28.941     8.822
   110   6 C        2.924    -0.033    28.814     8.803
   111   6 C        3.092     0.123    25.194     8.227
   112   6 C        3.089    -0.018    28.344     8.727
   113   6 C        2.961    -0.010    28.272     8.721
   114   6 C        2.974     0.010    27.783     8.646
   115   6 C        2.924    -0.036    28.892     8.815
   116   6 C        2.923    -0.039    28.971     8.827
   117   6 C        2.970     0.014    27.702     8.633
   118   6 C        3.806    -0.060    21.646     6.623
   119   6 C        3.753    -0.097    22.419     6.752
   120   6 C        2.923    -0.039    28.971     8.827
   121   6 C        2.922    -0.034    28.839     8.806
   122   6 C        3.093     0.117    25.320     8.247
   123   8 O        1.724    -0.224    17.706     5.681
   124   6 C        2.983    -0.048    29.183     8.861
   125   6 C        3.062     0.131    25.083     8.213
   126   8 O        1.720    -0.227    17.754     5.689
   127   6 C        2.894    -0.017    28.440     8.744
   128   6 C        3.016    -0.036    28.875     8.815
   129   6 C        2.875     0.235    23.100     7.879
   130   8 O        0.856    -0.416    22.000     6.289
   131   6 C        3.192    -0.033    28.307     8.677
   132   6 C        3.067     0.025    27.384     8.581
   133  16 S        2.206     0.003   140.937    19.981
   134   6 C        3.018     0.033    27.245     8.562
   135   6 C        2.931    -0.036    28.890     8.815
   136   6 C        2.923    -0.025    28.637     8.776
   137   6 C        2.918    -0.026    28.640     8.776
   138   6 C        2.913    -0.022    28.544     8.761
   139   6 C        3.100     0.013    27.608     8.611
   140   6 C        3.028     0.036    27.157     8.548
   141   6 C        2.948     0.011    27.771     8.643
   142   6 C        1.929     0.132    27.875     8.526
   143   7 N        0.911    -0.260    26.743     7.479
   144   6 C        1.937     0.131    27.881     8.527
   145   7 N        0.911    -0.253    26.583     7.457
   146   1 H        0.925     0.087     1.911     2.162
   147   1 H        0.926     0.058     2.227     2.334
   148   1 H        0.926     0.058     2.222     2.331
   149   1 H        0.925     0.052     2.291     2.367
   150   1 H        0.925     0.043     2.410     2.428
   151   1 H        0.926     0.035     2.519     2.482
   152   1 H        0.926     0.016     2.794     2.614
   153   1 H        0.925     0.031     2.575     2.510
   154   1 H        0.925     0.042     2.423     2.434
   155   1 H        0.925     0.045     2.383     2.414
   156   1 H        0.925     0.049     2.336     2.390
   157   1 H        0.926     0.066     2.134     2.285
   158   1 H        0.926     0.038     2.479     2.462
   159   1 H        0.926     0.036     2.505     2.475
   160   1 H        0.924     0.040     2.451     2.448
   161   1 H        0.924     0.039     2.459     2.452
   162   1 H        0.925     0.039     2.459     2.452
   163   1 H        0.925     0.037     2.491     2.468
   164   1 H        0.925     0.038     2.478     2.462
   165   1 H        0.926     0.038     2.481     2.463
   166   1 H        0.926     0.040     2.452     2.449
   167   1 H        0.926     0.030     2.580     2.512
   168   1 H        0.926     0.033     2.541     2.493
   169   1 H        0.924     0.039     2.460     2.453
   170   1 H        0.924     0.040     2.454     2.450
   171   1 H        0.925     0.052     2.296     2.370
   172   1 H        0.925     0.037     2.483     2.464
   173   1 H        0.925     0.029     2.597     2.520
   174   1 H        0.926     0.038     2.472     2.459
   175   1 H        0.926     0.040     2.449     2.447
   176   1 H        0.926     0.056     2.249     2.345
   177   1 H        0.926     0.046     2.368     2.407
   178   1 H        0.926     0.037     2.494     2.469
   179   1 H        0.926     0.036     2.500     2.473
   180   1 H        0.924     0.040     2.451     2.448
   181   1 H        0.924     0.039     2.463     2.454
   182   1 H        0.925     0.035     2.510     2.478
   183   1 H        0.925     0.033     2.543     2.494
   184   1 H        0.925     0.038     2.474     2.459
   185   1 H        0.926     0.034     2.528     2.487
   186   1 H        0.926     0.034     2.536     2.490
   187   1 H        0.926     0.036     2.499     2.472
   188   1 H        0.926     0.037     2.483     2.464
   189   1 H        0.924     0.043     2.406     2.426
   190   1 H        0.924     0.041     2.434     2.440
   191   1 H        0.925     0.037     2.493     2.469
   192   1 H        0.925     0.040     2.452     2.449
   193   1 H        0.925     0.037     2.495     2.470
   194   1 H        0.926     0.044     2.398     2.422
   195   1 H        0.924     0.064     2.152     2.294
   196   1 H        0.925     0.072     2.060     2.244
   197   1 H        0.925     0.056     2.249     2.345
   198   1 H        0.925     0.051     2.304     2.374
   199   1 H        0.925     0.048     2.349     2.397
   200   1 H        0.924     0.068     2.103     2.268
   201   1 H        0.925     0.070     2.089     2.260
   202   1 H        0.925     0.057     2.233     2.337
   203   1 H        0.925     0.048     2.348     2.396
   204   1 H        0.925     0.059     2.212     2.326
   205   1 H        0.927     0.056     2.242     2.342
   206   1 H        0.926     0.036     2.502     2.474
   207   1 H        0.926     0.035     2.518     2.481
   208   1 H        0.924     0.039     2.460     2.453
   209   1 H        0.924     0.038     2.470     2.458
   210   1 H        0.925     0.038     2.471     2.458
   211   1 H        0.925     0.040     2.453     2.449
   212   1 H        0.925     0.037     2.488     2.467
   213   1 H        0.926     0.037     2.493     2.469
   214   1 H        0.926     0.037     2.495     2.470
   215   1 H        0.926     0.046     2.373     2.409
   216   1 H        0.926     0.037     2.486     2.466
   217   1 H        0.924     0.030     2.582     2.513
   218   1 H        0.924     0.046     2.372     2.408
   219   1 H        0.925     0.038     2.480     2.463
   220   1 H        0.925     0.038     2.476     2.461
   221   1 H        0.925     0.037     2.488     2.467
   222   1 H        0.926     0.044     2.392     2.418
   223   1 H        0.926     0.041     2.435     2.440
   224   1 H        0.927     0.090     1.882     2.145
   225   1 H        0.925     0.085     1.933     2.174
   226   1 H        0.926     0.053     2.282     2.363
   227   1 H        0.926     0.052     2.296     2.369
   228   1 H        0.926     0.060     2.205     2.322
   229   1 H        0.926     0.068     2.107     2.270

 Mol. C6AA /au·bohr⁶  :     833744.455249
 Mol. C8AA /au·bohr⁸  :   22355429.476777
 Mol. α(0) /au        :       1454.862618


Wiberg/Mayer (AO) data.
largest (>0.10) Wiberg bond orders for each atom

 ---------------------------------------------------------------------------
     #   Z sym  total        # sym  WBO       # sym  WBO       # sym  WBO
 ---------------------------------------------------------------------------
     1   6 C    3.942 --     2 C    1.574    24 C    1.205   146 H    0.952
     2   6 C    3.946 --     1 C    1.574    11 C    1.123     3 C    1.013
     3   6 C    3.912 --     4 O    1.743     5 C    1.034     2 C    1.013
     4   8 O    2.019 --     3 C    1.743
     5   6 C    3.969 --     6 C    1.375    10 C    1.305     3 C    1.034
     6   6 C    3.982 --     7 C    1.448     5 C    1.375   147 H    0.958
     7   6 C    3.957 --     6 C    1.448     8 C    1.323    23 C    0.997
     8   6 C    3.965 --     9 C    1.451     7 C    1.323    17 C    0.995
     9   6 C    3.978 --     8 C    1.451    10 C    1.367   148 H    0.959
    10   6 C    3.976 --     9 C    1.367     5 C    1.305    11 C    1.082
    11   6 C    3.968 --    12 C    1.493     2 C    1.123    10 C    1.082
    12   6 C    3.966 --    11 C    1.493    13 C    1.096    15 C    1.096
    13   6 C    3.940 --    14 N    2.737    12 C    1.096
    14   7 N    2.964 --    13 C    2.737
    15   6 C    3.941 --    16 N    2.747    12 C    1.096
    16   7 N    2.964 --    15 C    2.747
    17   6 C    3.984 --     8 C    0.995    23 C    0.978   149 H    0.959
                            18 C    0.948
    18   6 C    3.989 --    19 C    1.010    22 C    0.985   150 H    0.972
                            17 C    0.948
    19   6 C    3.987 --    20 C    1.922    18 C    1.010   151 H    0.971
    20   6 C    3.987 --    19 C    1.922    21 C    1.011   152 H    0.965
    21   6 C    3.989 --    20 C    1.011    22 C    0.985   153 H    0.971
                            23 C    0.945
    22   6 C    3.992 --    18 C    0.985    21 C    0.985   155 H    0.977
                           154 H    0.976
    23   6 C    3.984 --     7 C    0.997    17 C    0.978   156 H    0.960
                            21 C    0.945
    24   6 C    3.893 --    25 C    1.461     1 C    1.205    48 O    1.057
    25   6 C    3.957 --    24 C    1.461    26 C    1.275   157 H    0.969
    26   6 C    3.965 --    25 C    1.275    27 C    1.259    47 C    1.229
    27   6 C    3.951 --    36 C    1.374    26 C    1.259    28 C    1.065
    28   6 C    3.985 --    35 C    1.376    29 C    1.373    27 C    1.065
    29   6 C    3.983 --    30 C    1.461    28 C    1.373   158 H    0.968
                            34 C    0.104
    30   6 C    3.990 --    29 C    1.461    31 C    1.401   159 H    0.968
                            35 C    0.104
    31   6 C    3.974 --    34 C    1.403    30 C    1.401    32 C    1.014
    32   6 C    3.997 --    31 C    1.014    33 C    1.000   161 H    0.974
                           160 H    0.974
    33   6 C    3.994 --    32 C    1.000   163 H    0.988   164 H    0.988
                           162 H    0.986
    34   6 C    3.990 --    35 C    1.460    31 C    1.403   165 H    0.967
                            29 C    0.104
    35   6 C    3.982 --    34 C    1.460    28 C    1.376   166 H    0.967
                            30 C    0.104
    36   6 C    3.907 --    27 C    1.374    37 C    1.225    51 O    1.069
    37   6 C    3.960 --    38 C    1.280    49 C    1.255    36 C    1.225
    38   6 C    3.956 --    47 C    1.367    37 C    1.280    39 C    1.050
    39   6 C    3.987 --    46 C    1.385    40 C    1.379    38 C    1.050
                            42 C    0.101
    40   6 C    3.985 --    41 C    1.462    39 C    1.379   167 H    0.970
                            45 C    0.105
    41   6 C    3.991 --    40 C    1.462    42 C    1.400   168 H    0.968
                            46 C    0.106
    42   6 C    3.978 --    45 C    1.408    41 C    1.400    43 C    1.014
                            39 C    0.101
    43   6 C    3.997 --    42 C    1.014    44 C    1.001   170 H    0.976
                           169 H    0.969
    44   6 C    3.992 --    43 C    1.001   173 H    0.988   172 H    0.986
                           171 H    0.979
    45   6 C    3.990 --    46 C    1.453    42 C    1.408   174 H    0.968
                            40 C    0.105
    46   6 C    3.987 --    45 C    1.453    39 C    1.385   175 H    0.967
                            41 C    0.106
    47   6 C    3.906 --    38 C    1.367    26 C    1.229    48 O    1.070
    48   8 O    2.366 --    47 C    1.070    24 C    1.057
    49   6 C    3.942 --    50 C    1.498    37 C    1.255   176 H    0.967
    50   6 C    3.880 --    49 C    1.498    52 C    1.151    51 O    1.061
    51   8 O    2.362 --    36 C    1.069    50 C    1.061
    52   6 C    3.904 --    53 C    1.428    50 C    1.151    94 S    1.078
    53   6 C    3.959 --    52 C    1.428    62 C    1.250    54 C    1.065
    54   6 C    3.987 --    61 C    1.377    55 C    1.376    53 C    1.065
    55   6 C    3.982 --    56 C    1.448    54 C    1.376   177 H    0.961
                            58 C    0.102
    56   6 C    3.991 --    55 C    1.448    57 C    1.438   178 H    0.970
                            61 C    0.104
    57   6 C    3.979 --    56 C    1.438    58 C    1.400   179 H    0.969
    58   6 C    3.987 --    61 C    1.429    57 C    1.400    59 C    1.012
                            55 C    0.102
    59   6 C    3.997 --    58 C    1.012    60 C    1.000   180 H    0.975
                           181 H    0.974
    60   6 C    3.996 --    59 C    1.000   183 H    0.988   182 H    0.987
                           184 H    0.986
    61   6 C    3.987 --    58 C    1.429    54 C    1.377   185 H    0.967
                            56 C    0.104
    62   6 C    3.922 --    93 C    1.359    53 C    1.250    63 S    1.086
    63  16 S    2.501 --    64 C    1.100    62 C    1.086
    64   6 C    3.922 --    92 C    1.328    65 C    1.247    63 S    1.100
    65   6 C    3.958 --    90 C    1.288    64 C    1.247    66 C    1.172
    66   6 C    3.972 --    70 N    1.435    65 C    1.172    67 C    1.150
                            69 S    0.108
    67   6 C    3.971 --    68 N    1.438    71 C    1.168    66 C    1.150
                            69 S    0.106
    68   7 N    3.066 --    67 C    1.438    69 S    1.376    70 N    0.141
    69  16 S    3.088 --    70 N    1.378    68 N    1.376    66 C    0.108
                            67 C    0.106
    70   7 N    3.064 --    66 C    1.435    69 S    1.378    68 N    0.141
    71   6 C    3.953 --    89 C    1.280    72 C    1.257    67 C    1.168
    72   6 C    3.930 --    87 C    1.325    71 C    1.257    73 S    1.101
    73  16 S    2.499 --    72 C    1.101    74 C    1.088
    74   6 C    3.925 --    86 C    1.375    75 C    1.234    73 S    1.088
    75   6 C    3.969 --    84 C    1.490    74 C    1.234    76 C    1.045
    76   6 C    3.988 --    83 C    1.390    77 C    1.382    75 C    1.045
                            79 C    0.102
    77   6 C    3.988 --    78 C    1.448    76 C    1.382   186 H    0.967
                            80 C    0.105
    78   6 C    3.991 --    77 C    1.448    79 C    1.440   187 H    0.970
                            83 C    0.106
    79   6 C    3.984 --    78 C    1.440    80 C    1.405   188 H    0.969
                            76 C    0.102
    80   6 C    3.987 --    83 C    1.421    79 C    1.405    81 C    1.012
                            77 C    0.105
    81   6 C    3.996 --    80 C    1.012    82 C    1.000   190 H    0.974
                           189 H    0.973
    82   6 C    3.996 --    81 C    1.000   193 H    0.988   191 H    0.988
                           192 H    0.986
    83   6 C    3.989 --    80 C    1.421    76 C    1.390   194 H    0.964
                            78 C    0.106
    84   6 C    3.909 --    75 C    1.490    85 S    1.095    99 C    1.079
    85  16 S    2.571 --    86 C    1.122    84 C    1.095
    86   6 C    3.938 --    74 C    1.375    87 C    1.226    85 S    1.122
    87   6 C    3.939 --    72 C    1.325    86 C    1.226    88 N    1.160
    88   7 N    3.565 --    89 C    1.173    87 C    1.160    97 C    0.980
    89   6 C    3.941 --    71 C    1.280    90 C    1.215    88 N    1.173
    90   6 C    3.933 --    65 C    1.288    89 C    1.215    91 N    1.157
    91   7 N    3.529 --    90 C    1.157    92 C    1.141    95 C    0.974
    92   6 C    3.941 --    64 C    1.328    93 C    1.244    91 N    1.141
    93   6 C    3.929 --    62 C    1.359    92 C    1.244    94 S    1.110
    94  16 S    2.515 --    93 C    1.110    52 C    1.078
    95   6 C    3.960 --    96 C    1.005    91 N    0.974   196 H    0.965
                           195 H    0.964
    96   6 C    3.987 --    95 C    1.005   199 H    0.987   198 H    0.985
                           197 H    0.982
    97   6 C    3.959 --    98 C    1.008    88 N    0.980   201 H    0.963
                           200 H    0.959
    98   6 C    3.987 --    97 C    1.008   202 H    0.983   204 H    0.983
                           203 H    0.981
    99   6 C    3.877 --   100 C    1.567    84 C    1.079   123 O    1.059
   100   6 C    3.963 --    99 C    1.567   101 C    1.226   205 H    0.966
   101   6 C    3.956 --   102 C    1.291   122 C    1.238   100 C    1.226
   102   6 C    3.955 --   111 C    1.356   101 C    1.291   103 C    1.056
   103   6 C    3.987 --   104 C    1.380   110 C    1.380   102 C    1.056
                           106 C    0.100
   104   6 C    3.987 --   105 C    1.458   103 C    1.380   206 H    0.968
                           109 C    0.105
   105   6 C    3.991 --   104 C    1.458   106 C    1.404   207 H    0.968
                           110 C    0.105
   106   6 C    3.977 --   105 C    1.404   109 C    1.403   107 C    1.014
                           103 C    0.100
   107   6 C    3.997 --   106 C    1.014   108 C    1.000   209 H    0.974
                           208 H    0.974
   108   6 C    3.994 --   107 C    1.000   212 H    0.988   211 H    0.988
                           210 H    0.986
   109   6 C    3.990 --   110 C    1.460   106 C    1.403   213 H    0.968
                           104 C    0.105
   110   6 C    3.985 --   109 C    1.460   103 C    1.380   214 H    0.969
                           105 C    0.105
   111   6 C    3.908 --   102 C    1.356   112 C    1.221   126 O    1.089
   112   6 C    3.972 --   124 C    1.288   113 C    1.261   111 C    1.221
   113   6 C    3.952 --   122 C    1.363   112 C    1.261   114 C    1.071
   114   6 C    3.984 --   121 C    1.374   115 C    1.368   113 C    1.071
   115   6 C    3.982 --   116 C    1.463   114 C    1.368   215 H    0.966
                           120 C    0.103
   116   6 C    3.990 --   115 C    1.463   117 C    1.401   216 H    0.968
                           121 C    0.103
   117   6 C    3.971 --   116 C    1.401   120 C    1.401   118 C    1.014
   118   6 C    3.996 --   117 C    1.014   119 C    0.999   217 H    0.973
                           218 H    0.964
   119   6 C    3.994 --   118 C    0.999   220 H    0.988   219 H    0.988
                           221 H    0.986
   120   6 C    3.989 --   121 C    1.462   117 C    1.401   222 H    0.966
                           115 C    0.103
   121   6 C    3.972 --   120 C    1.462   114 C    1.374   223 H    0.968
                           116 C    0.103
   122   6 C    3.912 --   113 C    1.363   101 C    1.238   123 O    1.078
   123   8 O    2.373 --   122 C    1.078    99 C    1.059
   124   6 C    3.942 --   125 C    1.450   112 C    1.288   224 H    0.954
   125   6 C    3.898 --   124 C    1.450   127 C    1.228   126 O    1.047
   126   8 O    2.365 --   111 C    1.089   125 C    1.047
   127   6 C    3.942 --   128 C    1.554   125 C    1.228   225 H    0.943
   128   6 C    3.944 --   127 C    1.554   140 C    1.120   129 C    1.020
   129   6 C    3.921 --   130 O    1.720   131 C    1.044   128 C    1.020
   130   8 O    2.024 --   129 C    1.720
   131   6 C    3.961 --   132 C    1.418   139 C    1.201   129 C    1.044
   132   6 C    3.947 --   131 C    1.418   133 S    1.169   140 C    1.134
   133  16 S    2.612 --   132 C    1.169   134 C    1.091
   134   6 C    3.942 --   135 C    1.388   139 C    1.270   133 S    1.091
   135   6 C    3.987 --   136 C    1.467   134 C    1.388   226 H    0.967
                           138 C    0.109
   136   6 C    3.966 --   135 C    1.467   137 C    1.380   227 H    0.969
   137   6 C    3.986 --   138 C    1.496   136 C    1.380   228 H    0.968
   138   6 C    3.971 --   137 C    1.496   139 C    1.319   229 H    0.964
                           135 C    0.109
   139   6 C    3.984 --   138 C    1.319   134 C    1.270   131 C    1.201
   140   6 C    3.971 --   141 C    1.460   132 C    1.134   128 C    1.120
   141   6 C    3.938 --   140 C    1.460   142 C    1.106   144 C    1.099
   142   6 C    3.944 --   143 N    2.751   141 C    1.106
   143   7 N    2.949 --   142 C    2.751
   144   6 C    3.944 --   145 N    2.761   141 C    1.099
   145   7 N    2.966 --   144 C    2.761
   146   1 H    0.990 --     1 C    0.952
   147   1 H    0.996 --     6 C    0.958
   148   1 H    0.996 --     9 C    0.959
   149   1 H    0.996 --    17 C    0.959
   150   1 H    0.998 --    18 C    0.972
   151   1 H    0.999 --    19 C    0.971
   152   1 H    1.000 --    20 C    0.965
   153   1 H    0.999 --    21 C    0.971
   154   1 H    0.996 --    22 C    0.976
   155   1 H    0.998 --    22 C    0.977
   156   1 H    0.996 --    23 C    0.960
   157   1 H    0.995 --    25 C    0.969
   158   1 H    0.998 --    29 C    0.968
   159   1 H    0.998 --    30 C    0.968
   160   1 H    0.998 --    32 C    0.974
   161   1 H    0.998 --    32 C    0.974
   162   1 H    0.997 --    33 C    0.986
   163   1 H    0.999 --    33 C    0.988
   164   1 H    0.999 --    33 C    0.988
   165   1 H    0.998 --    34 C    0.967
   166   1 H    0.998 --    35 C    0.967
   167   1 H    0.999 --    40 C    0.970
   168   1 H    0.998 --    41 C    0.968
   169   1 H    0.997 --    43 C    0.969
   170   1 H    0.998 --    43 C    0.976
   171   1 H    0.997 --    44 C    0.979
   172   1 H    0.998 --    44 C    0.986
   173   1 H    0.999 --    44 C    0.988
   174   1 H    0.998 --    45 C    0.968
   175   1 H    0.998 --    46 C    0.967
   176   1 H    0.996 --    49 C    0.967
   177   1 H    0.997 --    55 C    0.961
   178   1 H    0.997 --    56 C    0.970
   179   1 H    0.998 --    57 C    0.969
   180   1 H    0.998 --    59 C    0.975
   181   1 H    0.998 --    59 C    0.974
   182   1 H    0.999 --    60 C    0.987
   183   1 H    0.999 --    60 C    0.988
   184   1 H    0.998 --    60 C    0.986
   185   1 H    0.999 --    61 C    0.967
   186   1 H    0.998 --    77 C    0.967
   187   1 H    0.998 --    78 C    0.970
   188   1 H    0.998 --    79 C    0.969
   189   1 H    0.998 --    81 C    0.973
   190   1 H    0.998 --    81 C    0.974
   191   1 H    0.999 --    82 C    0.988
   192   1 H    0.997 --    82 C    0.986
   193   1 H    0.999 --    82 C    0.988
   194   1 H    0.998 --    83 C    0.964
   195   1 H    0.994 --    95 C    0.964
   196   1 H    0.994 --    95 C    0.965
   197   1 H    0.996 --    96 C    0.982
   198   1 H    0.997 --    96 C    0.985
   199   1 H    0.998 --    96 C    0.987
   200   1 H    0.994 --    97 C    0.959
   201   1 H    0.994 --    97 C    0.963
   202   1 H    0.997 --    98 C    0.983
   203   1 H    0.998 --    98 C    0.981
   204   1 H    0.996 --    98 C    0.983
   205   1 H    0.996 --   100 C    0.966
   206   1 H    0.998 --   104 C    0.968
   207   1 H    0.998 --   105 C    0.968
   208   1 H    0.998 --   107 C    0.974
   209   1 H    0.998 --   107 C    0.974
   210   1 H    0.998 --   108 C    0.986
   211   1 H    0.998 --   108 C    0.988
   212   1 H    0.999 --   108 C    0.988
   213   1 H    0.998 --   109 C    0.968
   214   1 H    0.998 --   110 C    0.969
   215   1 H    0.997 --   115 C    0.966
   216   1 H    0.998 --   116 C    0.968
   217   1 H    0.998 --   118 C    0.973
   218   1 H    0.997 --   118 C    0.964
   219   1 H    0.998 --   119 C    0.988
   220   1 H    0.998 --   119 C    0.988
   221   1 H    0.998 --   119 C    0.986
   222   1 H    0.997 --   120 C    0.966
   223   1 H    0.998 --   121 C    0.968
   224   1 H    0.991 --   124 C    0.954
   225   1 H    0.991 --   127 C    0.943
   226   1 H    0.997 --   135 C    0.967
   227   1 H    0.997 --   136 C    0.969
   228   1 H    0.995 --   137 C    0.968
   229   1 H    0.995 --   138 C    0.964
 ---------------------------------------------------------------------------

Topologies differ in bond orders
Writing corrected topology to xtbtopo.mol

molecular dipole:
                 x           y           z       tot (Debye)
 q only:        2.436       1.890      -0.050
   full:        2.002       2.512      -0.208       8.181
molecular quadrupole (traceless):
                xx          xy          yy          xz          yz          zz
 q only:      -60.042     -14.459      45.392      56.634      -2.312      14.651
  q+dip:      -62.315     -20.063      59.761      76.386     -10.136       2.553
   full:      -60.449     -14.218      60.791      81.599      -2.976      -0.342


           -------------------------------------------------
          | TOTAL ENERGY             -377.923568941825 Eh   |
          | GRADIENT NORM               0.021149392536 Eh/α |
          | HOMO-LUMO GAP               0.605289923961 eV   |
           -------------------------------------------------

------------------------------------------------------------------------
 * finished run on 2022/02/11 at 18:52:52.264     
------------------------------------------------------------------------
 total:
 * wall-time:     0 d,  0 h,  0 min,  0.973 sec
 *  cpu-time:     0 d,  0 h,  0 min,  7.681 sec
 * ratio c/w:     7.896 speedup
 SCF:
 * wall-time:     0 d,  0 h,  0 min,  0.865 sec
 *  cpu-time:     0 d,  0 h,  0 min,  6.904 sec
 * ratio c/w:     7.984 speedup

