      -----------------------------------------------------------      
     |                   =====================                   |     
     |                           x T B                           |     
     |                   =====================                   |     
     |                         S. Grimme                         |     
     |          Mulliken Center for Theoretical Chemistry        |     
     |                    University of Bonn                     |     
      -----------------------------------------------------------      

   * xtb version 6.4.1 (unknown) compiled by 'oda6@login1.crc.pitt.edu' on 2021-06-25

   xtb is free software: you can redistribute it and/or modify it under
   the terms of the GNU Lesser General Public License as published by
   the Free Software Foundation, either version 3 of the License, or
   (at your option) any later version.
   
   xtb is distributed in the hope that it will be useful,
   but WITHOUT ANY WARRANTY; without even the implied warranty of
   MERCHANTABILITY or FITNESS FOR A PARTICULAR PURPOSE.  See the
   GNU Lesser General Public License for more details.
   
   Cite this work as:
   * C. Bannwarth, E. Caldeweyher, S. Ehlert, A. Hansen, P. Pracht,
     J. Seibert, S. Spicher, S. Grimme, WIREs Comput. Mol. Sci., 2020, 11,
     e01493. DOI: 10.1002/wcms.1493
   
   for GFN2-xTB:
   * C. Bannwarth, S. Ehlert and S. Grimme., J. Chem. Theory Comput., 2019,
     15, 1652-1671. DOI: 10.1021/acs.jctc.8b01176
   for GFN1-xTB:
   * S. Grimme, C. Bannwarth, P. Shushkov, J. Chem. Theory Comput., 2017,
     13, 1989-2009. DOI: 10.1021/acs.jctc.7b00118
   for GFN0-xTB:
   * P. Pracht, E. Caldeweyher, S. Ehlert, S. Grimme, ChemRxiv, 2019, preprint.
     DOI: 10.26434/chemrxiv.8326202.v1
   for GFN-FF:
   * S. Spicher and S. Grimme, Angew. Chem. Int. Ed., 2020, 59, 15665-15673.
     DOI: 10.1002/anie.202004239
   
   for DFT-D4:
   * E. Caldeweyher, C. Bannwarth and S. Grimme, J. Chem. Phys., 2017,
     147, 034112. DOI: 10.1063/1.4993215
   * E. Caldeweyher, S. Ehlert, A. Hansen, H. Neugebauer, S. Spicher,
     C. Bannwarth and S. Grimme, J. Chem. Phys., 2019, 150, 154122.
     DOI: 10.1063/1.5090222
   * E. Caldeweyher, J.-M. Mewes, S. Ehlert and S. Grimme, Phys. Chem. Chem. Phys.
     2020, 22, 8499-8512. DOI: 10.1039/D0CP00502A
   
   for sTDA-xTB:
   * S. Grimme and C. Bannwarth, J. Chem. Phys., 2016, 145, 054103.
     DOI: 10.1063/1.4959605
   
   in the mass-spec context:
   * V. Asgeirsson, C. Bauer and S. Grimme, Chem. Sci., 2017, 8, 4879.
     DOI: 10.1039/c7sc00601b
   * J. Koopman and S. Grimme, ACS Omega 2019, 4, 12, 15120-15133.
     DOI: 10.1021/acsomega.9b02011
   
   for metadynamics refer to:
   * S. Grimme, J. Chem. Theory Comput., 2019, 155, 2847-2862
     DOI: 10.1021/acs.jctc.9b00143
   
   for SPH calculations refer to:
   * S. Spicher and S. Grimme, J. Chem. Theory Comput., 2021, 17, 1701-1714
     DOI: 10.1021/acs.jctc.0c01306
   
   with help from (in alphabetical order)
   P. Atkinson, C. Bannwarth, F. Bohle, G. Brandenburg, E. Caldeweyher
   M. Checinski, S. Dohm, S. Ehlert, S. Ehrlich, I. Gerasimov, J. Koopman
   C. Lavigne, S. Lehtola, F. März, M. Müller, F. Musil, H. Neugebauer
   J. Pisarek, C. Plett, P. Pracht, J. Seibert, P. Shushkov, S. Spicher
   M. Stahn, M. Steiner, T. Strunk, J. Stückrath, T. Rose, and J. Unsleber
   
 * started run on 2022/02/13 at 06:17:48.169     

           -------------------------------------------------
          |                Calculation Setup                |
           -------------------------------------------------

          program call               : /ihome/ghutchison/oda6/xtb/xtb-641/bin/xtb ../../GFN2_output/39_153_86_41_49.mol --sp --alpb hexane
          hostname                   : smp-n25
          coordinate file            : ../../GFN2_output/39_153_86_41_49.mol
          omp threads                :                     8
          number of atoms            :                   168
          number of electrons        :                   558
          charge                     :                     0
          spin                       :                   0.0
          first test random number   :      0.55973958064702

   ID    Z sym.   atoms
    1    6 C      1-3, 5-13, 15, 17-24, 26-28, 30-33, 35-39, 41-52, 54-57,
                  61, 62, 64-74, 76, 77, 79, 80, 82, 83, 85-90, 92, 94, 95,
                  97, 99-101, 103-106, 108-112, 114
    2    8 O      4, 29, 40, 102
    3    7 N      14, 16, 58, 60, 78, 81, 113, 115
    4   16 S      25, 34, 53, 59, 63, 75, 84
    5    9 F      91, 93, 96, 98
    6   35 Br     107
    7    1 H      116-168

           -------------------------------------------------
          |                 G F N 2 - x T B                 |
           -------------------------------------------------

        Reference                      10.1021/acs.jctc.8b01176
      * Hamiltonian:
        H0-scaling (s, p, d)           1.850000    2.230000    2.230000
        zeta-weighting                 0.500000
      * Dispersion:
        s8                             2.700000
        a1                             0.520000
        a2                             5.000000
        s9                             5.000000
      * Repulsion:
        kExp                           1.500000    1.000000
        rExp                           1.000000
      * Coulomb:
        alpha                          2.000000
        third order                    shell-resolved
        anisotropic                    true
        a3                             3.000000
        a5                             4.000000
        cn-shift                       1.200000
        cn-exp                         4.000000
        max-rad                        5.000000

      * Solvation model:               ALPB
        Solvent                        hexane
        Parameter file                 internal GFN2-xTB/ALPB
        Dielectric constant                1.8800E+00
        Reference state                gsolv [1 M gas/solution]
        Free energy shift                  4.8134E-03 Eh       3.0204E+00 kcal/mol
        Temperature                        2.9815E+02 K
        Density                            6.6000E-01 kg/L
        Solvent mass                       8.6180E+01 g/mol
        Interaction kernel             P16
        Born radius scaling (c1)           1.1040E+00
        Born radii integrator          GBOBC
        Born offset                        0.0000E+00 a0       0.0000E+00 AA
        H-bond correction              false
        Ion screening                  false
        Surface tension                    1.0000E-05 Eh       1.5569E+01 dyn/cm
        Grid points                               230 per atom

          ...................................................
          :                      SETUP                      :
          :.................................................:
          :  # basis functions                 561          :
          :  # atomic orbitals                 553          :
          :  # shells                          291          :
          :  # electrons                       558          :
          :  max. iterations                   250          :
          :  Hamiltonian                  GFN2-xTB          :
          :  restarted?                      false          :
          :  GBSA solvation                   true          :
          :  PC potential                    false          :
          :  electronic temp.          300.0000000     K    :
          :  accuracy                    1.0000000          :
          :  -> integral cutoff          0.2500000E+02      :
          :  -> integral neglect         0.1000000E-07      :
          :  -> SCF convergence          0.1000000E-05 Eh   :
          :  -> wf. convergence          0.1000000E-03 e    :
          :  Broyden damping             0.4000000          :
          ...................................................

 iter      E             dE          RMSdq      gap      omega  full diag
   1   -311.5520836 -0.311552E+03  0.461E+00    1.29       0.0  T
   2   -311.8283214 -0.276238E+00  0.271E+00    0.64       1.0  T
   3   -311.7446193  0.837021E-01  0.142E+00    0.53       1.0  T
   4   -311.9021987 -0.157579E+00  0.479E-01    0.46       1.0  T
   5   -311.9234550 -0.212563E-01  0.167E-01    0.40       1.0  T
   6   -311.9246881 -0.123311E-02  0.904E-02    0.49       1.0  T
   7   -311.9250779 -0.389816E-03  0.443E-02    0.46       1.0  T
   8   -311.9251594 -0.815006E-04  0.292E-02    0.46       1.0  T
   9   -311.9251743 -0.148939E-04  0.208E-02    0.46       1.0  T
  10   -311.9251859 -0.115666E-04  0.130E-02    0.46       1.0  T
  11   -311.9251921 -0.626090E-05  0.741E-03    0.46       1.0  T
  12   -311.9251938 -0.169684E-05  0.336E-03    0.46       2.3  T
  13   -311.9251942 -0.422362E-06  0.181E-03    0.46       4.3  T
  14   -311.9251944 -0.161915E-06  0.871E-04    0.46       8.9  T
  15   -311.9251944 -0.308528E-07  0.455E-04    0.46      16.9  T

   *** convergence criteria satisfied after 15 iterations ***

         #    Occupation            Energy/Eh            Energy/eV
      -------------------------------------------------------------
         1        2.0000           -0.8605437             -23.4166
       ...           ...                  ...                  ...
       273        2.0000           -0.4016103             -10.9284
       274        2.0000           -0.3987733             -10.8512
       275        2.0000           -0.3962171             -10.7816
       276        2.0000           -0.3853723             -10.4865
       277        2.0000           -0.3817829             -10.3888
       278        2.0000           -0.3730100             -10.1501
       279        1.9997           -0.3654160              -9.9435 (HOMO)
       280        0.0003           -0.3486661              -9.4877 (LUMO)
       281                         -0.3364699              -9.1558
       282                         -0.3335339              -9.0759
       283                         -0.3209236              -8.7328
       284                         -0.3169441              -8.6245
       ...                                ...                  ...
       553                          1.1542070              31.4076
      -------------------------------------------------------------
                  HL-Gap            0.0167498 Eh            0.4558 eV
             Fermi-level           -0.3570409 Eh           -9.7156 eV

 SCC (total)                   0 d,  0 h,  0 min,  0.597 sec
 SCC setup                      ...        0 min,  0.006 sec (  0.989%)
 Dispersion                     ...        0 min,  0.006 sec (  1.039%)
 classical contributions        ...        0 min,  0.000 sec (  0.047%)
 integral evaluation            ...        0 min,  0.028 sec (  4.642%)
 iterations                     ...        0 min,  0.474 sec ( 79.394%)
 molecular gradient             ...        0 min,  0.081 sec ( 13.474%)
 printout                       ...        0 min,  0.002 sec (  0.402%)

         :::::::::::::::::::::::::::::::::::::::::::::::::::::
         ::                     SUMMARY                     ::
         :::::::::::::::::::::::::::::::::::::::::::::::::::::
         :: total energy            -307.333827170764 Eh    ::
         :: total w/o Gsasa/hb      -307.232542729847 Eh    ::
         :: gradient norm              0.027992391913 Eh/a0 ::
         :: HOMO-LUMO gap              0.455785859876 eV    ::
         ::.................................................::
         :: SCC energy              -311.925194437281 Eh    ::
         :: -> isotropic ES            0.255308077306 Eh    ::
         :: -> anisotropic ES          0.008911909753 Eh    ::
         :: -> anisotropic XC          0.146594675102 Eh    ::
         :: -> dispersion             -0.276042653375 Eh    ::
         :: -> Gsolv                  -0.137463556195 Eh    ::
         ::    -> Gelec               -0.036179115277 Eh    ::
         ::    -> Gsasa               -0.106097796738 Eh    ::
         ::    -> Ghb                  0.000000000000 Eh    ::
         ::    -> Gshift               0.004813355820 Eh    ::
         :: repulsion energy           4.591138285143 Eh    ::
         :: add. restraining           0.000000000000 Eh    ::
         :: total charge               0.000000000000 e     ::
         :::::::::::::::::::::::::::::::::::::::::::::::::::::

           -------------------------------------------------
          |                Property Printout                |
           -------------------------------------------------

    * Orbital Energies and Occupations

         #    Occupation            Energy/Eh            Energy/eV
      -------------------------------------------------------------
         1        2.0000           -0.8605437             -23.4166
       ...           ...                  ...                  ...
       267        2.0000           -0.4088157             -11.1244
       268        2.0000           -0.4071414             -11.0789
       269        2.0000           -0.4064811             -11.0609
       270        2.0000           -0.4052712             -11.0280
       271        2.0000           -0.4044635             -11.0060
       272        2.0000           -0.4023596             -10.9488
       273        2.0000           -0.4016103             -10.9284
       274        2.0000           -0.3987733             -10.8512
       275        2.0000           -0.3962171             -10.7816
       276        2.0000           -0.3853723             -10.4865
       277        2.0000           -0.3817829             -10.3888
       278        2.0000           -0.3730100             -10.1501
       279        1.9997           -0.3654160              -9.9435 (HOMO)
       280        0.0003           -0.3486661              -9.4877 (LUMO)
       281                         -0.3364699              -9.1558
       282                         -0.3335339              -9.0759
       283                         -0.3209236              -8.7328
       284                         -0.3169441              -8.6245
       285                         -0.3025605              -8.2331
       286                         -0.2989277              -8.1342
       287                         -0.2940458              -8.0014
       288                         -0.2782644              -7.5720
       289                         -0.2755760              -7.4988
       290                         -0.2736924              -7.4476
       ...                                ...                  ...
       553                          1.1542070              31.4076
      -------------------------------------------------------------
                  HL-Gap            0.0167498 Eh            0.4558 eV
             Fermi-level           -0.3570409 Eh           -9.7156 eV

     #   Z          covCN         q      C6AA      α(0)
     1   6 C        2.917     0.012    27.740     8.637
     2   6 C        3.008    -0.018    28.450     8.750
     3   6 C        2.867     0.240    23.005     7.862
     4   8 O        0.856    -0.410    21.889     6.273
     5   6 C        3.055    -0.018    28.396     8.739
     6   6 C        2.904    -0.019    28.489     8.752
     7   6 C        3.260     0.014    26.547     8.325
     8   6 C        3.254     0.015    26.585     8.340
     9   6 C        2.904    -0.032    28.785     8.797
    10   6 C        3.046     0.011    27.737     8.638
    11   6 C        3.012     0.045    26.975     8.520
    12   6 C        2.947     0.019    27.579     8.613
    13   6 C        1.939     0.135    27.782     8.512
    14   7 N        0.911    -0.253    26.578     7.456
    15   6 C        1.939     0.137    27.739     8.505
    16   7 N        0.911    -0.254    26.607     7.460
    17   6 C        4.163    -0.024    20.922     6.496
    18   6 C        4.011    -0.015    20.763     6.473
    19   6 C        2.987    -0.041    29.021     8.837
    20   6 C        2.987    -0.042    29.035     8.839
    21   6 C        4.011    -0.015    20.763     6.473
    22   6 C        3.926    -0.061    21.599     6.605
    23   6 C        4.160    -0.024    20.922     6.496
    24   6 C        2.989     0.052    26.818     8.495
    25  16 S        2.334     0.057   138.736    19.824
    26   6 C        3.014     0.040    27.085     8.537
    27   6 C        3.130    -0.038    28.739     8.777
    28   6 C        2.824     0.232    23.145     7.883
    29   8 O        0.956    -0.428    22.202     6.320
    30   6 C        3.157    -0.042    28.712     8.761
    31   6 C        2.982     0.040    27.092     8.538
    32   6 C        3.829    -0.056    21.552     6.606
    33   6 C        3.754    -0.101    22.495     6.763
    34  16 S        2.350     0.019   140.280    19.934
    35   6 C        2.979     0.041    27.082     8.536
    36   6 C        3.827    -0.056    21.561     6.607
    37   6 C        3.754    -0.100    22.460     6.758
    38   6 C        3.168    -0.043    28.686     8.751
    39   6 C        2.828     0.235    23.087     7.873
    40   8 O        0.858    -0.448    22.668     6.383
    41   6 C        3.171    -0.031    28.396     8.705
    42   6 C        3.038     0.012    27.713     8.635
    43   6 C        3.110    -0.006    28.010     8.671
    44   6 C        2.976     0.010    27.780     8.646
    45   6 C        2.925    -0.038    28.945     8.823
    46   6 C        2.917    -0.031    28.781     8.797
    47   6 C        2.925    -0.038    28.945     8.823
    48   6 C        2.970     0.018    27.603     8.618
    49   6 C        3.807    -0.061    21.663     6.626
    50   6 C        3.754    -0.102    22.503     6.764
    51   6 C        2.931    -0.040    28.993     8.830
    52   6 C        3.185     0.012    27.290     8.525
    53  16 S        2.175    -0.047   143.015    20.128
    54   6 C        3.095     0.004    27.830     8.646
    55   6 C        3.086    -0.038    28.831     8.802
    56   6 C        3.339     0.070    24.037     7.756
    57   6 C        3.340     0.070    24.018     7.750
    58   7 N        1.854    -0.297    28.538     7.918
    59  16 S        2.685     0.334   128.162    19.054
    60   7 N        1.854    -0.295    28.505     7.913
    61   6 C        3.087    -0.039    28.859     8.806
    62   6 C        3.098     0.003    27.843     8.647
    63  16 S        2.180    -0.030   142.274    20.075
    64   6 C        3.194     0.009    27.298     8.520
    65   6 C        3.106     0.004    27.800     8.639
    66   6 C        2.974     0.015    27.684     8.631
    67   6 C        2.924    -0.039    28.981     8.828
    68   6 C        2.918    -0.031    28.771     8.796
    69   6 C        2.925    -0.036    28.897     8.816
    70   6 C        2.971     0.020    27.550     8.610
    71   6 C        3.807    -0.061    21.676     6.628
    72   6 C        3.754    -0.101    22.492     6.763
    73   6 C        2.931    -0.037    28.930     8.821
    74   6 C        3.005     0.020    27.557     8.611
    75  16 S        2.258    -0.024   142.043    20.059
    76   6 C        3.121     0.004    27.764     8.629
    77   6 C        3.255     0.026    26.348     8.302
    78   7 N        2.799    -0.028    21.791     6.933
    79   6 C        3.074     0.033    27.187     8.549
    80   6 C        3.075     0.031    27.238     8.557
    81   7 N        2.798    -0.028    21.787     6.933
    82   6 C        3.261     0.027    26.243     8.276
    83   6 C        3.117    -0.006    28.007     8.668
    84  16 S        2.342    -0.008   141.382    20.012
    85   6 C        3.744    -0.009    20.804     6.507
    86   6 C        3.752    -0.114    22.740     6.800
    87   6 C        3.743    -0.008    20.785     6.504
    88   6 C        3.752    -0.115    22.760     6.803
    89   6 C        3.002    -0.004    28.120     8.699
    90   6 C        2.784     0.151    24.713     8.143
    91   9 F        0.788    -0.192    11.157     3.946
    92   6 C        2.781     0.169    24.348     8.082
    93   9 F        0.787    -0.191    11.140     3.943
    94   6 C        2.971    -0.005    28.148     8.703
    95   6 C        2.784     0.156    24.609     8.126
    96   9 F        0.787    -0.194    11.169     3.948
    97   6 C        2.781     0.152    24.692     8.139
    98   9 F        0.787    -0.194    11.178     3.949
    99   6 C        2.901     0.010    27.793     8.644
   100   6 C        3.005    -0.015    28.370     8.737
   101   6 C        2.862     0.245    22.903     7.844
   102   8 O        0.856    -0.392    21.517     6.219
   103   6 C        3.039    -0.014    28.317     8.728
   104   6 C        2.915    -0.009    28.254     8.716
   105   6 C        2.998    -0.025    28.610     8.774
   106   6 C        2.918     0.100    25.791     8.328
   107  35 Br       1.081    -0.143   188.994    22.166
   108   6 C        2.993    -0.030    28.737     8.794
   109   6 C        3.034     0.017    27.591     8.616
   110   6 C        3.013     0.042    27.042     8.530
   111   6 C        2.947     0.024    27.472     8.596
   112   6 C        1.937     0.136    27.771     8.510
   113   7 N        0.911    -0.241    26.299     7.417
   114   6 C        1.936     0.133    27.830     8.519
   115   7 N        0.911    -0.242    26.326     7.421
   116   1 H        0.925     0.098     1.799     2.098
   117   1 H        0.926     0.064     2.148     2.292
   118   1 H        0.926     0.063     2.169     2.303
   119   1 H        0.925     0.053     2.287     2.365
   120   1 H        0.925     0.041     2.432     2.439
   121   1 H        0.926     0.033     2.539     2.492
   122   1 H        0.926     0.032     2.551     2.498
   123   1 H        0.925     0.040     2.454     2.450
   124   1 H        0.925     0.043     2.410     2.428
   125   1 H        0.925     0.044     2.393     2.419
   126   1 H        0.925     0.052     2.297     2.370
   127   1 H        0.924     0.075     2.028     2.227
   128   1 H        0.924     0.054     2.274     2.358
   129   1 H        0.925     0.050     2.319     2.381
   130   1 H        0.925     0.042     2.427     2.436
   131   1 H        0.925     0.052     2.291     2.367
   132   1 H        0.924     0.056     2.252     2.347
   133   1 H        0.924     0.075     2.028     2.227
   134   1 H        0.925     0.051     2.305     2.374
   135   1 H        0.925     0.046     2.368     2.406
   136   1 H        0.925     0.043     2.408     2.426
   137   1 H        0.926     0.031     2.570     2.507
   138   1 H        0.926     0.039     2.460     2.453
   139   1 H        0.926     0.040     2.451     2.448
   140   1 H        0.924     0.042     2.426     2.436
   141   1 H        0.924     0.040     2.445     2.445
   142   1 H        0.925     0.042     2.420     2.433
   143   1 H        0.925     0.038     2.481     2.463
   144   1 H        0.925     0.040     2.443     2.444
   145   1 H        0.926     0.045     2.379     2.412
   146   1 H        0.926     0.023     2.682     2.561
   147   1 H        0.926     0.038     2.473     2.459
   148   1 H        0.926     0.042     2.429     2.437
   149   1 H        0.924     0.044     2.395     2.420
   150   1 H        0.924     0.042     2.419     2.432
   151   1 H        0.925     0.040     2.443     2.444
   152   1 H        0.925     0.040     2.455     2.450
   153   1 H        0.925     0.038     2.471     2.458
   154   1 H        0.926     0.048     2.351     2.398
   155   1 H        0.924     0.081     1.971     2.195
   156   1 H        0.924     0.070     2.091     2.261
   157   1 H        0.925     0.050     2.321     2.382
   158   1 H        0.925     0.056     2.248     2.345
   159   1 H        0.925     0.050     2.315     2.379
   160   1 H        0.924     0.076     2.024     2.225
   161   1 H        0.925     0.071     2.072     2.251
   162   1 H        0.925     0.056     2.245     2.343
   163   1 H        0.925     0.052     2.297     2.370
   164   1 H        0.925     0.050     2.318     2.381
   165   1 H        0.925     0.094     1.836     2.119
   166   1 H        0.926     0.080     1.975     2.197
   167   1 H        0.926     0.081     1.968     2.194
   168   1 H        0.926     0.081     1.972     2.196

 Mol. C6AA /au·bohr⁶  :     509866.716429
 Mol. C8AA /au·bohr⁸  :   14412991.363540
 Mol. α(0) /au        :       1132.773002


Wiberg/Mayer (AO) data.
largest (>0.10) Wiberg bond orders for each atom

 ---------------------------------------------------------------------------
     #   Z sym  total        # sym  WBO       # sym  WBO       # sym  WBO
 ---------------------------------------------------------------------------
     1   6 C    3.944 --     2 C    1.672    24 C    1.087   116 H    0.927
     2   6 C    3.977 --     1 C    1.672    11 C    1.099     3 C    1.011
     3   6 C    3.919 --     4 O    1.748     5 C    1.042     2 C    1.011
     4   8 O    2.035 --     3 C    1.748
     5   6 C    3.976 --     6 C    1.374    10 C    1.298     3 C    1.042
     6   6 C    3.983 --     7 C    1.448     5 C    1.374   117 H    0.963
     7   6 C    3.954 --     6 C    1.448     8 C    1.317    23 C    0.997
     8   6 C    3.966 --     9 C    1.456     7 C    1.317    17 C    0.998
     9   6 C    3.979 --     8 C    1.456    10 C    1.358   118 H    0.958
    10   6 C    3.982 --     9 C    1.358     5 C    1.298    11 C    1.101
    11   6 C    3.978 --    12 C    1.510    10 C    1.101     2 C    1.099
    12   6 C    3.971 --    11 C    1.510    15 C    1.094    13 C    1.092
    13   6 C    3.944 --    14 N    2.764    12 C    1.092
    14   7 N    2.969 --    13 C    2.764
    15   6 C    3.944 --    16 N    2.765    12 C    1.094
    16   7 N    2.972 --    15 C    2.765
    17   6 C    3.984 --     8 C    0.998    23 C    0.978   119 H    0.958
                            18 C    0.946
    18   6 C    3.989 --    19 C    1.010    22 C    0.985   120 H    0.972
                            17 C    0.946
    19   6 C    3.987 --    20 C    1.924    18 C    1.010   121 H    0.971
    20   6 C    3.987 --    19 C    1.924    21 C    1.010   122 H    0.971
    21   6 C    3.988 --    20 C    1.010    22 C    0.985   123 H    0.972
                            23 C    0.946
    22   6 C    3.992 --    21 C    0.985    18 C    0.985   124 H    0.977
                           125 H    0.976
    23   6 C    3.983 --     7 C    0.997    17 C    0.978   126 H    0.958
                            21 C    0.946
    24   6 C    3.944 --    41 C    1.460    25 S    1.167     1 C    1.087
    25  16 S    2.661 --    24 C    1.167    26 C    1.124
    26   6 C    3.940 --    27 C    1.402    42 C    1.208    25 S    1.124
    27   6 C    3.958 --    26 C    1.402    41 C    1.191    28 C    1.095
    28   6 C    3.930 --    29 O    1.629    27 C    1.095    30 C    1.061
    29   8 O    2.056 --    28 C    1.629    84 S    0.122
    30   6 C    3.979 --    31 C    1.516    38 C    1.168    28 C    1.061
    31   6 C    3.936 --    30 C    1.516    34 S    1.172    32 C    1.036
    32   6 C    3.990 --    31 C    1.036    33 C    0.987   128 H    0.971
                           127 H    0.954
    33   6 C    3.989 --   130 H    0.988    32 C    0.987   131 H    0.986
                           129 H    0.984
    34  16 S    2.645 --    35 C    1.178    31 C    1.172
    35   6 C    3.943 --    38 C    1.508    34 S    1.178    36 C    1.037
    36   6 C    3.990 --    35 C    1.037    37 C    0.987   132 H    0.970
                           133 H    0.956
    37   6 C    3.990 --   136 H    0.988   135 H    0.988    36 C    0.987
                           134 H    0.983
    38   6 C    3.977 --    35 C    1.508    30 C    1.168    39 C    1.068
    39   6 C    3.935 --    40 O    1.665    38 C    1.068    41 C    1.063
    40   8 O    2.010 --    39 C    1.665
    41   6 C    3.967 --    24 C    1.460    27 C    1.191    39 C    1.063
    42   6 C    3.920 --    43 C    1.390    26 C    1.208    84 S    1.090
    43   6 C    3.972 --    42 C    1.390    52 C    1.293    44 C    1.046
    44   6 C    3.986 --    51 C    1.391    45 C    1.368    43 C    1.046
                            47 C    0.100
    45   6 C    3.987 --    46 C    1.454    44 C    1.368   137 H    0.970
                            48 C    0.104
    46   6 C    3.990 --    45 C    1.454    47 C    1.433   138 H    0.970
                            51 C    0.104
    47   6 C    3.981 --    46 C    1.433    48 C    1.409   139 H    0.969
                            44 C    0.100
    48   6 C    3.986 --    51 C    1.416    47 C    1.409    49 C    1.013
                            45 C    0.104
    49   6 C    3.996 --    48 C    1.013    50 C    1.000   141 H    0.975
                           140 H    0.972
    50   6 C    3.995 --    49 C    1.000   143 H    0.988   142 H    0.987
                           144 H    0.986
    51   6 C    3.983 --    48 C    1.416    44 C    1.391   145 H    0.965
                            46 C    0.104
    52   6 C    3.927 --    83 C    1.331    43 C    1.293    53 S    1.085
    53  16 S    2.499 --    54 C    1.106    52 C    1.085
    54   6 C    3.920 --    82 C    1.312    55 C    1.272    53 S    1.106
    55   6 C    3.956 --    54 C    1.272    80 C    1.269    56 C    1.174
    56   6 C    3.972 --    60 N    1.424    55 C    1.174    57 C    1.165
                            59 S    0.104
    57   6 C    3.972 --    58 N    1.425    61 C    1.173    56 C    1.165
                            59 S    0.104
    58   7 N    3.061 --    57 C    1.425    59 S    1.384    60 N    0.145
    59  16 S    3.101 --    60 N    1.386    58 N    1.384    57 C    0.104
                            56 C    0.104
    60   7 N    3.062 --    56 C    1.424    59 S    1.386    58 N    0.145
    61   6 C    3.954 --    79 C    1.271    62 C    1.270    57 C    1.173
    62   6 C    3.924 --    77 C    1.308    61 C    1.270    63 S    1.110
    63  16 S    2.520 --    62 C    1.110    64 C    1.096
    64   6 C    3.923 --    76 C    1.343    65 C    1.266    63 S    1.096
    65   6 C    3.971 --    74 C    1.436    64 C    1.266    66 C    1.049
    66   6 C    3.985 --    73 C    1.389    67 C    1.376    65 C    1.049
                            69 C    0.100
    67   6 C    3.988 --    68 C    1.451    66 C    1.376   146 H    0.969
                            70 C    0.104
    68   6 C    3.991 --    67 C    1.451    69 C    1.437   147 H    0.970
                            73 C    0.104
    69   6 C    3.981 --    68 C    1.437    70 C    1.406   148 H    0.969
                            66 C    0.100
    70   6 C    3.986 --    73 C    1.419    69 C    1.406    71 C    1.013
                            67 C    0.104
    71   6 C    3.995 --    70 C    1.013    72 C    1.000   150 H    0.974
                           149 H    0.973
    72   6 C    3.995 --    71 C    1.000   153 H    0.988   152 H    0.988
                           151 H    0.986
    73   6 C    3.985 --    70 C    1.419    66 C    1.389   154 H    0.964
                            68 C    0.104
    74   6 C    3.903 --    65 C    1.436    89 C    1.131    75 S    1.093
    75  16 S    2.570 --    76 C    1.126    74 C    1.093
    76   6 C    3.931 --    64 C    1.343    77 C    1.242    75 S    1.126
    77   6 C    3.936 --    62 C    1.308    76 C    1.242    78 N    1.160
    78   7 N    3.560 --    79 C    1.171    77 C    1.160    87 C    0.979
    79   6 C    3.932 --    61 C    1.271    80 C    1.223    78 N    1.171
    80   6 C    3.931 --    55 C    1.269    79 C    1.223    81 N    1.170
    81   7 N    3.559 --    80 C    1.170    82 C    1.163    85 C    0.977
    82   6 C    3.938 --    54 C    1.312    83 C    1.237    81 N    1.163
    83   6 C    3.945 --    52 C    1.331    82 C    1.237    84 S    1.136
    84  16 S    2.709 --    83 C    1.136    42 C    1.090    29 O    0.122
    85   6 C    3.957 --    86 C    1.008    81 N    0.977   155 H    0.961
                           156 H    0.953
    86   6 C    3.988 --    85 C    1.008   159 H    0.986   158 H    0.983
                           157 H    0.983
    87   6 C    3.958 --    88 C    1.007    78 N    0.979   160 H    0.961
                           161 H    0.953
    88   6 C    3.988 --    87 C    1.007   164 H    0.986   163 H    0.983
                           162 H    0.983
    89   6 C    3.965 --    90 C    1.297    97 C    1.292    74 C    1.131
    90   6 C    3.879 --    92 C    1.390    89 C    1.297    91 F    0.978
    91   9 F    1.122 --    90 C    0.978
    92   6 C    3.884 --    90 C    1.390    94 C    1.296    93 F    0.986
    93   9 F    1.124 --    92 C    0.986
    94   6 C    3.958 --    95 C    1.300    92 C    1.296    99 C    1.127
    95   6 C    3.879 --    97 C    1.390    94 C    1.300    96 F    0.982
    96   9 F    1.118 --    95 C    0.982
    97   6 C    3.881 --    95 C    1.390    89 C    1.292    98 F    0.980
    98   9 F    1.118 --    97 C    0.980
    99   6 C    3.931 --   100 C    1.642    94 C    1.127   165 H    0.940
   100   6 C    3.964 --    99 C    1.642   110 C    1.115   101 C    1.004
   101   6 C    3.914 --   102 O    1.769   103 C    1.029   100 C    1.004
   102   8 O    2.045 --   101 C    1.769
   103   6 C    3.977 --   104 C    1.407   109 C    1.289   101 C    1.029
   104   6 C    3.981 --   105 C    1.433   103 C    1.407   166 H    0.962
   105   6 C    3.967 --   104 C    1.433   106 C    1.395   167 H    0.964
   106   6 C    3.934 --   108 C    1.398   105 C    1.395   107 Br   1.003
   107  35 Br   1.139 --   106 C    1.003
   108   6 C    3.975 --   109 C    1.402   106 C    1.398   168 H    0.957
   109   6 C    3.985 --   108 C    1.402   103 C    1.289   110 C    1.085
   110   6 C    3.970 --   111 C    1.511   100 C    1.115   109 C    1.085
   111   6 C    3.966 --   110 C    1.511   112 C    1.092   114 C    1.091
   112   6 C    3.945 --   113 N    2.771   111 C    1.092
   113   7 N    2.973 --   112 C    2.771
   114   6 C    3.945 --   115 N    2.769   111 C    1.091
   115   7 N    2.971 --   114 C    2.769
   116   1 H    0.986 --     1 C    0.927
   117   1 H    0.995 --     6 C    0.963
   118   1 H    0.996 --     9 C    0.958
   119   1 H    0.995 --    17 C    0.958
   120   1 H    0.998 --    18 C    0.972
   121   1 H    0.999 --    19 C    0.971
   122   1 H    0.999 --    20 C    0.971
   123   1 H    0.998 --    21 C    0.972
   124   1 H    0.998 --    22 C    0.977
   125   1 H    0.996 --    22 C    0.976
   126   1 H    0.995 --    23 C    0.958
   127   1 H    0.993 --    32 C    0.954
   128   1 H    0.996 --    32 C    0.971
   129   1 H    0.997 --    33 C    0.984
   130   1 H    0.998 --    33 C    0.988
   131   1 H    0.997 --    33 C    0.986
   132   1 H    0.996 --    36 C    0.970
   133   1 H    0.994 --    36 C    0.956
   134   1 H    0.996 --    37 C    0.983
   135   1 H    0.998 --    37 C    0.988
   136   1 H    0.998 --    37 C    0.988
   137   1 H    0.998 --    45 C    0.970
   138   1 H    0.997 --    46 C    0.970
   139   1 H    0.998 --    47 C    0.969
   140   1 H    0.998 --    49 C    0.972
   141   1 H    0.998 --    49 C    0.975
   142   1 H    0.998 --    50 C    0.987
   143   1 H    0.999 --    50 C    0.988
   144   1 H    0.997 --    50 C    0.986
   145   1 H    0.998 --    51 C    0.965
   146   1 H    0.999 --    67 C    0.969
   147   1 H    0.998 --    68 C    0.970
   148   1 H    0.998 --    69 C    0.969
   149   1 H    0.998 --    71 C    0.973
   150   1 H    0.998 --    71 C    0.974
   151   1 H    0.997 --    72 C    0.986
   152   1 H    0.998 --    72 C    0.988
   153   1 H    0.999 --    72 C    0.988
   154   1 H    0.998 --    73 C    0.964
   155   1 H    0.993 --    85 C    0.961
   156   1 H    0.993 --    85 C    0.953
   157   1 H    0.997 --    86 C    0.983
   158   1 H    0.996 --    86 C    0.983
   159   1 H    0.997 --    86 C    0.986
   160   1 H    0.994 --    87 C    0.961
   161   1 H    0.993 --    87 C    0.953
   162   1 H    0.996 --    88 C    0.983
   163   1 H    0.997 --    88 C    0.983
   164   1 H    0.997 --    88 C    0.986
   165   1 H    0.988 --    99 C    0.940
   166   1 H    0.993 --   104 C    0.962
   167   1 H    0.993 --   105 C    0.964
   168   1 H    0.993 --   108 C    0.957
 ---------------------------------------------------------------------------

Topologies differ in bond orders
Writing corrected topology to xtbtopo.mol

molecular dipole:
                 x           y           z       tot (Debye)
 q only:        0.194      -1.613      -0.441
   full:        0.179      -1.874      -0.413       4.899
molecular quadrupole (traceless):
                xx          xy          yy          xz          yz          zz
 q only:      -33.819     135.983     -48.079      86.608     -89.864      81.899
  q+dip:      -44.530     133.028     -47.200     107.709    -100.163      91.729
   full:      -44.572     138.095     -53.452     111.774    -100.639      98.024


           -------------------------------------------------
          | TOTAL ENERGY             -307.333827170764 Eh   |
          | GRADIENT NORM               0.027992391913 Eh/α |
          | HOMO-LUMO GAP               0.455785859876 eV   |
           -------------------------------------------------

------------------------------------------------------------------------
 * finished run on 2022/02/13 at 06:17:48.848     
------------------------------------------------------------------------
 total:
 * wall-time:     0 d,  0 h,  0 min,  0.679 sec
 *  cpu-time:     0 d,  0 h,  0 min,  5.333 sec
 * ratio c/w:     7.850 speedup
 SCF:
 * wall-time:     0 d,  0 h,  0 min,  0.600 sec
 *  cpu-time:     0 d,  0 h,  0 min,  4.789 sec
 * ratio c/w:     7.980 speedup

