      -----------------------------------------------------------      
     |                   =====================                   |     
     |                           x T B                           |     
     |                   =====================                   |     
     |                         S. Grimme                         |     
     |          Mulliken Center for Theoretical Chemistry        |     
     |                    University of Bonn                     |     
      -----------------------------------------------------------      

   * xtb version 6.4.1 (unknown) compiled by 'oda6@login1.crc.pitt.edu' on 2021-06-25

   xtb is free software: you can redistribute it and/or modify it under
   the terms of the GNU Lesser General Public License as published by
   the Free Software Foundation, either version 3 of the License, or
   (at your option) any later version.
   
   xtb is distributed in the hope that it will be useful,
   but WITHOUT ANY WARRANTY; without even the implied warranty of
   MERCHANTABILITY or FITNESS FOR A PARTICULAR PURPOSE.  See the
   GNU Lesser General Public License for more details.
   
   Cite this work as:
   * C. Bannwarth, E. Caldeweyher, S. Ehlert, A. Hansen, P. Pracht,
     J. Seibert, S. Spicher, S. Grimme, WIREs Comput. Mol. Sci., 2020, 11,
     e01493. DOI: 10.1002/wcms.1493
   
   for GFN2-xTB:
   * C. Bannwarth, S. Ehlert and S. Grimme., J. Chem. Theory Comput., 2019,
     15, 1652-1671. DOI: 10.1021/acs.jctc.8b01176
   for GFN1-xTB:
   * S. Grimme, C. Bannwarth, P. Shushkov, J. Chem. Theory Comput., 2017,
     13, 1989-2009. DOI: 10.1021/acs.jctc.7b00118
   for GFN0-xTB:
   * P. Pracht, E. Caldeweyher, S. Ehlert, S. Grimme, ChemRxiv, 2019, preprint.
     DOI: 10.26434/chemrxiv.8326202.v1
   for GFN-FF:
   * S. Spicher and S. Grimme, Angew. Chem. Int. Ed., 2020, 59, 15665-15673.
     DOI: 10.1002/anie.202004239
   
   for DFT-D4:
   * E. Caldeweyher, C. Bannwarth and S. Grimme, J. Chem. Phys., 2017,
     147, 034112. DOI: 10.1063/1.4993215
   * E. Caldeweyher, S. Ehlert, A. Hansen, H. Neugebauer, S. Spicher,
     C. Bannwarth and S. Grimme, J. Chem. Phys., 2019, 150, 154122.
     DOI: 10.1063/1.5090222
   * E. Caldeweyher, J.-M. Mewes, S. Ehlert and S. Grimme, Phys. Chem. Chem. Phys.
     2020, 22, 8499-8512. DOI: 10.1039/D0CP00502A
   
   for sTDA-xTB:
   * S. Grimme and C. Bannwarth, J. Chem. Phys., 2016, 145, 054103.
     DOI: 10.1063/1.4959605
   
   in the mass-spec context:
   * V. Asgeirsson, C. Bauer and S. Grimme, Chem. Sci., 2017, 8, 4879.
     DOI: 10.1039/c7sc00601b
   * J. Koopman and S. Grimme, ACS Omega 2019, 4, 12, 15120-15133.
     DOI: 10.1021/acsomega.9b02011
   
   for metadynamics refer to:
   * S. Grimme, J. Chem. Theory Comput., 2019, 155, 2847-2862
     DOI: 10.1021/acs.jctc.9b00143
   
   for SPH calculations refer to:
   * S. Spicher and S. Grimme, J. Chem. Theory Comput., 2021, 17, 1701-1714
     DOI: 10.1021/acs.jctc.0c01306
   
   with help from (in alphabetical order)
   P. Atkinson, C. Bannwarth, F. Bohle, G. Brandenburg, E. Caldeweyher
   M. Checinski, S. Dohm, S. Ehlert, S. Ehrlich, I. Gerasimov, J. Koopman
   C. Lavigne, S. Lehtola, F. März, M. Müller, F. Musil, H. Neugebauer
   J. Pisarek, C. Plett, P. Pracht, J. Seibert, P. Shushkov, S. Spicher
   M. Stahn, M. Steiner, T. Strunk, J. Stückrath, T. Rose, and J. Unsleber
   
 * started run on 2022/02/24 at 10:47:58.894     

           -------------------------------------------------
          |                Calculation Setup                |
           -------------------------------------------------

          program call               : /ihome/ghutchison/oda6/xtb/xtb-641/bin/xtb ../../GFN2_output/39_100_92_28_39.mol --sp --alpb hexane
          hostname                   : smp-n24
          coordinate file            : ../../GFN2_output/39_100_92_28_39.mol
          omp threads                :                     8
          number of atoms            :                   249
          number of electrons        :                   778
          charge                     :                     0
          spin                       :                   0.0
          first test random number   :      0.86884369601110

   ID    Z sym.   atoms
    1    6 C      1-3, 5-13, 15, 17-31, 33, 34, 36-42, 44, 45, 47, 49, 50,
                  52, 54, 55, 57-60, 64, 65, 67-70, 73, 74, 76-78, 80, 81,
                  83-88, 91, 92, 94-99, 101, 102, 104-118, 120, 121, 123-137,
                  139-141, 143-151, 153, 155-161
    2    8 O      4, 142
    3    7 N      14, 16, 61, 63, 71, 72, 75, 79, 82, 89, 90, 93, 103, 122,
                  152, 154
    4   16 S      32, 43, 48, 51, 53, 56, 62, 66, 100, 119, 138
    5   34 Se     35, 46
    6    1 H      162-249

           -------------------------------------------------
          |                 G F N 2 - x T B                 |
           -------------------------------------------------

        Reference                      10.1021/acs.jctc.8b01176
      * Hamiltonian:
        H0-scaling (s, p, d)           1.850000    2.230000    2.230000
        zeta-weighting                 0.500000
      * Dispersion:
        s8                             2.700000
        a1                             0.520000
        a2                             5.000000
        s9                             5.000000
      * Repulsion:
        kExp                           1.500000    1.000000
        rExp                           1.000000
      * Coulomb:
        alpha                          2.000000
        third order                    shell-resolved
        anisotropic                    true
        a3                             3.000000
        a5                             4.000000
        cn-shift                       1.200000
        cn-exp                         4.000000
        max-rad                        5.000000

      * Solvation model:               ALPB
        Solvent                        hexane
        Parameter file                 internal GFN2-xTB/ALPB
        Dielectric constant                1.8800E+00
        Reference state                gsolv [1 M gas/solution]
        Free energy shift                  4.8134E-03 Eh       3.0204E+00 kcal/mol
        Temperature                        2.9815E+02 K
        Density                            6.6000E-01 kg/L
        Solvent mass                       8.6180E+01 g/mol
        Interaction kernel             P16
        Born radius scaling (c1)           1.1040E+00
        Born radii integrator          GBOBC
        Born offset                        0.0000E+00 a0       0.0000E+00 AA
        H-bond correction              false
        Ion screening                  false
        Surface tension                    1.0000E-05 Eh       1.5569E+01 dyn/cm
        Grid points                               230 per atom

          ...................................................
          :                      SETUP                      :
          :.................................................:
          :  # basis functions                 810          :
          :  # atomic orbitals                 797          :
          :  # shells                          423          :
          :  # electrons                       778          :
          :  max. iterations                   250          :
          :  Hamiltonian                  GFN2-xTB          :
          :  restarted?                      false          :
          :  GBSA solvation                   true          :
          :  PC potential                    false          :
          :  electronic temp.          300.0000000     K    :
          :  accuracy                    1.0000000          :
          :  -> integral cutoff          0.2500000E+02      :
          :  -> integral neglect         0.1000000E-07      :
          :  -> SCF convergence          0.1000000E-05 Eh   :
          :  -> wf. convergence          0.1000000E-03 e    :
          :  Broyden damping             0.4000000          :
          ...................................................

 iter      E             dE          RMSdq      gap      omega  full diag
   1   -426.5520240 -0.426552E+03  0.414E+00    0.81       0.0  T
   2   -426.9122803 -0.360256E+00  0.246E+00    0.58       1.0  T
   3   -426.8096847  0.102596E+00  0.118E+00    0.48       1.0  T
   4   -426.9685217 -0.158837E+00  0.501E-01    0.57       1.0  T
   5   -427.0075156 -0.389939E-01  0.171E-01    0.46       1.0  T
   6   -427.0093502 -0.183457E-02  0.755E-02    0.49       1.0  T
   7   -427.0098511 -0.500937E-03  0.334E-02    0.48       1.0  T
   8   -427.0099375 -0.864333E-04  0.162E-02    0.48       1.0  T
   9   -427.0099485 -0.109503E-04  0.949E-03    0.48       1.0  T
  10   -427.0099540 -0.546976E-05  0.453E-03    0.48       1.4  T
  11   -427.0099551 -0.113075E-05  0.255E-03    0.48       2.5  T
  12   -427.0099554 -0.272783E-06  0.131E-03    0.48       4.8  T
  13   -427.0099555 -0.102421E-06  0.683E-04    0.48       9.3  T
  14   -427.0099555 -0.311871E-07  0.332E-04    0.48      19.1  T

   *** convergence criteria satisfied after 14 iterations ***

         #    Occupation            Energy/Eh            Energy/eV
      -------------------------------------------------------------
         1        2.0000           -0.7639457             -20.7880
       ...           ...                  ...                  ...
       383        2.0000           -0.3739822             -10.1766
       384        2.0000           -0.3690310             -10.0418
       385        2.0000           -0.3665300              -9.9738
       386        2.0000           -0.3600079              -9.7963
       387        2.0000           -0.3574547              -9.7268
       388        2.0000           -0.3542993              -9.6410
       389        1.9998           -0.3469040              -9.4397 (HOMO)
       390        0.0002           -0.3292975              -8.9606 (LUMO)
       391                         -0.3204542              -8.7200
       392                         -0.3174902              -8.6393
       393                         -0.3082863              -8.3889
       394                         -0.2997617              -8.1569
       ...                                ...                  ...
       797                          1.1637361              31.6669
      -------------------------------------------------------------
                  HL-Gap            0.0176066 Eh            0.4791 eV
             Fermi-level           -0.3381006 Eh           -9.2002 eV

 SCC (total)                   0 d,  0 h,  0 min,  6.084 sec
 SCC setup                      ...        0 min,  0.048 sec (  0.792%)
 Dispersion                     ...        0 min,  0.062 sec (  1.023%)
 classical contributions        ...        0 min,  0.004 sec (  0.069%)
 integral evaluation            ...        0 min,  0.154 sec (  2.539%)
 iterations                     ...        0 min,  5.601 sec ( 92.052%)
 molecular gradient             ...        0 min,  0.206 sec (  3.386%)
 printout                       ...        0 min,  0.008 sec (  0.139%)

         :::::::::::::::::::::::::::::::::::::::::::::::::::::
         ::                     SUMMARY                     ::
         :::::::::::::::::::::::::::::::::::::::::::::::::::::
         :: total energy            -420.414244597936 Eh    ::
         :: total w/o Gsasa/hb      -420.263084504840 Eh    ::
         :: gradient norm              0.019970126988 Eh/a0 ::
         :: HOMO-LUMO gap              0.479098641856 eV    ::
         ::.................................................::
         :: SCC energy              -427.009955490513 Eh    ::
         :: -> isotropic ES            0.190854239664 Eh    ::
         :: -> anisotropic ES          0.019824403499 Eh    ::
         :: -> anisotropic XC          0.251220788287 Eh    ::
         :: -> dispersion             -0.424272987003 Eh    ::
         :: -> Gsolv                  -0.183696724050 Eh    ::
         ::    -> Gelec               -0.032536630954 Eh    ::
         ::    -> Gsasa               -0.155973448916 Eh    ::
         ::    -> Ghb                  0.000000000000 Eh    ::
         ::    -> Gshift               0.004813355820 Eh    ::
         :: repulsion energy           6.594164642590 Eh    ::
         :: add. restraining           0.000000000000 Eh    ::
         :: total charge              -0.000000000000 e     ::
         :::::::::::::::::::::::::::::::::::::::::::::::::::::

           -------------------------------------------------
          |                Property Printout                |
           -------------------------------------------------

    * Orbital Energies and Occupations

         #    Occupation            Energy/Eh            Energy/eV
      -------------------------------------------------------------
         1        2.0000           -0.7639457             -20.7880
       ...           ...                  ...                  ...
       377        2.0000           -0.3904912             -10.6258
       378        2.0000           -0.3896646             -10.6033
       379        2.0000           -0.3875787             -10.5466
       380        2.0000           -0.3860670             -10.5054
       381        2.0000           -0.3797137             -10.3325
       382        2.0000           -0.3784836             -10.2991
       383        2.0000           -0.3739822             -10.1766
       384        2.0000           -0.3690310             -10.0418
       385        2.0000           -0.3665300              -9.9738
       386        2.0000           -0.3600079              -9.7963
       387        2.0000           -0.3574547              -9.7268
       388        2.0000           -0.3542993              -9.6410
       389        1.9998           -0.3469040              -9.4397 (HOMO)
       390        0.0002           -0.3292975              -8.9606 (LUMO)
       391                         -0.3204542              -8.7200
       392                         -0.3174902              -8.6393
       393                         -0.3082863              -8.3889
       394                         -0.2997617              -8.1569
       395                         -0.2909282              -7.9166
       396                         -0.2834392              -7.7128
       397                         -0.2820001              -7.6736
       398                         -0.2661338              -7.2419
       399                         -0.2640787              -7.1859
       400                         -0.2606176              -7.0918
       ...                                ...                  ...
       797                          1.1637361              31.6669
      -------------------------------------------------------------
                  HL-Gap            0.0176066 Eh            0.4791 eV
             Fermi-level           -0.3381006 Eh           -9.2002 eV

     #   Z          covCN         q      C6AA      α(0)
     1   6 C        2.932    -0.009    28.233     8.714
     2   6 C        3.003    -0.034    28.830     8.808
     3   6 C        2.870     0.229    23.205     7.896
     4   8 O        0.903    -0.376    21.196     6.174
     5   6 C        3.063    -0.019    28.414     8.741
     6   6 C        2.905    -0.022    28.564     8.763
     7   6 C        3.261     0.010    26.625     8.335
     8   6 C        3.255     0.013    26.638     8.347
     9   6 C        2.904    -0.033    28.819     8.802
    10   6 C        3.043     0.007    27.826     8.652
    11   6 C        3.024     0.037    27.152     8.547
    12   6 C        2.947     0.010    27.800     8.648
    13   6 C        1.944     0.134    27.800     8.515
    14   7 N        0.911    -0.266    26.897     7.501
    15   6 C        1.943     0.130    27.892     8.529
    16   7 N        0.911    -0.265    26.859     7.495
    17   6 C        4.163    -0.024    20.922     6.496
    18   6 C        4.012    -0.015    20.765     6.474
    19   6 C        2.987    -0.041    29.009     8.835
    20   6 C        2.987    -0.042    29.039     8.840
    21   6 C        4.011    -0.015    20.767     6.474
    22   6 C        3.926    -0.060    21.595     6.604
    23   6 C        4.160    -0.025    20.926     6.497
    24   6 C        2.981     0.040    27.093     8.538
    25   6 C        3.075    -0.021    28.444     8.744
    26   6 C        3.136     0.000    27.793     8.629
    27   6 C        3.010     0.006    27.864     8.659
    28   6 C        2.973     0.004    27.935     8.670
    29   6 C        3.084    -0.038    28.856     8.806
    30   6 C        3.101    -0.052    29.158     8.849
    31   6 C        2.969     0.041    27.075     8.535
    32  16 S        2.099    -0.141   146.991    20.406
    33   6 C        3.795     0.007    20.466     6.442
    34   6 C        3.787    -0.107    22.562     6.765
    35  34 Se       2.418    -0.087   238.666    26.919
    36   6 C        3.007     0.022    27.499     8.602
    37   6 C        3.135     0.003    27.747     8.622
    38   6 C        3.007    -0.005    28.136     8.701
    39   6 C        2.973     0.007    27.868     8.659
    40   6 C        3.087    -0.042    28.939     8.818
    41   6 C        3.110    -0.052    29.137     8.843
    42   6 C        2.964     0.046    26.974     8.519
    43  16 S        2.078    -0.160   147.793    20.461
    44   6 C        3.793     0.002    20.552     6.456
    45   6 C        3.779    -0.105    22.531     6.762
    46  34 Se       2.366    -0.086   238.636    26.917
    47   6 C        3.005     0.027    27.378     8.583
    48  16 S        2.277    -0.064   143.699    20.176
    49   6 C        3.074    -0.055    29.274     8.871
    50   6 C        3.018     0.034    27.221     8.558
    51  16 S        2.329    -0.057   143.420    20.156
    52   6 C        3.028     0.024    27.434     8.591
    53  16 S        2.340    -0.026   142.149    20.067
    54   6 C        3.025     0.020    27.539     8.608
    55   6 C        3.039     0.012    27.721     8.636
    56  16 S        2.200    -0.038   142.636    20.101
    57   6 C        3.099     0.005    27.779     8.637
    58   6 C        3.078    -0.040    28.907     8.815
    59   6 C        3.340     0.069    24.037     7.754
    60   6 C        3.339     0.070    24.027     7.754
    61   7 N        1.854    -0.297    28.544     7.918
    62  16 S        2.685     0.321   128.661    19.091
    63   7 N        1.853    -0.297    28.548     7.919
    64   6 C        3.083    -0.043    28.975     8.824
    65   6 C        3.104     0.004    27.806     8.640
    66  16 S        2.196    -0.045   142.920    20.121
    67   6 C        3.039     0.013    27.680     8.629
    68   6 C        3.029     0.016    27.616     8.620
    69   6 C        3.141    -0.015    28.148     8.682
    70   6 C        3.155     0.052    26.540     8.424
    71   7 N        1.984    -0.269    27.789     7.818
    72   7 N        3.264     0.219    17.657     6.241
    73   6 C        3.745    -0.021    21.026     6.541
    74   6 C        3.753    -0.115    22.768     6.804
    75   7 N        1.988    -0.278    28.019     7.850
    76   6 C        3.138     0.051    26.628     8.445
    77   6 C        3.078    -0.030    28.673     8.779
    78   6 C        3.233     0.026    26.592     8.370
    79   7 N        2.809    -0.022    21.671     6.914
    80   6 C        3.075     0.026    27.354     8.575
    81   6 C        3.079     0.029    27.278     8.562
    82   7 N        2.798    -0.044    22.083     6.979
    83   6 C        3.249     0.030    26.329     8.307
    84   6 C        3.082    -0.028    28.597     8.767
    85   6 C        3.141     0.053    26.578     8.436
    86   6 C        3.153     0.053    26.541     8.425
    87   6 C        3.144    -0.016    28.142     8.680
    88   6 C        3.066    -0.050    29.164     8.855
    89   7 N        1.985    -0.268    27.757     7.813
    90   7 N        3.266     0.221    17.627     6.236
    91   6 C        3.745    -0.022    21.029     6.542
    92   6 C        3.753    -0.115    22.767     6.804
    93   7 N        1.987    -0.276    27.957     7.842
    94   6 C        3.745    -0.016    20.933     6.527
    95   6 C        3.752    -0.109    22.650     6.787
    96   6 C        3.740    -0.009    20.819     6.510
    97   6 C        3.752    -0.117    22.793     6.808
    98   6 C        3.068    -0.054    29.263     8.870
    99   6 C        3.031     0.026    27.384     8.584
   100  16 S        2.297    -0.040   142.720    20.107
   101   6 C        3.024     0.003    27.926     8.668
   102   6 C        3.056     0.051    26.796     8.489
   103   7 N        2.749    -0.065    22.497     7.044
   104   6 C        2.926     0.061    26.623     8.462
   105   6 C        2.920    -0.051    29.277     8.873
   106   6 C        2.925    -0.041    29.014     8.833
   107   6 C        2.966     0.010    27.783     8.646
   108   6 C        3.758    -0.112    22.685     6.791
   109   6 C        2.925    -0.040    28.985     8.829
   110   6 C        2.922    -0.047    29.155     8.855
   111   6 C        2.936     0.060    26.649     8.466
   112   6 C        2.920    -0.042    29.048     8.838
   113   6 C        2.926    -0.036    28.895     8.815
   114   6 C        2.966     0.017    27.618     8.620
   115   6 C        3.758    -0.109    22.643     6.784
   116   6 C        2.925    -0.038    28.940     8.822
   117   6 C        2.922    -0.044    29.099     8.846
   118   6 C        3.167    -0.002    27.712     8.602
   119  16 S        2.324    -0.015   141.674    20.033
   120   6 C        2.986     0.008    27.838     8.655
   121   6 C        3.043     0.060    26.618     8.462
   122   7 N        2.748    -0.043    22.069     6.977
   123   6 C        2.934     0.060    26.647     8.466
   124   6 C        2.920    -0.042    29.047     8.838
   125   6 C        2.925    -0.039    28.963     8.826
   126   6 C        2.966     0.018    27.602     8.618
   127   6 C        3.758    -0.114    22.736     6.798
   128   6 C        2.926    -0.038    28.936     8.822
   129   6 C        2.921    -0.041    29.012     8.833
   130   6 C        2.925     0.057    26.723     8.477
   131   6 C        2.920    -0.040    28.982     8.828
   132   6 C        2.926    -0.036    28.908     8.817
   133   6 C        2.965     0.013    27.713     8.635
   134   6 C        3.758    -0.113    22.705     6.794
   135   6 C        2.925    -0.041    29.027     8.835
   136   6 C        2.920    -0.050    29.246     8.868
   137   6 C        3.148     0.002    27.711     8.611
   138  16 S        2.255    -0.071   143.986    20.196
   139   6 C        2.922    -0.016    28.412     8.741
   140   6 C        3.007    -0.047    29.141     8.855
   141   6 C        2.877     0.230    23.187     7.894
   142   8 O        0.970    -0.407    21.768     6.258
   143   6 C        3.062    -0.022    28.500     8.754
   144   6 C        2.904    -0.023    28.575     8.765
   145   6 C        3.262     0.007    26.686     8.344
   146   6 C        3.258     0.009    26.689     8.351
   147   6 C        2.905    -0.035    28.867     8.810
   148   6 C        3.051     0.004    27.896     8.662
   149   6 C        3.024     0.033    27.248     8.562
   150   6 C        2.947    -0.002    28.068     8.689
   151   6 C        1.949     0.127    27.955     8.538
   152   7 N        0.911    -0.287    27.410     7.572
   153   6 C        1.950     0.132    27.845     8.522
   154   7 N        0.911    -0.282    27.279     7.554
   155   6 C        4.164    -0.024    20.923     6.496
   156   6 C        4.012    -0.015    20.768     6.474
   157   6 C        2.988    -0.041    29.013     8.836
   158   6 C        2.988    -0.042    29.035     8.839
   159   6 C        4.012    -0.015    20.768     6.474
   160   6 C        3.926    -0.060    21.589     6.603
   161   6 C        4.161    -0.024    20.922     6.496
   162   1 H        0.925     0.073     2.057     2.243
   163   1 H        0.926     0.060     2.197     2.318
   164   1 H        0.926     0.060     2.200     2.319
   165   1 H        0.925     0.051     2.312     2.378
   166   1 H        0.925     0.040     2.448     2.447
   167   1 H        0.926     0.033     2.548     2.496
   168   1 H        0.926     0.032     2.555     2.500
   169   1 H        0.925     0.038     2.479     2.462
   170   1 H        0.925     0.042     2.422     2.434
   171   1 H        0.925     0.043     2.408     2.427
   172   1 H        0.925     0.049     2.339     2.391
   173   1 H        0.926     0.084     1.940     2.178
   174   1 H        0.926     0.051     2.306     2.375
   175   1 H        0.926     0.046     2.369     2.407
   176   1 H        0.924     0.066     2.126     2.280
   177   1 H        0.924     0.066     2.131     2.283
   178   1 H        0.925     0.056     2.250     2.346
   179   1 H        0.925     0.055     2.263     2.353
   180   1 H        0.925     0.057     2.231     2.336
   181   1 H        0.926     0.051     2.306     2.375
   182   1 H        0.926     0.049     2.333     2.389
   183   1 H        0.924     0.066     2.132     2.283
   184   1 H        0.925     0.066     2.133     2.284
   185   1 H        0.925     0.055     2.259     2.351
   186   1 H        0.925     0.057     2.238     2.339
   187   1 H        0.925     0.055     2.260     2.351
   188   1 H        0.926     0.064     2.158     2.297
   189   1 H        0.924     0.083     1.950     2.184
   190   1 H        0.924     0.078     1.996     2.210
   191   1 H        0.925     0.059     2.210     2.325
   192   1 H        0.925     0.061     2.188     2.313
   193   1 H        0.925     0.056     2.245     2.343
   194   1 H        0.926     0.061     2.188     2.313
   195   1 H        0.924     0.079     1.993     2.208
   196   1 H        0.924     0.083     1.945     2.181
   197   1 H        0.925     0.059     2.206     2.323
   198   1 H        0.925     0.056     2.243     2.342
   199   1 H        0.925     0.062     2.181     2.310
   200   1 H        0.925     0.077     2.012     2.218
   201   1 H        0.924     0.083     1.951     2.184
   202   1 H        0.925     0.041     2.434     2.440
   203   1 H        0.925     0.050     2.320     2.382
   204   1 H        0.925     0.044     2.391     2.418
   205   1 H        0.924     0.064     2.152     2.294
   206   1 H        0.924     0.078     1.995     2.209
   207   1 H        0.925     0.053     2.285     2.364
   208   1 H        0.925     0.046     2.376     2.411
   209   1 H        0.925     0.062     2.179     2.309
   210   1 H        0.926     0.060     2.200     2.320
   211   1 H        0.926     0.027     2.627     2.535
   212   1 H        0.926     0.034     2.529     2.487
   213   1 H        0.925     0.043     2.414     2.429
   214   1 H        0.925     0.049     2.336     2.390
   215   1 H        0.925     0.049     2.327     2.386
   216   1 H        0.926     0.040     2.449     2.447
   217   1 H        0.926     0.041     2.441     2.443
   218   1 H        0.926     0.038     2.470     2.457
   219   1 H        0.926     0.041     2.441     2.443
   220   1 H        0.924     0.052     2.298     2.371
   221   1 H        0.925     0.044     2.394     2.420
   222   1 H        0.925     0.047     2.361     2.403
   223   1 H        0.926     0.036     2.502     2.474
   224   1 H        0.926     0.032     2.552     2.498
   225   1 H        0.926     0.042     2.419     2.432
   226   1 H        0.926     0.043     2.410     2.428
   227   1 H        0.924     0.054     2.269     2.355
   228   1 H        0.925     0.051     2.307     2.375
   229   1 H        0.925     0.048     2.350     2.397
   230   1 H        0.926     0.043     2.411     2.428
   231   1 H        0.926     0.036     2.497     2.471
   232   1 H        0.926     0.055     2.261     2.351
   233   1 H        0.926     0.047     2.359     2.402
   234   1 H        0.925     0.052     2.298     2.371
   235   1 H        0.925     0.052     2.299     2.371
   236   1 H        0.925     0.045     2.383     2.414
   237   1 H        0.926     0.038     2.482     2.464
   238   1 H        0.926     0.033     2.549     2.497
   239   1 H        0.925     0.066     2.134     2.284
   240   1 H        0.926     0.057     2.234     2.337
   241   1 H        0.926     0.056     2.247     2.344
   242   1 H        0.925     0.047     2.353     2.399
   243   1 H        0.925     0.038     2.473     2.459
   244   1 H        0.926     0.031     2.566     2.505
   245   1 H        0.926     0.032     2.565     2.504
   246   1 H        0.925     0.037     2.486     2.466
   247   1 H        0.925     0.041     2.439     2.442
   248   1 H        0.925     0.042     2.429     2.437
   249   1 H        0.925     0.047     2.362     2.404

 Mol. C6AA /au·bohr⁶  :    1108125.232072
 Mol. C8AA /au·bohr⁸  :   31941712.296988
 Mol. α(0) /au        :       1683.490640


Wiberg/Mayer (AO) data.
largest (>0.10) Wiberg bond orders for each atom

 ---------------------------------------------------------------------------
     #   Z sym  total        # sym  WBO       # sym  WBO       # sym  WBO
 ---------------------------------------------------------------------------
     1   6 C    3.935 --     2 C    1.511    24 C    1.261   162 H    0.947
     2   6 C    3.943 --     1 C    1.511    11 C    1.138     3 C    1.050
     3   6 C    3.908 --     4 O    1.674     2 C    1.050     5 C    1.036
     4   8 O    2.131 --     3 C    1.674    35 Se   0.169
     5   6 C    3.973 --     6 C    1.375    10 C    1.306     3 C    1.036
     6   6 C    3.980 --     7 C    1.445     5 C    1.375   163 H    0.962
     7   6 C    3.955 --     6 C    1.445     8 C    1.324    23 C    0.996
     8   6 C    3.963 --     9 C    1.448     7 C    1.324    17 C    0.998
     9   6 C    3.977 --     8 C    1.448    10 C    1.367   164 H    0.958
    10   6 C    3.979 --     9 C    1.367     5 C    1.306    11 C    1.088
    11   6 C    3.969 --    12 C    1.479     2 C    1.138    10 C    1.088
    12   6 C    3.948 --    11 C    1.479    13 C    1.100    15 C    1.098
    13   6 C    3.942 --    14 N    2.754    12 C    1.100
    14   7 N    2.960 --    13 C    2.754
    15   6 C    3.943 --    16 N    2.753    12 C    1.098
    16   7 N    2.955 --    15 C    2.753
    17   6 C    3.985 --     8 C    0.998    23 C    0.978   165 H    0.959
                            18 C    0.947
    18   6 C    3.989 --    19 C    1.010    22 C    0.985   166 H    0.972
                            17 C    0.947
    19   6 C    3.987 --    20 C    1.924    18 C    1.010   167 H    0.971
    20   6 C    3.987 --    19 C    1.924    21 C    1.010   168 H    0.971
    21   6 C    3.989 --    20 C    1.010    22 C    0.985   169 H    0.972
                            23 C    0.947
    22   6 C    3.993 --    21 C    0.985    18 C    0.985   170 H    0.977
                           171 H    0.976
    23   6 C    3.984 --     7 C    0.996    17 C    0.978   172 H    0.959
                            21 C    0.947
    24   6 C    3.929 --    25 C    1.448     1 C    1.261    48 S    1.066
    25   6 C    3.951 --    24 C    1.448    26 C    1.291   173 H    0.932
    26   6 C    3.967 --    25 C    1.291    47 C    1.233    27 C    1.224
    27   6 C    3.936 --    36 C    1.350    26 C    1.224    28 C    1.139
    28   6 C    3.945 --    29 C    1.498    27 C    1.139    35 Se   1.104
    29   6 C    3.956 --    28 C    1.498    30 C    1.315   174 H    0.952
    30   6 C    3.965 --    31 C    1.505    29 C    1.315   175 H    0.962
    31   6 C    3.910 --    30 C    1.505    35 Se   1.169    32 S    1.091
    32  16 S    2.291 --    31 C    1.091    33 C    0.971
    33   6 C    3.970 --    34 C    1.026    32 S    0.971   176 H    0.956
                           177 H    0.952
    34   6 C    3.989 --    33 C    1.026   178 H    0.984   180 H    0.984
                           179 H    0.978
    35  34 Se   2.957 --    31 C    1.169    28 C    1.104     4 O    0.169
    36   6 C    3.939 --    27 C    1.350    37 C    1.254    51 S    1.102
    37   6 C    3.961 --    36 C    1.254    49 C    1.250    38 C    1.241
    38   6 C    3.934 --    47 C    1.369    37 C    1.241    39 C    1.105
    39   6 C    3.954 --    40 C    1.543    46 Se   1.105    38 C    1.105
    40   6 C    3.963 --    39 C    1.543    41 C    1.276   181 H    0.953
    41   6 C    3.981 --    42 C    1.546    40 C    1.276   182 H    0.961
    42   6 C    3.920 --    41 C    1.546    46 Se   1.146    43 S    1.074
    43  16 S    2.279 --    42 C    1.074    44 C    0.973
    44   6 C    3.971 --    45 C    1.027    43 S    0.973   184 H    0.969
                           183 H    0.950
    45   6 C    3.993 --    44 C    1.027   186 H    0.984   187 H    0.977
                           185 H    0.971
    46  34 Se   2.726 --    42 C    1.146    39 C    1.105
    47   6 C    3.943 --    38 C    1.369    26 C    1.233    48 S    1.109
    48  16 S    2.491 --    47 C    1.109    24 C    1.066
    49   6 C    3.949 --    50 C    1.510    37 C    1.250   188 H    0.938
    50   6 C    3.925 --    49 C    1.510    52 C    1.165    51 S    1.103
    51  16 S    2.526 --    50 C    1.103    36 C    1.102
    52   6 C    3.928 --    88 C    1.498    50 C    1.165    53 S    1.108
    53  16 S    2.549 --    54 C    1.134    52 C    1.108
    54   6 C    3.938 --    87 C    1.310    55 C    1.288    53 S    1.134
    55   6 C    3.935 --    84 C    1.321    54 C    1.288    56 S    1.109
    56  16 S    2.525 --    57 C    1.113    55 C    1.109
    57   6 C    3.925 --    83 C    1.339    58 C    1.253    56 S    1.113
    58   6 C    3.959 --    81 C    1.289    57 C    1.253    59 C    1.175
    59   6 C    3.973 --    63 N    1.426    58 C    1.175    60 C    1.160
                            62 S    0.106
    60   6 C    3.972 --    61 N    1.428    64 C    1.173    59 C    1.160
                            62 S    0.104
    61   7 N    3.063 --    60 C    1.428    62 S    1.380    63 N    0.145
    62  16 S    3.094 --    63 N    1.381    61 N    1.380    59 C    0.106
                            60 C    0.104
    63   7 N    3.061 --    59 C    1.426    62 S    1.381    61 N    0.145
    64   6 C    3.957 --    80 C    1.274    65 C    1.267    60 C    1.173
    65   6 C    3.924 --    78 C    1.329    64 C    1.267    66 S    1.108
    66  16 S    2.513 --    65 C    1.108    67 C    1.106
    67   6 C    3.935 --    77 C    1.327    68 C    1.289    66 S    1.106
    68   6 C    3.936 --    69 C    1.308    67 C    1.289   100 S    1.129
    69   6 C    3.964 --    68 C    1.308    98 C    1.277    70 C    1.169
    70   6 C    3.968 --    71 N    1.371    76 C    1.221    69 C    1.169
    71   7 N    2.979 --    70 C    1.371    72 N    1.280    75 N    0.201
    72   7 N    3.732 --    71 N    1.280    75 N    1.266    73 C    0.980
    73   6 C    3.958 --    74 C    1.000    72 N    0.980   189 H    0.967
                           190 H    0.964
    74   6 C    3.985 --    73 C    1.000   193 H    0.986   191 H    0.985
                           192 H    0.982
    75   7 N    2.975 --    76 C    1.363    72 N    1.266    71 N    0.201
    76   6 C    3.971 --    75 N    1.363    70 C    1.221    77 C    1.177
    77   6 C    3.956 --    67 C    1.327    78 C    1.201    76 C    1.177
    78   6 C    3.935 --    65 C    1.329    77 C    1.201    79 N    1.166
    79   7 N    3.573 --    80 C    1.181    78 C    1.166    96 C    0.983
    80   6 C    3.935 --    64 C    1.274    81 C    1.214    79 N    1.181
    81   6 C    3.934 --    58 C    1.289    80 C    1.214    82 N    1.161
    82   7 N    3.528 --    81 C    1.161    83 C    1.150    94 C    0.972
    83   6 C    3.939 --    57 C    1.339    84 C    1.214    82 N    1.150
    84   6 C    3.962 --    55 C    1.321    83 C    1.214    85 C    1.176
    85   6 C    3.972 --    93 N    1.365    86 C    1.223    84 C    1.176
    86   6 C    3.969 --    89 N    1.371    85 C    1.223    87 C    1.168
    87   6 C    3.963 --    54 C    1.310    88 C    1.274    86 C    1.168
    88   6 C    3.957 --    52 C    1.498    87 C    1.274   194 H    0.960
    89   7 N    2.978 --    86 C    1.371    90 N    1.281    93 N    0.200
    90   7 N    3.734 --    89 N    1.281    93 N    1.267    91 C    0.980
    91   6 C    3.957 --    92 C    1.000    90 N    0.980   196 H    0.967
                           195 H    0.964
    92   6 C    3.984 --    91 C    1.000   198 H    0.986   197 H    0.985
                           199 H    0.982
    93   7 N    2.980 --    85 C    1.365    90 N    1.267    89 N    0.200
    94   6 C    3.954 --    95 C    1.005    82 N    0.972   200 H    0.958
                           201 H    0.957
    95   6 C    3.990 --    94 C    1.005   202 H    0.987   204 H    0.986
                           203 H    0.983
    96   6 C    3.959 --    97 C    1.004    79 N    0.983   205 H    0.965
                           206 H    0.958
    97   6 C    3.987 --    96 C    1.004   207 H    0.984   209 H    0.980
                           208 H    0.980
    98   6 C    3.951 --    99 C    1.488    69 C    1.277   210 H    0.958
    99   6 C    3.928 --    98 C    1.488   101 C    1.189   100 S    1.093
   100  16 S    2.556 --    68 C    1.129    99 C    1.093
   101   6 C    3.902 --   102 C    1.389    99 C    1.189   138 S    1.081
   102   6 C    3.951 --   101 C    1.389   118 C    1.225   103 N    1.103
   103   7 N    3.500 --   102 C    1.103   104 C    1.055   111 C    1.027
   104   6 C    3.963 --   105 C    1.371   110 C    1.352   103 N    1.055
   105   6 C    3.985 --   106 C    1.451   104 C    1.371   211 H    0.968
                           109 C    0.104
   106   6 C    3.990 --   105 C    1.451   107 C    1.409   212 H    0.968
                           110 C    0.102
   107   6 C    3.979 --   106 C    1.409   109 C    1.393   108 C    1.026
   108   6 C    3.996 --   107 C    1.026   213 H    0.986   214 H    0.973
                           215 H    0.972
   109   6 C    3.990 --   110 C    1.470   107 C    1.393   216 H    0.969
                           105 C    0.104
   110   6 C    3.984 --   109 C    1.470   104 C    1.352   217 H    0.967
                           106 C    0.102
   111   6 C    3.962 --   112 C    1.374   117 C    1.373   103 N    1.027
   112   6 C    3.984 --   113 C    1.459   111 C    1.374   218 H    0.967
                           116 C    0.104
   113   6 C    3.990 --   112 C    1.459   114 C    1.401   219 H    0.969
                           117 C    0.104
   114   6 C    3.976 --   116 C    1.406   113 C    1.401   115 C    1.027
   115   6 C    3.996 --   114 C    1.027   221 H    0.982   222 H    0.981
                           220 H    0.966
   116   6 C    3.990 --   117 C    1.454   114 C    1.406   223 H    0.969
                           112 C    0.104
   117   6 C    3.985 --   116 C    1.454   111 C    1.373   224 H    0.968
                           113 C    0.104
   118   6 C    3.943 --   137 C    1.342   102 C    1.225   119 S    1.136
   119  16 S    2.695 --   118 C    1.136   120 C    1.076   142 O    0.130
   120   6 C    3.925 --   139 C    1.367   121 C    1.251   119 S    1.076
   121   6 C    3.946 --   137 C    1.272   120 C    1.251   122 N    1.165
   122   7 N    3.535 --   121 C    1.165   130 C    1.037   123 C    1.027
   123   6 C    3.959 --   124 C    1.377   129 C    1.366   122 N    1.027
   124   6 C    3.975 --   125 C    1.454   123 C    1.377   225 H    0.967
                           128 C    0.104
   125   6 C    3.989 --   124 C    1.454   126 C    1.405   226 H    0.968
                           129 C    0.103
   126   6 C    3.973 --   125 C    1.405   128 C    1.398   127 C    1.028
   127   6 C    3.995 --   126 C    1.028   229 H    0.984   228 H    0.976
                           227 H    0.967
   128   6 C    3.989 --   129 C    1.461   126 C    1.398   230 H    0.969
                           124 C    0.104
   129   6 C    3.982 --   128 C    1.461   123 C    1.366   231 H    0.968
                           125 C    0.103
   130   6 C    3.959 --   136 C    1.368   131 C    1.365   122 N    1.037
   131   6 C    3.980 --   132 C    1.457   130 C    1.365   232 H    0.965
   132   6 C    3.990 --   131 C    1.457   133 C    1.403   233 H    0.968
                           136 C    0.106
   133   6 C    3.976 --   132 C    1.403   135 C    1.400   134 C    1.027
   134   6 C    3.995 --   133 C    1.027   236 H    0.985   235 H    0.975
                           234 H    0.968
   135   6 C    3.989 --   136 C    1.459   133 C    1.400   237 H    0.968
   136   6 C    3.985 --   135 C    1.459   130 C    1.368   238 H    0.968
                           132 C    0.106
   137   6 C    3.930 --   118 C    1.342   121 C    1.272   138 S    1.090
   138  16 S    2.508 --   137 C    1.090   101 C    1.081
   139   6 C    3.950 --   140 C    1.432   120 C    1.367   239 H    0.932
   140   6 C    3.949 --   139 C    1.432   149 C    1.170   141 C    1.079
   141   6 C    3.907 --   142 O    1.671   140 C    1.079   143 C    1.027
   142   8 O    2.074 --   141 C    1.671   119 S    0.130
   143   6 C    3.970 --   144 C    1.385   148 C    1.312   141 C    1.027
   144   6 C    3.980 --   145 C    1.438   143 C    1.385   240 H    0.964
   145   6 C    3.956 --   144 C    1.438   146 C    1.333   161 C    0.995
   146   6 C    3.966 --   147 C    1.443   145 C    1.333   155 C    0.997
   147   6 C    3.976 --   146 C    1.443   148 C    1.373   241 H    0.958
   148   6 C    3.977 --   147 C    1.373   143 C    1.312   149 C    1.081
   149   6 C    3.971 --   150 C    1.446   140 C    1.170   148 C    1.081
   150   6 C    3.948 --   149 C    1.446   151 C    1.110   153 C    1.106
   151   6 C    3.942 --   152 N    2.723   150 C    1.110
   152   7 N    2.952 --   151 C    2.723
   153   6 C    3.940 --   154 N    2.741   150 C    1.106
   154   7 N    2.950 --   153 C    2.741
   155   6 C    3.985 --   146 C    0.997   161 C    0.978   242 H    0.960
                           156 C    0.947
   156   6 C    3.990 --   157 C    1.010   160 C    0.985   243 H    0.972
                           155 C    0.947
   157   6 C    3.987 --   158 C    1.924   156 C    1.010   244 H    0.971
   158   6 C    3.987 --   157 C    1.924   159 C    1.010   245 H    0.971
   159   6 C    3.989 --   158 C    1.010   160 C    0.985   246 H    0.972
                           161 C    0.947
   160   6 C    3.993 --   156 C    0.985   159 C    0.985   247 H    0.978
                           248 H    0.977
   161   6 C    3.984 --   145 C    0.995   155 C    0.978   249 H    0.960
                           159 C    0.947
   162   1 H    0.992 --     1 C    0.947
   163   1 H    0.996 --     6 C    0.962
   164   1 H    0.996 --     9 C    0.958
   165   1 H    0.996 --    17 C    0.959
   166   1 H    0.998 --    18 C    0.972
   167   1 H    0.999 --    19 C    0.971
   168   1 H    0.999 --    20 C    0.971
   169   1 H    0.998 --    21 C    0.972
   170   1 H    0.998 --    22 C    0.977
   171   1 H    0.996 --    22 C    0.976
   172   1 H    0.996 --    23 C    0.959
   173   1 H    0.992 --    25 C    0.932
   174   1 H    0.997 --    29 C    0.952
   175   1 H    0.997 --    30 C    0.962
   176   1 H    0.995 --    33 C    0.956
   177   1 H    0.995 --    33 C    0.952
   178   1 H    0.997 --    34 C    0.984
   179   1 H    0.997 --    34 C    0.978
   180   1 H    0.997 --    34 C    0.984
   181   1 H    0.997 --    40 C    0.953
   182   1 H    0.997 --    41 C    0.961
   183   1 H    0.996 --    44 C    0.950
   184   1 H    0.995 --    44 C    0.969
   185   1 H    0.997 --    45 C    0.971
   186   1 H    0.997 --    45 C    0.984
   187   1 H    0.996 --    45 C    0.977
   188   1 H    0.995 --    49 C    0.938
   189   1 H    0.992 --    73 C    0.967
   190   1 H    0.992 --    73 C    0.964
   191   1 H    0.997 --    74 C    0.985
   192   1 H    0.996 --    74 C    0.982
   193   1 H    0.997 --    74 C    0.986
   194   1 H    0.996 --    88 C    0.960
   195   1 H    0.992 --    91 C    0.964
   196   1 H    0.992 --    91 C    0.967
   197   1 H    0.996 --    92 C    0.985
   198   1 H    0.997 --    92 C    0.986
   199   1 H    0.996 --    92 C    0.982
   200   1 H    0.993 --    94 C    0.958
   201   1 H    0.992 --    94 C    0.957
   202   1 H    0.998 --    95 C    0.987
   203   1 H    0.997 --    95 C    0.983
   204   1 H    0.998 --    95 C    0.986
   205   1 H    0.995 --    96 C    0.965
   206   1 H    0.992 --    96 C    0.958
   207   1 H    0.996 --    97 C    0.984
   208   1 H    0.998 --    97 C    0.980
   209   1 H    0.996 --    97 C    0.980
   210   1 H    0.996 --    98 C    0.958
   211   1 H    0.999 --   105 C    0.968
   212   1 H    0.998 --   106 C    0.968
   213   1 H    0.998 --   108 C    0.986
   214   1 H    0.996 --   108 C    0.973
   215   1 H    0.996 --   108 C    0.972
   216   1 H    0.998 --   109 C    0.969
   217   1 H    0.998 --   110 C    0.967
   218   1 H    0.998 --   112 C    0.967
   219   1 H    0.998 --   113 C    0.969
   220   1 H    0.996 --   115 C    0.966
   221   1 H    0.997 --   115 C    0.982
   222   1 H    0.997 --   115 C    0.981
   223   1 H    0.998 --   116 C    0.969
   224   1 H    0.999 --   117 C    0.968
   225   1 H    0.998 --   124 C    0.967
   226   1 H    0.998 --   125 C    0.968
   227   1 H    0.995 --   127 C    0.967
   228   1 H    0.996 --   127 C    0.976
   229   1 H    0.997 --   127 C    0.984
   230   1 H    0.997 --   128 C    0.969
   231   1 H    0.998 --   129 C    0.968
   232   1 H    0.997 --   131 C    0.965
   233   1 H    0.997 --   132 C    0.968
   234   1 H    0.996 --   134 C    0.968
   235   1 H    0.996 --   134 C    0.975
   236   1 H    0.998 --   134 C    0.985
   237   1 H    0.998 --   135 C    0.968
   238   1 H    0.999 --   136 C    0.968
   239   1 H    0.995 --   139 C    0.932
   240   1 H    0.996 --   144 C    0.964
   241   1 H    0.996 --   147 C    0.958
   242   1 H    0.996 --   155 C    0.960
   243   1 H    0.998 --   156 C    0.972
   244   1 H    0.999 --   157 C    0.971
   245   1 H    0.999 --   158 C    0.971
   246   1 H    0.998 --   159 C    0.972
   247   1 H    0.998 --   160 C    0.978
   248   1 H    0.996 --   160 C    0.977
   249   1 H    0.996 --   161 C    0.960
 ---------------------------------------------------------------------------

Topologies differ in bond orders
Writing corrected topology to xtbtopo.mol

molecular dipole:
                 x           y           z       tot (Debye)
 q only:        5.190      -0.946      -0.441
   full:        5.319      -1.328       0.113      13.938
molecular quadrupole (traceless):
                xx          xy          yy          xz          yz          zz
 q only:      231.853     179.846    -253.639     -42.629      28.635      21.786
  q+dip:      224.889     178.310    -260.536     -35.255      25.960      35.647
   full:      225.724     175.879    -262.411     -34.569      32.682      36.687


           -------------------------------------------------
          | TOTAL ENERGY             -420.414244597936 Eh   |
          | GRADIENT NORM               0.019970126988 Eh/α |
          | HOMO-LUMO GAP               0.479098641856 eV   |
           -------------------------------------------------

------------------------------------------------------------------------
 * finished run on 2022/02/24 at 10:48:05.282     
------------------------------------------------------------------------
 total:
 * wall-time:     0 d,  0 h,  0 min,  6.388 sec
 *  cpu-time:     0 d,  0 h,  0 min, 29.229 sec
 * ratio c/w:     4.576 speedup
 SCF:
 * wall-time:     0 d,  0 h,  0 min,  6.088 sec
 *  cpu-time:     0 d,  0 h,  0 min, 28.240 sec
 * ratio c/w:     4.639 speedup

