      -----------------------------------------------------------      
     |                   =====================                   |     
     |                           x T B                           |     
     |                   =====================                   |     
     |                         S. Grimme                         |     
     |          Mulliken Center for Theoretical Chemistry        |     
     |                    University of Bonn                     |     
      -----------------------------------------------------------      

   * xtb version 6.4.1 (unknown) compiled by 'oda6@login1.crc.pitt.edu' on 2021-06-25

   xtb is free software: you can redistribute it and/or modify it under
   the terms of the GNU Lesser General Public License as published by
   the Free Software Foundation, either version 3 of the License, or
   (at your option) any later version.
   
   xtb is distributed in the hope that it will be useful,
   but WITHOUT ANY WARRANTY; without even the implied warranty of
   MERCHANTABILITY or FITNESS FOR A PARTICULAR PURPOSE.  See the
   GNU Lesser General Public License for more details.
   
   Cite this work as:
   * C. Bannwarth, E. Caldeweyher, S. Ehlert, A. Hansen, P. Pracht,
     J. Seibert, S. Spicher, S. Grimme, WIREs Comput. Mol. Sci., 2020, 11,
     e01493. DOI: 10.1002/wcms.1493
   
   for GFN2-xTB:
   * C. Bannwarth, S. Ehlert and S. Grimme., J. Chem. Theory Comput., 2019,
     15, 1652-1671. DOI: 10.1021/acs.jctc.8b01176
   for GFN1-xTB:
   * S. Grimme, C. Bannwarth, P. Shushkov, J. Chem. Theory Comput., 2017,
     13, 1989-2009. DOI: 10.1021/acs.jctc.7b00118
   for GFN0-xTB:
   * P. Pracht, E. Caldeweyher, S. Ehlert, S. Grimme, ChemRxiv, 2019, preprint.
     DOI: 10.26434/chemrxiv.8326202.v1
   for GFN-FF:
   * S. Spicher and S. Grimme, Angew. Chem. Int. Ed., 2020, 59, 15665-15673.
     DOI: 10.1002/anie.202004239
   
   for DFT-D4:
   * E. Caldeweyher, C. Bannwarth and S. Grimme, J. Chem. Phys., 2017,
     147, 034112. DOI: 10.1063/1.4993215
   * E. Caldeweyher, S. Ehlert, A. Hansen, H. Neugebauer, S. Spicher,
     C. Bannwarth and S. Grimme, J. Chem. Phys., 2019, 150, 154122.
     DOI: 10.1063/1.5090222
   * E. Caldeweyher, J.-M. Mewes, S. Ehlert and S. Grimme, Phys. Chem. Chem. Phys.
     2020, 22, 8499-8512. DOI: 10.1039/D0CP00502A
   
   for sTDA-xTB:
   * S. Grimme and C. Bannwarth, J. Chem. Phys., 2016, 145, 054103.
     DOI: 10.1063/1.4959605
   
   in the mass-spec context:
   * V. Asgeirsson, C. Bauer and S. Grimme, Chem. Sci., 2017, 8, 4879.
     DOI: 10.1039/c7sc00601b
   * J. Koopman and S. Grimme, ACS Omega 2019, 4, 12, 15120-15133.
     DOI: 10.1021/acsomega.9b02011
   
   for metadynamics refer to:
   * S. Grimme, J. Chem. Theory Comput., 2019, 155, 2847-2862
     DOI: 10.1021/acs.jctc.9b00143
   
   for SPH calculations refer to:
   * S. Spicher and S. Grimme, J. Chem. Theory Comput., 2021, 17, 1701-1714
     DOI: 10.1021/acs.jctc.0c01306
   
   with help from (in alphabetical order)
   P. Atkinson, C. Bannwarth, F. Bohle, G. Brandenburg, E. Caldeweyher
   M. Checinski, S. Dohm, S. Ehlert, S. Ehrlich, I. Gerasimov, J. Koopman
   C. Lavigne, S. Lehtola, F. März, M. Müller, F. Musil, H. Neugebauer
   J. Pisarek, C. Plett, P. Pracht, J. Seibert, P. Shushkov, S. Spicher
   M. Stahn, M. Steiner, T. Strunk, J. Stückrath, T. Rose, and J. Unsleber
   
 * started run on 2022/02/15 at 14:21:29.350     

           -------------------------------------------------
          |                Calculation Setup                |
           -------------------------------------------------

          program call               : /ihome/ghutchison/oda6/xtb/xtb-641/bin/xtb ../../GFN2_output/39_28_86_71_8.mol --sp --alpb hexane
          hostname                   : smp-n25
          coordinate file            : ../../GFN2_output/39_28_86_71_8.mol
          omp threads                :                     8
          number of atoms            :                   246
          number of electrons        :                   754
          charge                     :                     0
          spin                       :                   0.0
          first test random number   :      0.38225056579863

   ID    Z sym.   atoms
    1    6 C      1-3, 5-13, 15, 17-25, 27-41, 43, 44, 46-60, 62-72, 74-77,
                  81, 82, 84-94, 96, 97, 99, 100, 102, 103, 105-117, 119-129,
                  131-134, 136, 137, 139-141, 143, 144, 146-148, 150-153, 155
    2    8 O      4, 142
    3    7 N      14, 16, 26, 45, 78, 80, 98, 101, 154, 156
    4   16 S      42, 61, 73, 79, 83, 95, 104, 118, 130, 135, 138, 145, 149
    5    1 H      157-246

           -------------------------------------------------
          |                 G F N 2 - x T B                 |
           -------------------------------------------------

        Reference                      10.1021/acs.jctc.8b01176
      * Hamiltonian:
        H0-scaling (s, p, d)           1.850000    2.230000    2.230000
        zeta-weighting                 0.500000
      * Dispersion:
        s8                             2.700000
        a1                             0.520000
        a2                             5.000000
        s9                             5.000000
      * Repulsion:
        kExp                           1.500000    1.000000
        rExp                           1.000000
      * Coulomb:
        alpha                          2.000000
        third order                    shell-resolved
        anisotropic                    true
        a3                             3.000000
        a5                             4.000000
        cn-shift                       1.200000
        cn-exp                         4.000000
        max-rad                        5.000000

      * Solvation model:               ALPB
        Solvent                        hexane
        Parameter file                 internal GFN2-xTB/ALPB
        Dielectric constant                1.8800E+00
        Reference state                gsolv [1 M gas/solution]
        Free energy shift                  4.8134E-03 Eh       3.0204E+00 kcal/mol
        Temperature                        2.9815E+02 K
        Density                            6.6000E-01 kg/L
        Solvent mass                       8.6180E+01 g/mol
        Interaction kernel             P16
        Born radius scaling (c1)           1.1040E+00
        Born radii integrator          GBOBC
        Born offset                        0.0000E+00 a0       0.0000E+00 AA
        H-bond correction              false
        Ion screening                  false
        Surface tension                    1.0000E-05 Eh       1.5569E+01 dyn/cm
        Grid points                               230 per atom

          ...................................................
          :                      SETUP                      :
          :.................................................:
          :  # basis functions                 792          :
          :  # atomic orbitals                 779          :
          :  # shells                          415          :
          :  # electrons                       754          :
          :  max. iterations                   250          :
          :  Hamiltonian                  GFN2-xTB          :
          :  restarted?                      false          :
          :  GBSA solvation                   true          :
          :  PC potential                    false          :
          :  electronic temp.          300.0000000     K    :
          :  accuracy                    1.0000000          :
          :  -> integral cutoff          0.2500000E+02      :
          :  -> integral neglect         0.1000000E-07      :
          :  -> SCF convergence          0.1000000E-05 Eh   :
          :  -> wf. convergence          0.1000000E-03 e    :
          :  Broyden damping             0.4000000          :
          ...................................................

 iter      E             dE          RMSdq      gap      omega  full diag
   1   -412.4574259 -0.412457E+03  0.421E+00    0.90       0.0  T
   2   -412.7387751 -0.281349E+00  0.245E+00    0.69       1.0  T
   3   -412.6085102  0.130265E+00  0.117E+00    0.39       1.0  T
   4   -412.7903850 -0.181875E+00  0.463E-01    0.49       1.0  T
   5   -412.8208679 -0.304829E-01  0.168E-01    0.32       1.0  T
   6   -412.8232754 -0.240747E-02  0.773E-02    0.38       1.0  T
   7   -412.8239579 -0.682534E-03  0.296E-02    0.36       1.0  T
   8   -412.8240180 -0.600783E-04  0.154E-02    0.36       1.0  T
   9   -412.8240340 -0.159785E-04  0.790E-03    0.36       1.0  T
  10   -412.8240394 -0.545697E-05  0.360E-03    0.36       1.8  T
  11   -412.8240405 -0.104342E-05  0.174E-03    0.36       3.7  T
  12   -412.8240406 -0.153510E-06  0.901E-04    0.36       7.1  T
  13   -412.8240406 -0.356458E-07  0.433E-04    0.36      14.7  T

   *** convergence criteria satisfied after 13 iterations ***

         #    Occupation            Energy/Eh            Energy/eV
      -------------------------------------------------------------
         1        2.0000           -0.7599803             -20.6801
       ...           ...                  ...                  ...
       371        2.0000           -0.3708726             -10.0920
       372        2.0000           -0.3671902              -9.9918
       373        2.0000           -0.3634032              -9.8887
       374        2.0000           -0.3601470              -9.8001
       375        2.0000           -0.3589888              -9.7686
       376        2.0000           -0.3579236              -9.7396
       377        1.9982           -0.3498550              -9.5200 (HOMO)
       378        0.0018           -0.3365138              -9.1570 (LUMO)
       379                         -0.3217375              -8.7549
       380                         -0.3197260              -8.7002
       381                         -0.3103560              -8.4452
       382                         -0.2970112              -8.0821
       ...                                ...                  ...
       779                          1.1629410              31.6452
      -------------------------------------------------------------
                  HL-Gap            0.0133412 Eh            0.3630 eV
             Fermi-level           -0.3431843 Eh           -9.3385 eV

 SCC (total)                   0 d,  0 h,  0 min,  1.010 sec
 SCC setup                      ...        0 min,  0.011 sec (  1.117%)
 Dispersion                     ...        0 min,  0.014 sec (  1.427%)
 classical contributions        ...        0 min,  0.000 sec (  0.049%)
 integral evaluation            ...        0 min,  0.054 sec (  5.334%)
 iterations                     ...        0 min,  0.760 sec ( 75.201%)
 molecular gradient             ...        0 min,  0.164 sec ( 16.197%)
 printout                       ...        0 min,  0.007 sec (  0.666%)

         :::::::::::::::::::::::::::::::::::::::::::::::::::::
         ::                     SUMMARY                     ::
         :::::::::::::::::::::::::::::::::::::::::::::::::::::
         :: total energy            -406.175728176836 Eh    ::
         :: total w/o Gsasa/hb      -406.033773595459 Eh    ::
         :: gradient norm              0.021048096173 Eh/a0 ::
         :: HOMO-LUMO gap              0.363031420262 eV    ::
         ::.................................................::
         :: SCC energy              -412.824040648499 Eh    ::
         :: -> isotropic ES            0.158918988491 Eh    ::
         :: -> anisotropic ES          0.030566071071 Eh    ::
         :: -> anisotropic XC          0.238345629180 Eh    ::
         :: -> dispersion             -0.431722988662 Eh    ::
         :: -> Gsolv                  -0.168745616507 Eh    ::
         ::    -> Gelec               -0.026791035130 Eh    ::
         ::    -> Gsasa               -0.146767937196 Eh    ::
         ::    -> Ghb                  0.000000000000 Eh    ::
         ::    -> Gshift               0.004813355820 Eh    ::
         :: repulsion energy           6.643004691445 Eh    ::
         :: add. restraining           0.000000000000 Eh    ::
         :: total charge              -0.000000000000 e     ::
         :::::::::::::::::::::::::::::::::::::::::::::::::::::

           -------------------------------------------------
          |                Property Printout                |
           -------------------------------------------------

    * Orbital Energies and Occupations

         #    Occupation            Energy/Eh            Energy/eV
      -------------------------------------------------------------
         1        2.0000           -0.7599803             -20.6801
       ...           ...                  ...                  ...
       365        2.0000           -0.3937462             -10.7144
       366        2.0000           -0.3912938             -10.6476
       367        2.0000           -0.3893628             -10.5951
       368        2.0000           -0.3885080             -10.5718
       369        2.0000           -0.3790064             -10.3133
       370        2.0000           -0.3775491             -10.2736
       371        2.0000           -0.3708726             -10.0920
       372        2.0000           -0.3671902              -9.9918
       373        2.0000           -0.3634032              -9.8887
       374        2.0000           -0.3601470              -9.8001
       375        2.0000           -0.3589888              -9.7686
       376        2.0000           -0.3579236              -9.7396
       377        1.9982           -0.3498550              -9.5200 (HOMO)
       378        0.0018           -0.3365138              -9.1570 (LUMO)
       379                         -0.3217375              -8.7549
       380                         -0.3197260              -8.7002
       381                         -0.3103560              -8.4452
       382                         -0.2970112              -8.0821
       383                         -0.2870327              -7.8106
       384                         -0.2793170              -7.6006
       385                         -0.2700719              -7.3490
       386                         -0.2636127              -7.1733
       387                         -0.2565758              -6.9818
       388                         -0.2481586              -6.7527
       ...                                ...                  ...
       779                          1.1629410              31.6452
      -------------------------------------------------------------
                  HL-Gap            0.0133412 Eh            0.3630 eV
             Fermi-level           -0.3431843 Eh           -9.3385 eV

     #   Z          covCN         q      C6AA      α(0)
     1   6 C        2.920    -0.016    28.418     8.742
     2   6 C        3.008    -0.045    29.103     8.849
     3   6 C        2.876     0.231    23.175     7.892
     4   8 O        0.955    -0.405    21.732     6.253
     5   6 C        3.062    -0.022    28.493     8.753
     6   6 C        2.904    -0.023    28.576     8.765
     7   6 C        3.260     0.008    26.681     8.346
     8   6 C        3.256     0.010    26.688     8.354
     9   6 C        2.904    -0.035    28.876     8.811
    10   6 C        3.050     0.004    27.887     8.661
    11   6 C        3.024     0.032    27.250     8.563
    12   6 C        2.947    -0.001    28.046     8.686
    13   6 C        1.948     0.132    27.843     8.521
    14   7 N        0.911    -0.281    27.247     7.549
    15   6 C        1.947     0.128    27.954     8.538
    16   7 N        0.911    -0.284    27.328     7.561
    17   6 C        4.162    -0.022    20.883     6.490
    18   6 C        4.013    -0.015    20.770     6.474
    19   6 C        2.995    -0.042    29.026     8.838
    20   6 C        2.995    -0.043    29.044     8.840
    21   6 C        4.013    -0.015    20.768     6.474
    22   6 C        3.915    -0.060    21.582     6.603
    23   6 C        4.161    -0.022    20.883     6.490
    24   6 C        2.985     0.007    27.866     8.659
    25   6 C        3.042     0.059    26.629     8.464
    26   7 N        2.748    -0.046    22.129     6.987
    27   6 C        2.932     0.060    26.655     8.467
    28   6 C        2.921    -0.044    29.084     8.844
    29   6 C        2.925    -0.039    28.976     8.828
    30   6 C        2.966     0.017    27.636     8.623
    31   6 C        3.758    -0.114    22.732     6.798
    32   6 C        2.926    -0.038    28.942     8.822
    33   6 C        2.921    -0.042    29.054     8.839
    34   6 C        2.925     0.057    26.717     8.477
    35   6 C        2.920    -0.040    29.006     8.832
    36   6 C        2.926    -0.037    28.922     8.819
    37   6 C        2.965     0.013    27.720     8.636
    38   6 C        3.758    -0.112    22.701     6.793
    39   6 C        2.925    -0.042    29.035     8.837
    40   6 C        2.920    -0.050    29.249     8.869
    41   6 C        3.145     0.002    27.732     8.616
    42  16 S        2.264    -0.061   143.582    20.168
    43   6 C        3.018     0.009    27.784     8.646
    44   6 C        3.062     0.050    26.818     8.492
    45   7 N        2.749    -0.082    22.825     7.096
    46   6 C        2.933     0.062    26.622     8.462
    47   6 C        2.920    -0.047    29.158     8.855
    48   6 C        2.926    -0.039    28.958     8.825
    49   6 C        2.966     0.011    27.765     8.643
    50   6 C        3.758    -0.111    22.673     6.789
    51   6 C        2.925    -0.040    29.006     8.832
    52   6 C        2.922    -0.050    29.233     8.867
    53   6 C        2.930     0.065    26.547     8.450
    54   6 C        2.925    -0.049    29.210     8.863
    55   6 C        2.924    -0.041    29.020     8.834
    56   6 C        2.966     0.008    27.845     8.655
    57   6 C        3.757    -0.113    22.710     6.794
    58   6 C        2.925    -0.041    29.010     8.833
    59   6 C        2.921    -0.048    29.204     8.862
    60   6 C        3.175    -0.001    27.643     8.587
    61  16 S        2.304    -0.009   141.427    20.016
    62   6 C        3.034     0.012    27.712     8.635
    63   6 C        3.112    -0.010    28.102     8.684
    64   6 C        2.974     0.011    27.755     8.642
    65   6 C        2.925    -0.036    28.900     8.816
    66   6 C        2.918    -0.031    28.767     8.795
    67   6 C        2.926    -0.039    28.981     8.828
    68   6 C        2.969     0.016    27.650     8.625
    69   6 C        3.807    -0.060    21.646     6.623
    70   6 C        3.753    -0.103    22.523     6.768
    71   6 C        2.933    -0.040    28.998     8.831
    72   6 C        3.185     0.009    27.356     8.535
    73  16 S        2.191    -0.052   143.208    20.141
    74   6 C        3.097     0.000    27.904     8.657
    75   6 C        3.081    -0.038    28.860     8.807
    76   6 C        3.337     0.069    24.089     7.770
    77   6 C        3.338     0.070    24.070     7.765
    78   7 N        1.853    -0.297    28.538     7.918
    79  16 S        2.682     0.326   128.451    19.075
    80   7 N        1.853    -0.296    28.514     7.914
    81   6 C        3.082    -0.041    28.916     8.815
    82   6 C        3.103     0.002    27.846     8.647
    83  16 S        2.179    -0.047   142.994    20.126
    84   6 C        3.196     0.010    27.258     8.511
    85   6 C        3.110    -0.006    28.014     8.671
    86   6 C        2.976     0.012    27.735     8.639
    87   6 C        2.925    -0.034    28.846     8.808
    88   6 C        2.918    -0.027    28.685     8.783
    89   6 C        2.926    -0.035    28.868     8.811
    90   6 C        2.971     0.017    27.635     8.623
    91   6 C        3.807    -0.058    21.611     6.618
    92   6 C        3.754    -0.095    22.361     6.743
    93   6 C        2.934    -0.038    28.946     8.824
    94   6 C        3.028     0.011    27.734     8.638
    95  16 S        2.273    -0.073   144.094    20.203
    96   6 C        3.120     0.005    27.739     8.626
    97   6 C        3.249     0.025    26.436     8.325
    98   7 N        2.798    -0.034    21.902     6.951
    99   6 C        3.081     0.028    27.298     8.565
   100   6 C        3.086     0.027    27.314     8.567
   101   7 N        2.794    -0.044    22.084     6.980
   102   6 C        3.268     0.028    26.125     8.247
   103   6 C        3.132     0.002    27.765     8.626
   104  16 S        2.265    -0.068   143.868    20.188
   105   6 C        3.744    -0.006    20.751     6.498
   106   6 C        3.752    -0.112    22.711     6.796
   107   6 C        3.741    -0.002    20.683     6.489
   108   6 C        3.751    -0.118    22.829     6.814
   109   6 C        3.025     0.035    27.202     8.555
   110   6 C        3.066    -0.058    29.371     8.887
   111   6 C        3.126     0.003    27.770     8.629
   112   6 C        2.996    -0.005    28.134     8.701
   113   6 C        2.978     0.016    27.655     8.626
   114   6 C        2.924    -0.037    28.925     8.820
   115   6 C        2.920    -0.032    28.798     8.800
   116   6 C        2.951    -0.036    28.906     8.818
   117   6 C        2.966     0.060    26.647     8.467
   118  16 S        2.053    -0.234   151.061    20.686
   119   6 C        3.793     0.006    20.488     6.446
   120   6 C        3.779    -0.104    22.502     6.758
   121   6 C        2.976    -0.036    28.886     8.816
   122   6 C        3.012     0.018    27.595     8.617
   123   6 C        3.118    -0.002    27.895     8.651
   124   6 C        2.994     0.000    28.013     8.682
   125   6 C        2.976     0.016    27.650     8.625
   126   6 C        2.923    -0.040    28.999     8.831
   127   6 C        2.920    -0.030    28.744     8.792
   128   6 C        2.943    -0.045    29.114     8.849
   129   6 C        2.965     0.054    26.786     8.489
   130  16 S        2.082    -0.195   149.332    20.567
   131   6 C        3.792     0.004    20.520     6.451
   132   6 C        3.795    -0.105    22.507     6.756
   133   6 C        2.997    -0.041    29.009     8.835
   134   6 C        3.008     0.026    27.418     8.589
   135  16 S        2.270    -0.075   144.193    20.210
   136   6 C        3.069    -0.040    28.931     8.819
   137   6 C        2.977     0.034    27.232     8.560
   138  16 S        2.303    -0.015   141.686    20.034
   139   6 C        2.918    -0.011    28.281     8.721
   140   6 C        3.022    -0.037    28.887     8.816
   141   6 C        2.875     0.236    23.071     7.874
   142   8 O        0.919    -0.386    21.372     6.200
   143   6 C        3.188    -0.035    28.379     8.691
   144   6 C        3.085     0.013    27.620     8.615
   145  16 S        2.202     0.036   139.598    19.886
   146   6 C        3.206     0.017    27.038     8.468
   147   6 C        3.063    -0.048    29.137     8.852
   148   6 C        2.957    -0.018    28.463     8.751
   149  16 S        2.244     0.031   139.789    19.899
   150   6 C        3.144     0.020    27.312     8.551
   151   6 C        3.028     0.034    27.219     8.558
   152   6 C        2.948     0.008    27.851     8.656
   153   6 C        1.935     0.130    27.909     8.531
   154   7 N        0.911    -0.256    26.637     7.464
   155   6 C        1.927     0.132    27.868     8.525
   156   7 N        0.911    -0.267    26.904     7.502
   157   1 H        0.925     0.066     2.126     2.280
   158   1 H        0.926     0.059     2.214     2.327
   159   1 H        0.926     0.056     2.250     2.346
   160   1 H        0.925     0.044     2.399     2.422
   161   1 H        0.925     0.039     2.462     2.454
   162   1 H        0.926     0.038     2.480     2.463
   163   1 H        0.926     0.037     2.488     2.467
   164   1 H        0.925     0.038     2.479     2.462
   165   1 H        0.925     0.039     2.457     2.451
   166   1 H        0.925     0.035     2.513     2.479
   167   1 H        0.925     0.043     2.407     2.426
   168   1 H        0.926     0.041     2.441     2.443
   169   1 H        0.926     0.041     2.433     2.439
   170   1 H        0.925     0.052     2.293     2.368
   171   1 H        0.925     0.058     2.221     2.331
   172   1 H        0.925     0.045     2.377     2.411
   173   1 H        0.926     0.045     2.387     2.416
   174   1 H        0.926     0.035     2.510     2.478
   175   1 H        0.926     0.054     2.269     2.356
   176   1 H        0.926     0.047     2.359     2.402
   177   1 H        0.924     0.052     2.296     2.370
   178   1 H        0.925     0.046     2.374     2.410
   179   1 H        0.925     0.052     2.293     2.368
   180   1 H        0.926     0.037     2.484     2.465
   181   1 H        0.926     0.031     2.569     2.506
   182   1 H        0.926     0.037     2.490     2.468
   183   1 H        0.926     0.038     2.481     2.463
   184   1 H        0.925     0.044     2.402     2.424
   185   1 H        0.924     0.050     2.321     2.383
   186   1 H        0.925     0.046     2.367     2.406
   187   1 H        0.926     0.034     2.530     2.487
   188   1 H        0.926     0.025     2.662     2.552
   189   1 H        0.926     0.029     2.604     2.523
   190   1 H        0.926     0.036     2.508     2.477
   191   1 H        0.925     0.045     2.389     2.417
   192   1 H        0.924     0.051     2.304     2.373
   193   1 H        0.925     0.043     2.407     2.426
   194   1 H        0.926     0.036     2.497     2.471
   195   1 H        0.926     0.038     2.470     2.458
   196   1 H        0.926     0.026     2.643     2.542
   197   1 H        0.926     0.035     2.517     2.481
   198   1 H        0.926     0.034     2.527     2.486
   199   1 H        0.924     0.045     2.384     2.415
   200   1 H        0.924     0.037     2.489     2.467
   201   1 H        0.925     0.038     2.470     2.458
   202   1 H        0.925     0.041     2.435     2.440
   203   1 H        0.925     0.038     2.482     2.463
   204   1 H        0.926     0.044     2.395     2.420
   205   1 H        0.926     0.036     2.502     2.473
   206   1 H        0.926     0.040     2.454     2.449
   207   1 H        0.926     0.037     2.487     2.466
   208   1 H        0.924     0.040     2.447     2.446
   209   1 H        0.924     0.039     2.459     2.452
   210   1 H        0.925     0.032     2.564     2.504
   211   1 H        0.925     0.034     2.525     2.485
   212   1 H        0.925     0.037     2.491     2.468
   213   1 H        0.925     0.034     2.529     2.487
   214   1 H        0.924     0.064     2.152     2.294
   215   1 H        0.925     0.078     2.003     2.213
   216   1 H        0.925     0.045     2.380     2.413
   217   1 H        0.925     0.054     2.275     2.359
   218   1 H        0.925     0.050     2.318     2.381
   219   1 H        0.924     0.063     2.168     2.303
   220   1 H        0.924     0.067     2.121     2.277
   221   1 H        0.925     0.050     2.325     2.385
   222   1 H        0.925     0.062     2.181     2.309
   223   1 H        0.925     0.058     2.226     2.333
   224   1 H        0.926     0.054     2.273     2.358
   225   1 H        0.926     0.041     2.436     2.441
   226   1 H        0.926     0.041     2.437     2.441
   227   1 H        0.926     0.044     2.401     2.423
   228   1 H        0.925     0.055     2.263     2.353
   229   1 H        0.925     0.044     2.391     2.418
   230   1 H        0.925     0.064     2.150     2.293
   231   1 H        0.925     0.039     2.458     2.452
   232   1 H        0.925     0.042     2.420     2.433
   233   1 H        0.926     0.055     2.257     2.349
   234   1 H        0.926     0.041     2.432     2.439
   235   1 H        0.926     0.043     2.404     2.425
   236   1 H        0.926     0.041     2.434     2.440
   237   1 H        0.925     0.049     2.335     2.389
   238   1 H        0.925     0.051     2.310     2.377
   239   1 H        0.925     0.050     2.325     2.384
   240   1 H        0.925     0.051     2.305     2.374
   241   1 H        0.925     0.053     2.284     2.363
   242   1 H        0.926     0.049     2.329     2.387
   243   1 H        0.926     0.062     2.180     2.309
   244   1 H        0.925     0.075     2.034     2.230
   245   1 H        0.926     0.066     2.133     2.284
   246   1 H        0.926     0.071     2.073     2.251

 Mol. C6AA /au·bohr⁶  :    1064241.461249
 Mol. C8AA /au·bohr⁸  :   30175981.465400
 Mol. α(0) /au        :       1655.668010


Wiberg/Mayer (AO) data.
largest (>0.10) Wiberg bond orders for each atom

 ---------------------------------------------------------------------------
     #   Z sym  total        # sym  WBO       # sym  WBO       # sym  WBO
 ---------------------------------------------------------------------------
     1   6 C    3.950 --     2 C    1.447    24 C    1.355   157 H    0.931
     2   6 C    3.951 --     1 C    1.447    11 C    1.163     3 C    1.074
     3   6 C    3.907 --     4 O    1.678     2 C    1.074     5 C    1.027
     4   8 O    2.075 --     3 C    1.678    61 S    0.125
     5   6 C    3.969 --     6 C    1.382    10 C    1.313     3 C    1.027
     6   6 C    3.979 --     7 C    1.440     5 C    1.382   158 H    0.964
     7   6 C    3.956 --     6 C    1.440     8 C    1.329    23 C    0.992
     8   6 C    3.966 --     9 C    1.445     7 C    1.329    17 C    0.993
     9   6 C    3.975 --     8 C    1.445    10 C    1.369   159 H    0.958
    10   6 C    3.977 --     9 C    1.369     5 C    1.313    11 C    1.082
    11   6 C    3.971 --    12 C    1.450     2 C    1.163    10 C    1.082
    12   6 C    3.949 --    11 C    1.450    15 C    1.109    13 C    1.106
    13   6 C    3.940 --    14 N    2.743    12 C    1.106
    14   7 N    2.951 --    13 C    2.743
    15   6 C    3.942 --    16 N    2.727    12 C    1.109
    16   7 N    2.954 --    15 C    2.727
    17   6 C    3.985 --     8 C    0.993    23 C    0.975   160 H    0.962
                            18 C    0.951
    18   6 C    3.989 --    19 C    1.004    22 C    0.989   161 H    0.971
                            17 C    0.951
    19   6 C    3.982 --    20 C    1.923    18 C    1.004   162 H    0.971
    20   6 C    3.982 --    19 C    1.923    21 C    1.004   163 H    0.971
    21   6 C    3.989 --    20 C    1.004    22 C    0.989   164 H    0.971
                            23 C    0.951
    22   6 C    3.994 --    21 C    0.989    18 C    0.989   165 H    0.978
                           166 H    0.974
    23   6 C    3.984 --     7 C    0.992    17 C    0.975   167 H    0.962
                            21 C    0.951
    24   6 C    3.926 --     1 C    1.355    25 C    1.263    61 S    1.077
    25   6 C    3.946 --    41 C    1.268    24 C    1.263    26 N    1.156
    26   7 N    3.531 --    25 C    1.156    34 C    1.034    27 C    1.034
    27   6 C    3.959 --    28 C    1.374    33 C    1.364    26 N    1.034
    28   6 C    3.975 --    29 C    1.454    27 C    1.374   168 H    0.967
                            32 C    0.105
    29   6 C    3.990 --    28 C    1.454    30 C    1.406   169 H    0.968
                            33 C    0.102
    30   6 C    3.971 --    29 C    1.406    32 C    1.396    31 C    1.028
    31   6 C    3.994 --    30 C    1.028   172 H    0.985   170 H    0.969
                           171 H    0.967
    32   6 C    3.989 --    33 C    1.464    30 C    1.396   173 H    0.968
                            28 C    0.105
    33   6 C    3.981 --    32 C    1.464    27 C    1.364   174 H    0.967
                            29 C    0.102
    34   6 C    3.960 --    35 C    1.367    40 C    1.367    26 N    1.034
    35   6 C    3.981 --    36 C    1.455    34 C    1.367   175 H    0.965
    36   6 C    3.990 --    35 C    1.455    37 C    1.404   176 H    0.968
                            40 C    0.106
    37   6 C    3.979 --    36 C    1.404    39 C    1.399    38 C    1.028
    38   6 C    3.995 --    37 C    1.028   178 H    0.985   179 H    0.976
                           177 H    0.967
    39   6 C    3.989 --    40 C    1.460    37 C    1.399   180 H    0.968
    40   6 C    3.985 --    39 C    1.460    34 C    1.367   181 H    0.968
                            36 C    0.106
    41   6 C    3.932 --    60 C    1.344    25 C    1.268    42 S    1.097
    42  16 S    2.529 --    41 C    1.097    43 C    1.085
    43   6 C    3.902 --    44 C    1.438    62 C    1.156    42 S    1.085
    44   6 C    3.951 --    43 C    1.438    60 C    1.226    45 N    1.054
    45   7 N    3.461 --    53 C    1.061    44 C    1.054    46 C    1.047
    46   6 C    3.963 --    52 C    1.368    47 C    1.364    45 N    1.047
    47   6 C    3.984 --    48 C    1.463    46 C    1.364   182 H    0.967
                            51 C    0.103
    48   6 C    3.990 --    47 C    1.463    49 C    1.398   183 H    0.969
                            52 C    0.104
    49   6 C    3.977 --    51 C    1.406    48 C    1.398    50 C    1.026
    50   6 C    3.996 --    49 C    1.026   184 H    0.984   186 H    0.979
                           185 H    0.968
    51   6 C    3.991 --    52 C    1.455    49 C    1.406   187 H    0.969
                            47 C    0.103
    52   6 C    3.984 --    51 C    1.455    46 C    1.368   188 H    0.968
                            48 C    0.104
    53   6 C    3.965 --    54 C    1.359    59 C    1.353    45 N    1.061
    54   6 C    3.985 --    55 C    1.447    53 C    1.359   189 H    0.967
    55   6 C    3.990 --    54 C    1.447    56 C    1.411   190 H    0.969
                            59 C    0.104
    56   6 C    3.978 --    55 C    1.411    58 C    1.390    57 C    1.025
    57   6 C    3.996 --    56 C    1.025   193 H    0.983   191 H    0.981
                           192 H    0.967
    58   6 C    3.990 --    59 C    1.471    56 C    1.390   194 H    0.968
    59   6 C    3.986 --    58 C    1.471    53 C    1.353   195 H    0.968
                            55 C    0.104
    60   6 C    3.943 --    41 C    1.344    44 C    1.226    61 S    1.139
    61  16 S    2.680 --    60 C    1.139    24 C    1.077     4 O    0.125
    62   6 C    3.914 --    63 C    1.441    43 C    1.156   104 S    1.087
    63   6 C    3.960 --    62 C    1.441    72 C    1.254    64 C    1.047
    64   6 C    3.987 --    71 C    1.397    65 C    1.371    63 C    1.047
                            67 C    0.100
    65   6 C    3.989 --    66 C    1.457    64 C    1.371   196 H    0.969
                            68 C    0.105
    66   6 C    3.991 --    65 C    1.457    67 C    1.429   197 H    0.970
                            71 C    0.105
    67   6 C    3.983 --    66 C    1.429    68 C    1.413   198 H    0.966
                            64 C    0.100
    68   6 C    3.987 --    71 C    1.413    67 C    1.413    69 C    1.012
                            65 C    0.105
    69   6 C    3.996 --    68 C    1.012    70 C    1.004   200 H    0.976
                           199 H    0.967
    70   6 C    3.995 --    69 C    1.004   203 H    0.987   201 H    0.986
                           202 H    0.986
    71   6 C    3.985 --    68 C    1.413    64 C    1.397   204 H    0.963
                            66 C    0.105
    72   6 C    3.926 --   103 C    1.357    63 C    1.254    73 S    1.092
    73  16 S    2.502 --    74 C    1.104    72 C    1.092
    74   6 C    3.925 --   102 C    1.329    75 C    1.255    73 S    1.104
    75   6 C    3.957 --   100 C    1.282    74 C    1.255    76 C    1.177
    76   6 C    3.972 --    80 N    1.425    75 C    1.177    77 C    1.160
                            79 S    0.105
    77   6 C    3.971 --    78 N    1.426    81 C    1.175    76 C    1.160
                            79 S    0.104
    78   7 N    3.062 --    77 C    1.426    79 S    1.383    80 N    0.145
    79  16 S    3.096 --    80 N    1.384    78 N    1.383    76 C    0.105
                            77 C    0.104
    80   7 N    3.063 --    76 C    1.425    79 S    1.384    78 N    0.145
    81   6 C    3.956 --    99 C    1.276    82 C    1.262    77 C    1.175
    82   6 C    3.923 --    97 C    1.316    81 C    1.262    83 S    1.110
    83  16 S    2.510 --    82 C    1.110    84 C    1.094
    84   6 C    3.925 --    96 C    1.348    85 C    1.266    83 S    1.094
    85   6 C    3.955 --    94 C    1.444    84 C    1.266    86 C    1.022
    86   6 C    3.987 --    87 C    1.390    93 C    1.389    85 C    1.022
                            89 C    0.103
    87   6 C    3.984 --    88 C    1.443    86 C    1.390   205 H    0.970
                            90 C    0.105
    88   6 C    3.989 --    87 C    1.443    89 C    1.441   206 H    0.969
                            93 C    0.107
    89   6 C    3.986 --    88 C    1.441    90 C    1.408   207 H    0.968
                            86 C    0.103
    90   6 C    3.986 --    93 C    1.415    89 C    1.408    91 C    1.012
                            87 C    0.105
    91   6 C    3.996 --    90 C    1.012    92 C    1.001   209 H    0.975
                           208 H    0.973
    92   6 C    3.996 --    91 C    1.001   211 H    0.987   212 H    0.986
                           210 H    0.986
    93   6 C    3.988 --    90 C    1.415    86 C    1.389   213 H    0.968
                            88 C    0.107
    94   6 C    3.915 --    85 C    1.444   109 C    1.180    95 S    1.073
    95  16 S    2.528 --    96 C    1.112    94 C    1.073
    96   6 C    3.927 --    84 C    1.348    97 C    1.241    95 S    1.112
    97   6 C    3.939 --    82 C    1.316    96 C    1.241    98 N    1.154
    98   7 N    3.554 --    99 C    1.170    97 C    1.154   107 C    0.980
    99   6 C    3.935 --    81 C    1.276   100 C    1.222    98 N    1.170
   100   6 C    3.936 --    75 C    1.282    99 C    1.222   101 N    1.161
   101   7 N    3.535 --   100 C    1.161   102 C    1.151   105 C    0.975
   102   6 C    3.941 --    74 C    1.329   103 C    1.234   101 N    1.151
   103   6 C    3.934 --    72 C    1.357   102 C    1.234   104 S    1.117
   104  16 S    2.589 --   103 C    1.117    62 C    1.087
   105   6 C    3.959 --   106 C    1.006   101 N    0.975   214 H    0.966
                           215 H    0.958
   106   6 C    3.989 --   105 C    1.006   216 H    0.987   218 H    0.983
                           217 H    0.982
   107   6 C    3.961 --   108 C    1.008    98 N    0.980   220 H    0.966
                           219 H    0.964
   108   6 C    3.987 --   107 C    1.008   223 H    0.983   221 H    0.978
                           222 H    0.978
   109   6 C    3.924 --   110 C    1.514    94 C    1.180   135 S    1.088
   110   6 C    3.943 --   109 C    1.514   111 C    1.245   224 H    0.954
   111   6 C    3.962 --   112 C    1.290   110 C    1.245   134 C    1.222
   112   6 C    3.958 --   122 C    1.382   111 C    1.290   113 C    1.040
   113   6 C    3.987 --   121 C    1.390   114 C    1.384   112 C    1.040
                           116 C    0.102
   114   6 C    3.986 --   115 C    1.443   113 C    1.384   225 H    0.968
   115   6 C    3.990 --   114 C    1.443   116 C    1.439   226 H    0.969
                           121 C    0.104
   116   6 C    3.984 --   115 C    1.439   117 C    1.399   227 H    0.967
                           113 C    0.102
   117   6 C    3.967 --   121 C    1.414   116 C    1.399   118 S    1.008
   118  16 S    2.142 --   117 C    1.008   119 C    0.969
   119   6 C    3.975 --   120 C    1.028   229 H    0.974   228 H    0.971
                           118 S    0.969
   120   6 C    3.992 --   119 C    1.028   231 H    0.985   230 H    0.982
                           232 H    0.978
   121   6 C    3.983 --   117 C    1.414   113 C    1.390   233 H    0.963
                           115 C    0.104
   122   6 C    3.955 --   112 C    1.382   123 C    1.222   138 S    1.124
   123   6 C    3.967 --   136 C    1.299   124 C    1.247   122 C    1.222
   124   6 C    3.955 --   134 C    1.416   123 C    1.247   125 C    1.047
   125   6 C    3.986 --   133 C    1.402   126 C    1.367   124 C    1.047
   126   6 C    3.983 --   127 C    1.450   125 C    1.367   234 H    0.968
   127   6 C    3.990 --   126 C    1.450   128 C    1.431   235 H    0.968
                           133 C    0.103
   128   6 C    3.981 --   127 C    1.431   129 C    1.387   236 H    0.966
   129   6 C    3.964 --   128 C    1.387   133 C    1.385   130 S    1.049
   130  16 S    2.239 --   129 C    1.049   131 C    0.977
   131   6 C    3.974 --   132 C    1.025   130 S    0.977   237 H    0.975
                           238 H    0.974
   132   6 C    3.992 --   131 C    1.025   240 H    0.986   241 H    0.985
                           239 H    0.979
   133   6 C    3.981 --   125 C    1.402   129 C    1.385   242 H    0.961
                           127 C    0.103
   134   6 C    3.943 --   124 C    1.416   111 C    1.222   135 S    1.090
   135  16 S    2.531 --   134 C    1.090   109 C    1.088
   136   6 C    3.945 --   137 C    1.432   123 C    1.299   243 H    0.959
                           138 S    0.105
   137   6 C    3.941 --   136 C    1.432   139 C    1.260   138 S    1.097
   138  16 S    2.645 --   122 C    1.124   137 C    1.097   136 C    0.105
   139   6 C    3.941 --   140 C    1.540   137 C    1.260   244 H    0.940
   140   6 C    3.943 --   139 C    1.540   151 C    1.113   141 C    1.043
   141   6 C    3.919 --   142 O    1.704   140 C    1.043   143 C    1.038
   142   8 O    2.089 --   141 C    1.704
   143   6 C    3.958 --   144 C    1.371   150 C    1.274   141 C    1.038
   144   6 C    3.940 --   143 C    1.371   145 S    1.171   151 C    1.151
   145  16 S    2.647 --   144 C    1.171   146 C    1.126
   146   6 C    3.932 --   150 C    1.334   147 C    1.269   145 S    1.126
   147   6 C    3.982 --   148 C    1.613   146 C    1.269   245 H    0.961
   148   6 C    3.918 --   147 C    1.613   149 S    1.185   246 H    0.967
   149  16 S    2.615 --   148 C    1.185   150 C    1.140
   150   6 C    3.950 --   146 C    1.334   143 C    1.274   149 S    1.140
   151   6 C    3.968 --   152 C    1.448   144 C    1.151   140 C    1.113
   152   6 C    3.938 --   151 C    1.448   155 C    1.110   153 C    1.101
   153   6 C    3.944 --   154 N    2.759   152 C    1.101
   154   7 N    2.966 --   153 C    2.759
   155   6 C    3.943 --   156 N    2.744   152 C    1.110
   156   7 N    2.947 --   155 C    2.744
   157   1 H    0.995 --     1 C    0.931
   158   1 H    0.996 --     6 C    0.964
   159   1 H    0.996 --     9 C    0.958
   160   1 H    0.997 --    17 C    0.962
   161   1 H    0.998 --    18 C    0.971
   162   1 H    0.998 --    19 C    0.971
   163   1 H    0.998 --    20 C    0.971
   164   1 H    0.998 --    21 C    0.971
   165   1 H    0.998 --    22 C    0.978
   166   1 H    0.999 --    22 C    0.974
   167   1 H    0.996 --    23 C    0.962
   168   1 H    0.998 --    28 C    0.967
   169   1 H    0.998 --    29 C    0.968
   170   1 H    0.996 --    31 C    0.969
   171   1 H    0.995 --    31 C    0.967
   172   1 H    0.998 --    31 C    0.985
   173   1 H    0.997 --    32 C    0.968
   174   1 H    0.998 --    33 C    0.967
   175   1 H    0.997 --    35 C    0.965
   176   1 H    0.997 --    36 C    0.968
   177   1 H    0.996 --    38 C    0.967
   178   1 H    0.998 --    38 C    0.985
   179   1 H    0.996 --    38 C    0.976
   180   1 H    0.998 --    39 C    0.968
   181   1 H    0.999 --    40 C    0.968
   182   1 H    0.998 --    47 C    0.967
   183   1 H    0.998 --    48 C    0.969
   184   1 H    0.998 --    50 C    0.984
   185   1 H    0.996 --    50 C    0.968
   186   1 H    0.997 --    50 C    0.979
   187   1 H    0.998 --    51 C    0.969
   188   1 H    0.999 --    52 C    0.968
   189   1 H    0.999 --    54 C    0.967
   190   1 H    0.998 --    55 C    0.969
   191   1 H    0.997 --    57 C    0.981
   192   1 H    0.995 --    57 C    0.967
   193   1 H    0.998 --    57 C    0.983
   194   1 H    0.998 --    58 C    0.968
   195   1 H    0.998 --    59 C    0.968
   196   1 H    0.999 --    65 C    0.969
   197   1 H    0.998 --    66 C    0.970
   198   1 H    0.998 --    67 C    0.966
   199   1 H    0.998 --    69 C    0.967
   200   1 H    0.998 --    69 C    0.976
   201   1 H    0.998 --    70 C    0.986
   202   1 H    0.998 --    70 C    0.986
   203   1 H    0.999 --    70 C    0.987
   204   1 H    0.998 --    71 C    0.963
   205   1 H    0.998 --    87 C    0.970
   206   1 H    0.997 --    88 C    0.969
   207   1 H    0.998 --    89 C    0.968
   208   1 H    0.998 --    91 C    0.973
   209   1 H    0.998 --    91 C    0.975
   210   1 H    0.999 --    92 C    0.986
   211   1 H    0.999 --    92 C    0.987
   212   1 H    0.998 --    92 C    0.986
   213   1 H    0.999 --    93 C    0.968
   214   1 H    0.994 --   105 C    0.966
   215   1 H    0.993 --   105 C    0.958
   216   1 H    0.998 --   106 C    0.987
   217   1 H    0.997 --   106 C    0.982
   218   1 H    0.997 --   106 C    0.983
   219   1 H    0.994 --   107 C    0.964
   220   1 H    0.995 --   107 C    0.966
   221   1 H    0.997 --   108 C    0.978
   222   1 H    0.996 --   108 C    0.978
   223   1 H    0.996 --   108 C    0.983
   224   1 H    0.996 --   110 C    0.954
   225   1 H    0.998 --   114 C    0.968
   226   1 H    0.998 --   115 C    0.969
   227   1 H    0.998 --   116 C    0.967
   228   1 H    0.996 --   119 C    0.971
   229   1 H    0.998 --   119 C    0.974
   230   1 H    0.996 --   120 C    0.982
   231   1 H    0.998 --   120 C    0.985
   232   1 H    0.998 --   120 C    0.978
   233   1 H    0.997 --   121 C    0.963
   234   1 H    0.997 --   126 C    0.968
   235   1 H    0.997 --   127 C    0.968
   236   1 H    0.998 --   128 C    0.966
   237   1 H    0.997 --   131 C    0.975
   238   1 H    0.997 --   131 C    0.974
   239   1 H    0.997 --   132 C    0.979
   240   1 H    0.997 --   132 C    0.986
   241   1 H    0.997 --   132 C    0.985
   242   1 H    0.997 --   133 C    0.961
   243   1 H    0.995 --   136 C    0.959
   244   1 H    0.993 --   139 C    0.940
   245   1 H    0.995 --   147 C    0.961
   246   1 H    0.994 --   148 C    0.967
 ---------------------------------------------------------------------------

Topologies differ in bond orders
Writing corrected topology to xtbtopo.mol

molecular dipole:
                 x           y           z       tot (Debye)
 q only:        0.437      -1.101       0.447
   full:        1.092      -1.573       0.259       4.912
molecular quadrupole (traceless):
                xx          xy          yy          xz          yz          zz
 q only:      135.540     -35.986      78.783     -18.334      28.925    -214.324
  q+dip:      129.144     -34.442      73.935     -18.702      14.665    -203.079
   full:      129.031     -22.972      79.401     -21.636      10.778    -208.432


           -------------------------------------------------
          | TOTAL ENERGY             -406.175728176836 Eh   |
          | GRADIENT NORM               0.021048096173 Eh/α |
          | HOMO-LUMO GAP               0.363031420262 eV   |
           -------------------------------------------------

------------------------------------------------------------------------
 * finished run on 2022/02/15 at 14:21:30.485     
------------------------------------------------------------------------
 total:
 * wall-time:     0 d,  0 h,  0 min,  1.135 sec
 *  cpu-time:     0 d,  0 h,  0 min,  8.968 sec
 * ratio c/w:     7.902 speedup
 SCF:
 * wall-time:     0 d,  0 h,  0 min,  1.014 sec
 *  cpu-time:     0 d,  0 h,  0 min,  8.095 sec
 * ratio c/w:     7.985 speedup

