      -----------------------------------------------------------      
     |                   =====================                   |     
     |                           x T B                           |     
     |                   =====================                   |     
     |                         S. Grimme                         |     
     |          Mulliken Center for Theoretical Chemistry        |     
     |                    University of Bonn                     |     
      -----------------------------------------------------------      

   * xtb version 6.4.1 (unknown) compiled by 'oda6@login1.crc.pitt.edu' on 2021-06-25

   xtb is free software: you can redistribute it and/or modify it under
   the terms of the GNU Lesser General Public License as published by
   the Free Software Foundation, either version 3 of the License, or
   (at your option) any later version.
   
   xtb is distributed in the hope that it will be useful,
   but WITHOUT ANY WARRANTY; without even the implied warranty of
   MERCHANTABILITY or FITNESS FOR A PARTICULAR PURPOSE.  See the
   GNU Lesser General Public License for more details.
   
   Cite this work as:
   * C. Bannwarth, E. Caldeweyher, S. Ehlert, A. Hansen, P. Pracht,
     J. Seibert, S. Spicher, S. Grimme, WIREs Comput. Mol. Sci., 2020, 11,
     e01493. DOI: 10.1002/wcms.1493
   
   for GFN2-xTB:
   * C. Bannwarth, S. Ehlert and S. Grimme., J. Chem. Theory Comput., 2019,
     15, 1652-1671. DOI: 10.1021/acs.jctc.8b01176
   for GFN1-xTB:
   * S. Grimme, C. Bannwarth, P. Shushkov, J. Chem. Theory Comput., 2017,
     13, 1989-2009. DOI: 10.1021/acs.jctc.7b00118
   for GFN0-xTB:
   * P. Pracht, E. Caldeweyher, S. Ehlert, S. Grimme, ChemRxiv, 2019, preprint.
     DOI: 10.26434/chemrxiv.8326202.v1
   for GFN-FF:
   * S. Spicher and S. Grimme, Angew. Chem. Int. Ed., 2020, 59, 15665-15673.
     DOI: 10.1002/anie.202004239
   
   for DFT-D4:
   * E. Caldeweyher, C. Bannwarth and S. Grimme, J. Chem. Phys., 2017,
     147, 034112. DOI: 10.1063/1.4993215
   * E. Caldeweyher, S. Ehlert, A. Hansen, H. Neugebauer, S. Spicher,
     C. Bannwarth and S. Grimme, J. Chem. Phys., 2019, 150, 154122.
     DOI: 10.1063/1.5090222
   * E. Caldeweyher, J.-M. Mewes, S. Ehlert and S. Grimme, Phys. Chem. Chem. Phys.
     2020, 22, 8499-8512. DOI: 10.1039/D0CP00502A
   
   for sTDA-xTB:
   * S. Grimme and C. Bannwarth, J. Chem. Phys., 2016, 145, 054103.
     DOI: 10.1063/1.4959605
   
   in the mass-spec context:
   * V. Asgeirsson, C. Bauer and S. Grimme, Chem. Sci., 2017, 8, 4879.
     DOI: 10.1039/c7sc00601b
   * J. Koopman and S. Grimme, ACS Omega 2019, 4, 12, 15120-15133.
     DOI: 10.1021/acsomega.9b02011
   
   for metadynamics refer to:
   * S. Grimme, J. Chem. Theory Comput., 2019, 155, 2847-2862
     DOI: 10.1021/acs.jctc.9b00143
   
   for SPH calculations refer to:
   * S. Spicher and S. Grimme, J. Chem. Theory Comput., 2021, 17, 1701-1714
     DOI: 10.1021/acs.jctc.0c01306
   
   with help from (in alphabetical order)
   P. Atkinson, C. Bannwarth, F. Bohle, G. Brandenburg, E. Caldeweyher
   M. Checinski, S. Dohm, S. Ehlert, S. Ehrlich, I. Gerasimov, J. Koopman
   C. Lavigne, S. Lehtola, F. März, M. Müller, F. Musil, H. Neugebauer
   J. Pisarek, C. Plett, P. Pracht, J. Seibert, P. Shushkov, S. Spicher
   M. Stahn, M. Steiner, T. Strunk, J. Stückrath, T. Rose, and J. Unsleber
   
 * started run on 2022/02/23 at 01:45:01.318     

           -------------------------------------------------
          |                Calculation Setup                |
           -------------------------------------------------

          program call               : /ihome/ghutchison/oda6/xtb/xtb-641/bin/xtb ../../GFN2_output/39_28_86_22_66.mol --sp --alpb hexane
          hostname                   : smp-n9
          coordinate file            : ../../GFN2_output/39_28_86_22_66.mol
          omp threads                :                     8
          number of atoms            :                   225
          number of electrons        :                   710
          charge                     :                     0
          spin                       :                   0.0
          first test random number   :      0.58402877051497

   ID    Z sym.   atoms
    1    6 C      1-3, 5-13, 15, 17-25, 27-41, 43, 44, 46-60, 62-72, 74-77,
                  81, 82, 84-94, 96, 97, 99, 100, 102, 103, 105-111, 115-119,
                  122, 123, 125-128, 130-134, 136, 138-144, 146
    2    8 O      4, 120, 121, 129
    3    7 N      14, 16, 26, 45, 78, 80, 98, 101, 112, 114, 145, 147
    4   16 S      42, 61, 73, 79, 83, 95, 104, 113, 124
    5    9 F      135, 137
    6    1 H      148-225

           -------------------------------------------------
          |                 G F N 2 - x T B                 |
           -------------------------------------------------

        Reference                      10.1021/acs.jctc.8b01176
      * Hamiltonian:
        H0-scaling (s, p, d)           1.850000    2.230000    2.230000
        zeta-weighting                 0.500000
      * Dispersion:
        s8                             2.700000
        a1                             0.520000
        a2                             5.000000
        s9                             5.000000
      * Repulsion:
        kExp                           1.500000    1.000000
        rExp                           1.000000
      * Coulomb:
        alpha                          2.000000
        third order                    shell-resolved
        anisotropic                    true
        a3                             3.000000
        a5                             4.000000
        cn-shift                       1.200000
        cn-exp                         4.000000
        max-rad                        5.000000

      * Solvation model:               ALPB
        Solvent                        hexane
        Parameter file                 internal GFN2-xTB/ALPB
        Dielectric constant                1.8800E+00
        Reference state                gsolv [1 M gas/solution]
        Free energy shift                  4.8134E-03 Eh       3.0204E+00 kcal/mol
        Temperature                        2.9815E+02 K
        Density                            6.6000E-01 kg/L
        Solvent mass                       8.6180E+01 g/mol
        Interaction kernel             P16
        Born radius scaling (c1)           1.1040E+00
        Born radii integrator          GBOBC
        Born offset                        0.0000E+00 a0       0.0000E+00 AA
        H-bond correction              false
        Ion screening                  false
        Surface tension                    1.0000E-05 Eh       1.5569E+01 dyn/cm
        Grid points                               230 per atom

          ...................................................
          :                      SETUP                      :
          :.................................................:
          :  # basis functions                 720          :
          :  # atomic orbitals                 711          :
          :  # shells                          381          :
          :  # electrons                       710          :
          :  max. iterations                   250          :
          :  Hamiltonian                  GFN2-xTB          :
          :  restarted?                      false          :
          :  GBSA solvation                   true          :
          :  PC potential                    false          :
          :  electronic temp.          300.0000000     K    :
          :  accuracy                    1.0000000          :
          :  -> integral cutoff          0.2500000E+02      :
          :  -> integral neglect         0.1000000E-07      :
          :  -> SCF convergence          0.1000000E-05 Eh   :
          :  -> wf. convergence          0.1000000E-03 e    :
          :  Broyden damping             0.4000000          :
          ...................................................

 iter      E             dE          RMSdq      gap      omega  full diag
   1   -392.7276841 -0.392728E+03  0.430E+00    0.55       0.0  T
   2   -393.0342854 -0.306601E+00  0.254E+00    0.46       1.0  T
   3   -392.9317629  0.102523E+00  0.122E+00    0.34       1.0  T
   4   -393.0882051 -0.156442E+00  0.472E-01    0.33       1.0  T
   5   -393.1191301 -0.309250E-01  0.161E-01    0.25       1.0  T
   6   -393.1212412 -0.211111E-02  0.875E-02    0.35       1.0  T
   7   -393.1223865 -0.114525E-02  0.424E-02    0.28       1.0  T
   8   -393.1227389 -0.352401E-03  0.181E-02    0.30       1.0  T
   9   -393.1227736 -0.346913E-04  0.804E-03    0.30       1.0  T
  10   -393.1227776 -0.400078E-05  0.406E-03    0.30       1.6  T
  11   -393.1227787 -0.114357E-05  0.195E-03    0.30       3.4  T
  12   -393.1227790 -0.257750E-06  0.108E-03    0.30       6.2  T
  13   -393.1227790 -0.704340E-07  0.509E-04    0.30      13.1  T
  14   -393.1227791 -0.123075E-07  0.230E-04    0.30      29.0  T

   *** convergence criteria satisfied after 14 iterations ***

         #    Occupation            Energy/Eh            Energy/eV
      -------------------------------------------------------------
         1        2.0000           -0.8446810             -22.9849
       ...           ...                  ...                  ...
       349        2.0000           -0.3853589             -10.4861
       350        2.0000           -0.3809051             -10.3650
       351        2.0000           -0.3769236             -10.2566
       352        2.0000           -0.3736719             -10.1681
       353        2.0000           -0.3673013              -9.9948
       354        2.0000           -0.3650100              -9.9324
       355        1.9936           -0.3535990              -9.6219 (HOMO)
       356        0.0064           -0.3426871              -9.3250 (LUMO)
       357                         -0.3226968              -8.7810
       358                         -0.3195764              -8.6961
       359                         -0.3113085              -8.4711
       360                         -0.3078435              -8.3768
       ...                                ...                  ...
       711                          1.1659387              31.7268
      -------------------------------------------------------------
                  HL-Gap            0.0109119 Eh            0.2969 eV
             Fermi-level           -0.3481431 Eh           -9.4735 eV

 SCC (total)                   0 d,  0 h,  0 min,  1.229 sec
 SCC setup                      ...        0 min,  0.008 sec (  0.691%)
 Dispersion                     ...        0 min,  0.013 sec (  1.090%)
 classical contributions        ...        0 min,  0.001 sec (  0.041%)
 integral evaluation            ...        0 min,  0.049 sec (  3.960%)
 iterations                     ...        0 min,  1.011 sec ( 82.287%)
 molecular gradient             ...        0 min,  0.139 sec ( 11.339%)
 printout                       ...        0 min,  0.007 sec (  0.586%)

         :::::::::::::::::::::::::::::::::::::::::::::::::::::
         ::                     SUMMARY                     ::
         :::::::::::::::::::::::::::::::::::::::::::::::::::::
         :: total energy            -386.976160671765 Eh    ::
         :: total w/o Gsasa/hb      -386.850662811936 Eh    ::
         :: gradient norm              0.028383234114 Eh/a0 ::
         :: HOMO-LUMO gap              0.296928499181 eV    ::
         ::.................................................::
         :: SCC energy              -393.122779061895 Eh    ::
         :: -> isotropic ES            0.255972708891 Eh    ::
         :: -> anisotropic ES          0.017496416678 Eh    ::
         :: -> anisotropic XC          0.209091120356 Eh    ::
         :: -> dispersion             -0.398305198938 Eh    ::
         :: -> Gsolv                  -0.162867507673 Eh    ::
         ::    -> Gelec               -0.037369647844 Eh    ::
         ::    -> Gsasa               -0.130311215649 Eh    ::
         ::    -> Ghb                  0.000000000000 Eh    ::
         ::    -> Gshift               0.004813355820 Eh    ::
         :: repulsion energy           6.137619851601 Eh    ::
         :: add. restraining           0.000000000000 Eh    ::
         :: total charge              -0.000000000000 e     ::
         :::::::::::::::::::::::::::::::::::::::::::::::::::::

           -------------------------------------------------
          |                Property Printout                |
           -------------------------------------------------

    * Orbital Energies and Occupations

         #    Occupation            Energy/Eh            Energy/eV
      -------------------------------------------------------------
         1        2.0000           -0.8446810             -22.9849
       ...           ...                  ...                  ...
       343        2.0000           -0.4004796             -10.8976
       344        2.0000           -0.3998031             -10.8792
       345        2.0000           -0.3968924             -10.8000
       346        2.0000           -0.3965266             -10.7900
       347        2.0000           -0.3953985             -10.7593
       348        2.0000           -0.3914335             -10.6514
       349        2.0000           -0.3853589             -10.4861
       350        2.0000           -0.3809051             -10.3650
       351        2.0000           -0.3769236             -10.2566
       352        2.0000           -0.3736719             -10.1681
       353        2.0000           -0.3673013              -9.9948
       354        2.0000           -0.3650100              -9.9324
       355        1.9936           -0.3535990              -9.6219 (HOMO)
       356        0.0064           -0.3426871              -9.3250 (LUMO)
       357                         -0.3226968              -8.7810
       358                         -0.3195764              -8.6961
       359                         -0.3113085              -8.4711
       360                         -0.3078435              -8.3768
       361                         -0.2990038              -8.1363
       362                         -0.2933058              -7.9813
       363                         -0.2874203              -7.8211
       364                         -0.2833948              -7.7116
       365                         -0.2771499              -7.5416
       366                         -0.2570936              -6.9959
       ...                                ...                  ...
       711                          1.1659387              31.7268
      -------------------------------------------------------------
                  HL-Gap            0.0109119 Eh            0.2969 eV
             Fermi-level           -0.3481431 Eh           -9.4735 eV

     #   Z          covCN         q      C6AA      α(0)
     1   6 C        2.949    -0.013    28.345     8.732
     2   6 C        3.014    -0.051    29.236     8.869
     3   6 C        2.875     0.228    23.219     7.899
     4   8 O        0.856    -0.450    22.706     6.389
     5   6 C        3.064    -0.024    28.531     8.759
     6   6 C        2.905    -0.024    28.596     8.768
     7   6 C        3.262     0.006    26.697     8.345
     8   6 C        3.258     0.007    26.724     8.356
     9   6 C        2.905    -0.035    28.860     8.809
    10   6 C        3.051     0.001    27.950     8.671
    11   6 C        3.026     0.033    27.238     8.561
    12   6 C        2.948    -0.003    28.088     8.692
    13   6 C        1.939     0.129    27.930     8.535
    14   7 N        0.911    -0.282    27.278     7.554
    15   6 C        1.938     0.132    27.854     8.523
    16   7 N        0.911    -0.286    27.364     7.566
    17   6 C        4.164    -0.024    20.918     6.496
    18   6 C        4.013    -0.015    20.770     6.474
    19   6 C        2.988    -0.041    29.000     8.834
    20   6 C        2.988    -0.041    29.017     8.836
    21   6 C        4.013    -0.015    20.768     6.474
    22   6 C        3.926    -0.060    21.588     6.603
    23   6 C        4.162    -0.024    20.922     6.496
    24   6 C        2.991     0.010    27.775     8.645
    25   6 C        3.031     0.078    26.237     8.402
    26   7 N        2.749    -0.029    21.805     6.935
    27   6 C        2.942     0.060    26.653     8.467
    28   6 C        2.923    -0.037    28.914     8.818
    29   6 C        2.927    -0.038    28.948     8.823
    30   6 C        2.966     0.020    27.565     8.612
    31   6 C        3.758    -0.114    22.739     6.799
    32   6 C        2.925    -0.039    28.963     8.826
    33   6 C        2.920    -0.042    29.039     8.837
    34   6 C        2.927     0.061    26.630     8.463
    35   6 C        2.922    -0.041    29.019     8.834
    36   6 C        2.924    -0.041    29.016     8.834
    37   6 C        2.965     0.017    27.632     8.622
    38   6 C        3.758    -0.110    22.662     6.787
    39   6 C        2.925    -0.039    28.959     8.825
    40   6 C        2.919    -0.044    29.096     8.845
    41   6 C        3.169     0.002    27.614     8.585
    42  16 S        2.266    -0.062   143.613    20.170
    43   6 C        3.036     0.002    27.944     8.671
    44   6 C        3.057     0.049    26.844     8.497
    45   7 N        2.749    -0.066    22.518     7.048
    46   6 C        2.928     0.060    26.664     8.468
    47   6 C        2.922    -0.047    29.170     8.857
    48   6 C        2.925    -0.040    28.983     8.829
    49   6 C        2.966     0.013    27.718     8.636
    50   6 C        3.758    -0.113    22.712     6.795
    51   6 C        2.926    -0.040    29.002     8.832
    52   6 C        2.920    -0.047    29.171     8.857
    53   6 C        2.926     0.060    26.651     8.466
    54   6 C        2.921    -0.050    29.230     8.866
    55   6 C        2.925    -0.040    28.999     8.831
    56   6 C        2.966     0.011    27.773     8.644
    57   6 C        3.758    -0.112    22.693     6.792
    58   6 C        2.925    -0.041    29.016     8.834
    59   6 C        2.921    -0.048    29.197     8.861
    60   6 C        3.165     0.013    27.374     8.550
    61  16 S        2.258    -0.061   143.587    20.168
    62   6 C        3.034     0.014    27.675     8.629
    63   6 C        3.108    -0.011    28.152     8.693
    64   6 C        2.974     0.011    27.771     8.644
    65   6 C        2.925    -0.037    28.919     8.819
    66   6 C        2.918    -0.031    28.768     8.795
    67   6 C        2.926    -0.038    28.949     8.824
    68   6 C        2.970     0.015    27.672     8.629
    69   6 C        3.807    -0.058    21.604     6.617
    70   6 C        3.754    -0.100    22.460     6.758
    71   6 C        2.932    -0.041    29.016     8.834
    72   6 C        3.192     0.011    27.282     8.519
    73  16 S        2.184    -0.048   143.036    20.129
    74   6 C        3.097     0.001    27.895     8.656
    75   6 C        3.089    -0.038    28.839     8.802
    76   6 C        3.341     0.070    24.005     7.746
    77   6 C        3.341     0.070    24.001     7.744
    78   7 N        1.854    -0.296    28.520     7.915
    79  16 S        2.687     0.335   128.144    19.052
    80   7 N        1.854    -0.296    28.531     7.917
    81   6 C        3.088    -0.038    28.840     8.803
    82   6 C        3.096     0.004    27.817     8.644
    83  16 S        2.179    -0.032   142.390    20.084
    84   6 C        3.192     0.012    27.249     8.513
    85   6 C        3.106    -0.002    27.944     8.662
    86   6 C        2.977     0.011    27.771     8.644
    87   6 C        2.925    -0.034    28.853     8.809
    88   6 C        2.918    -0.027    28.684     8.783
    89   6 C        2.925    -0.036    28.897     8.816
    90   6 C        2.970     0.015    27.671     8.628
    91   6 C        3.807    -0.059    21.623     6.620
    92   6 C        3.754    -0.100    22.475     6.760
    93   6 C        2.931    -0.043    29.064     8.841
    94   6 C        3.003     0.017    27.620     8.621
    95  16 S        2.274    -0.027   142.185    20.069
    96   6 C        3.118     0.004    27.770     8.631
    97   6 C        3.254     0.026    26.348     8.303
    98   7 N        2.798    -0.030    21.829     6.939
    99   6 C        3.067     0.032    27.209     8.553
   100   6 C        3.067     0.029    27.290     8.566
   101   7 N        2.800    -0.030    21.823     6.938
   102   6 C        3.255     0.026    26.333     8.299
   103   6 C        3.124     0.001    27.825     8.638
   104  16 S        2.267    -0.070   143.979    20.195
   105   6 C        3.745    -0.008    20.784     6.503
   106   6 C        3.752    -0.115    22.752     6.802
   107   6 C        3.744    -0.009    20.811     6.508
   108   6 C        3.752    -0.114    22.748     6.802
   109   6 C        3.027     0.004    27.903     8.665
   110   6 C        3.358     0.075    23.549     7.623
   111   6 C        3.345     0.084    23.655     7.679
   112   7 N        1.855    -0.297    28.536     7.918
   113  16 S        2.678     0.431   124.713    18.796
   114   7 N        1.861    -0.292    28.414     7.901
   115   6 C        2.960     0.005    27.907     8.665
   116   6 C        3.131     0.006    27.668     8.611
   117   6 C        3.066    -0.036    28.828     8.804
   118   6 C        2.988    -0.005    28.139     8.701
   119   6 C        2.760     0.364    20.821     7.472
   120   8 O        0.857    -0.443    22.567     6.369
   121   8 O        1.705    -0.277    18.590     5.821
   122   6 C        3.701     0.079    19.407     6.300
   123   6 C        3.750    -0.116    22.786     6.808
   124  16 S        2.278     0.031   139.814    19.901
   125   6 C        3.005     0.022    27.506     8.603
   126   6 C        2.902    -0.004    28.133     8.697
   127   6 C        3.006    -0.025    28.615     8.775
   128   6 C        2.863     0.242    22.961     7.854
   129   8 O        0.856    -0.418    22.051     6.296
   130   6 C        3.033    -0.015    28.343     8.732
   131   6 C        2.913    -0.016    28.407     8.740
   132   6 C        2.989     0.019    27.574     8.614
   133   6 C        2.919    -0.052    29.284     8.874
   134   6 C        2.775     0.165    24.425     8.095
   135   9 F        0.787    -0.215    11.391     3.987
   136   6 C        2.775     0.166    24.412     8.092
   137   9 F        0.787    -0.214    11.380     3.985
   138   6 C        2.920    -0.051    29.277     8.873
   139   6 C        2.988     0.020    27.543     8.609
   140   6 C        2.916    -0.029    28.717     8.788
   141   6 C        3.025     0.012    27.732     8.638
   142   6 C        3.013     0.038    27.136     8.545
   143   6 C        2.947     0.008    27.851     8.656
   144   6 C        1.944     0.133    27.836     8.520
   145   7 N        0.911    -0.267    26.910     7.503
   146   6 C        1.943     0.132    27.859     8.524
   147   7 N        0.911    -0.271    27.011     7.517
   148   1 H        0.925     0.062     2.177     2.307
   149   1 H        0.926     0.055     2.261     2.351
   150   1 H        0.926     0.053     2.279     2.361
   151   1 H        0.925     0.046     2.365     2.405
   152   1 H        0.925     0.038     2.473     2.459
   153   1 H        0.926     0.032     2.553     2.499
   154   1 H        0.926     0.029     2.599     2.521
   155   1 H        0.925     0.036     2.502     2.474
   156   1 H        0.925     0.041     2.442     2.444
   157   1 H        0.925     0.041     2.436     2.441
   158   1 H        0.925     0.046     2.374     2.409
   159   1 H        0.926     0.063     2.168     2.303
   160   1 H        0.926     0.046     2.365     2.405
   161   1 H        0.925     0.055     2.259     2.350
   162   1 H        0.925     0.055     2.253     2.347
   163   1 H        0.925     0.048     2.344     2.394
   164   1 H        0.926     0.043     2.405     2.425
   165   1 H        0.926     0.039     2.457     2.451
   166   1 H        0.926     0.042     2.419     2.432
   167   1 H        0.926     0.044     2.393     2.419
   168   1 H        0.925     0.050     2.322     2.383
   169   1 H        0.925     0.053     2.284     2.363
   170   1 H        0.924     0.055     2.260     2.351
   171   1 H        0.926     0.045     2.377     2.411
   172   1 H        0.926     0.041     2.440     2.443
   173   1 H        0.926     0.032     2.559     2.501
   174   1 H        0.926     0.038     2.478     2.461
   175   1 H        0.924     0.053     2.285     2.364
   176   1 H        0.925     0.047     2.354     2.400
   177   1 H        0.925     0.046     2.371     2.408
   178   1 H        0.926     0.040     2.454     2.450
   179   1 H        0.926     0.038     2.478     2.461
   180   1 H        0.926     0.026     2.645     2.543
   181   1 H        0.926     0.037     2.492     2.469
   182   1 H        0.925     0.049     2.330     2.387
   183   1 H        0.924     0.050     2.320     2.382
   184   1 H        0.925     0.044     2.390     2.418
   185   1 H        0.926     0.037     2.492     2.469
   186   1 H        0.926     0.039     2.464     2.455
   187   1 H        0.926     0.039     2.458     2.452
   188   1 H        0.926     0.040     2.451     2.448
   189   1 H        0.926     0.037     2.493     2.469
   190   1 H        0.924     0.039     2.458     2.452
   191   1 H        0.924     0.036     2.498     2.471
   192   1 H        0.925     0.037     2.493     2.469
   193   1 H        0.925     0.039     2.457     2.451
   194   1 H        0.925     0.038     2.476     2.461
   195   1 H        0.926     0.032     2.555     2.500
   196   1 H        0.926     0.047     2.358     2.401
   197   1 H        0.926     0.044     2.390     2.418
   198   1 H        0.926     0.041     2.439     2.442
   199   1 H        0.924     0.042     2.424     2.435
   200   1 H        0.924     0.035     2.519     2.482
   201   1 H        0.925     0.040     2.450     2.448
   202   1 H        0.925     0.037     2.496     2.470
   203   1 H        0.925     0.041     2.438     2.442
   204   1 H        0.925     0.026     2.646     2.544
   205   1 H        0.924     0.076     2.025     2.225
   206   1 H        0.925     0.070     2.081     2.256
   207   1 H        0.925     0.051     2.306     2.375
   208   1 H        0.925     0.050     2.320     2.382
   209   1 H        0.925     0.055     2.257     2.349
   210   1 H        0.924     0.077     2.008     2.216
   211   1 H        0.925     0.071     2.071     2.251
   212   1 H        0.925     0.055     2.255     2.348
   213   1 H        0.925     0.050     2.316     2.380
   214   1 H        0.925     0.051     2.312     2.378
   215   1 H        0.926     0.077     2.012     2.218
   216   1 H        0.924     0.062     2.176     2.307
   217   1 H        0.924     0.069     2.097     2.265
   218   1 H        0.925     0.060     2.197     2.318
   219   1 H        0.925     0.059     2.209     2.324
   220   1 H        0.925     0.056     2.246     2.344
   221   1 H        0.925     0.075     2.028     2.227
   222   1 H        0.926     0.072     2.063     2.246
   223   1 H        0.926     0.087     1.909     2.161
   224   1 H        0.926     0.090     1.883     2.146
   225   1 H        0.926     0.071     2.079     2.255

 Mol. C6AA /au·bohr⁶  :     864827.813701
 Mol. C8AA /au·bohr⁸  :   23820293.772784
 Mol. α(0) /au        :       1482.655521


Wiberg/Mayer (AO) data.
largest (>0.10) Wiberg bond orders for each atom

 ---------------------------------------------------------------------------
     #   Z sym  total        # sym  WBO       # sym  WBO       # sym  WBO
 ---------------------------------------------------------------------------
     1   6 C    3.952 --     2 C    1.424    24 C    1.357   148 H    0.949
     2   6 C    3.954 --     1 C    1.424    11 C    1.182     3 C    1.059
     3   6 C    3.926 --     4 O    1.686     2 C    1.059     5 C    1.016
     4   8 O    1.989 --     3 C    1.686
     5   6 C    3.975 --     6 C    1.391    10 C    1.314     3 C    1.016
     6   6 C    3.981 --     7 C    1.434     5 C    1.391   149 H    0.964
     7   6 C    3.958 --     6 C    1.434     8 C    1.337    23 C    0.995
     8   6 C    3.966 --     9 C    1.441     7 C    1.337    17 C    0.996
     9   6 C    3.978 --     8 C    1.441    10 C    1.376   150 H    0.959
    10   6 C    3.983 --     9 C    1.376     5 C    1.314    11 C    1.078
    11   6 C    3.973 --    12 C    1.441     2 C    1.182    10 C    1.078
    12   6 C    3.958 --    11 C    1.441    15 C    1.112    13 C    1.106
    13   6 C    3.942 --    14 N    2.744    12 C    1.106
    14   7 N    2.955 --    13 C    2.744
    15   6 C    3.941 --    16 N    2.738    12 C    1.112
    16   7 N    2.947 --    15 C    2.738
    17   6 C    3.985 --     8 C    0.996    23 C    0.978   151 H    0.960
                            18 C    0.947
    18   6 C    3.990 --    19 C    1.010    22 C    0.985   152 H    0.972
                            17 C    0.947
    19   6 C    3.987 --    20 C    1.923    18 C    1.010   153 H    0.970
    20   6 C    3.987 --    19 C    1.923    21 C    1.010   154 H    0.971
    21   6 C    3.989 --    20 C    1.010    22 C    0.985   155 H    0.972
                            23 C    0.947
    22   6 C    3.993 --    21 C    0.985    18 C    0.985   156 H    0.978
                           157 H    0.977
    23   6 C    3.984 --     7 C    0.995    17 C    0.978   158 H    0.960
                            21 C    0.947
    24   6 C    3.918 --     1 C    1.357    25 C    1.274    61 S    1.049
    25   6 C    3.957 --    24 C    1.274    41 C    1.231    26 N    1.199
    26   7 N    3.561 --    25 C    1.199    34 C    1.042    27 C    0.999
    27   6 C    3.957 --    33 C    1.389    28 C    1.371    26 N    0.999
    28   6 C    3.982 --    29 C    1.457    27 C    1.371   159 H    0.963
                            32 C    0.104
    29   6 C    3.989 --    28 C    1.457    30 C    1.399   160 H    0.968
                            33 C    0.106
    30   6 C    3.977 --    32 C    1.408    29 C    1.399    31 C    1.028
    31   6 C    3.995 --    30 C    1.028   163 H    0.985   162 H    0.971
                           161 H    0.969
    32   6 C    3.989 --    33 C    1.448    30 C    1.408   164 H    0.967
                            28 C    0.104
    33   6 C    3.981 --    32 C    1.448    27 C    1.389   165 H    0.968
                            29 C    0.106
    34   6 C    3.962 --    35 C    1.366    40 C    1.362    26 N    1.042
    35   6 C    3.982 --    36 C    1.449    34 C    1.366   166 H    0.967
    36   6 C    3.990 --    35 C    1.449    37 C    1.409   167 H    0.967
                            40 C    0.104
    37   6 C    3.981 --    36 C    1.409    39 C    1.389    38 C    1.030
    38   6 C    3.994 --    37 C    1.030   168 H    0.981   169 H    0.979
                           170 H    0.962
    39   6 C    3.989 --    40 C    1.468    37 C    1.389   171 H    0.968
    40   6 C    3.986 --    39 C    1.468    34 C    1.362   172 H    0.968
                            36 C    0.104
    41   6 C    3.929 --    60 C    1.360    25 C    1.231    42 S    1.103
    42  16 S    2.575 --    41 C    1.103    43 C    1.091
    43   6 C    3.903 --    44 C    1.392    62 C    1.176    42 S    1.091
    44   6 C    3.947 --    43 C    1.392    60 C    1.230    45 N    1.092
    45   7 N    3.495 --    44 C    1.092    53 C    1.051    46 C    1.044
    46   6 C    3.961 --    47 C    1.368    52 C    1.367    45 N    1.044
    47   6 C    3.983 --    48 C    1.455    46 C    1.368   173 H    0.968
                            51 C    0.103
    48   6 C    3.990 --    47 C    1.455    49 C    1.405   174 H    0.969
                            52 C    0.104
    49   6 C    3.975 --    48 C    1.405    51 C    1.399    50 C    1.027
    50   6 C    3.995 --    49 C    1.027   177 H    0.982   176 H    0.981
                           175 H    0.966
    51   6 C    3.990 --    52 C    1.462    49 C    1.399   178 H    0.969
                            47 C    0.103
    52   6 C    3.983 --    51 C    1.462    46 C    1.367   179 H    0.967
                            48 C    0.104
    53   6 C    3.963 --    59 C    1.367    54 C    1.363    45 N    1.051
    54   6 C    3.985 --    55 C    1.466    53 C    1.363   180 H    0.966
                            58 C    0.102
    55   6 C    3.990 --    54 C    1.466    56 C    1.394   181 H    0.969
                            59 C    0.103
    56   6 C    3.980 --    58 C    1.408    55 C    1.394    57 C    1.027
    57   6 C    3.995 --    56 C    1.027   184 H    0.985   182 H    0.976
                           183 H    0.969
    58   6 C    3.990 --    59 C    1.453    56 C    1.408   185 H    0.968
                            54 C    0.102
    59   6 C    3.984 --    58 C    1.453    53 C    1.367   186 H    0.967
                            55 C    0.103
    60   6 C    3.933 --    41 C    1.360    44 C    1.230    61 S    1.119
    61  16 S    2.494 --    60 C    1.119    24 C    1.049
    62   6 C    3.912 --    63 C    1.436    43 C    1.176   104 S    1.075
    63   6 C    3.958 --    62 C    1.436    72 C    1.257    64 C    1.045
    64   6 C    3.987 --    65 C    1.383    71 C    1.381    63 C    1.045
                            67 C    0.101
    65   6 C    3.983 --    66 C    1.445    64 C    1.383   187 H    0.967
                            68 C    0.103
    66   6 C    3.990 --    65 C    1.445    67 C    1.441   188 H    0.969
                            71 C    0.105
    67   6 C    3.982 --    66 C    1.441    68 C    1.402   189 H    0.969
                            64 C    0.101
    68   6 C    3.987 --    71 C    1.424    67 C    1.402    69 C    1.012
                            65 C    0.103
    69   6 C    3.996 --    68 C    1.012    70 C    1.001   191 H    0.974
                           190 H    0.974
    70   6 C    3.996 --    69 C    1.001   194 H    0.988   192 H    0.988
                           193 H    0.986
    71   6 C    3.988 --    68 C    1.424    64 C    1.381   195 H    0.965
                            66 C    0.105
    72   6 C    3.924 --   103 C    1.356    63 C    1.257    73 S    1.093
    73  16 S    2.505 --    74 C    1.104    72 C    1.093
    74   6 C    3.920 --   102 C    1.313    75 C    1.270    73 S    1.104
    75   6 C    3.953 --    74 C    1.270   100 C    1.270    76 C    1.174
    76   6 C    3.972 --    80 N    1.423    75 C    1.174    77 C    1.166
                            79 S    0.104
    77   6 C    3.972 --    78 N    1.422    81 C    1.175    76 C    1.166
                            79 S    0.103
    78   7 N    3.061 --    77 C    1.422    79 S    1.386    80 N    0.145
    79  16 S    3.102 --    80 N    1.386    78 N    1.386    76 C    0.104
                            77 C    0.103
    80   7 N    3.061 --    76 C    1.423    79 S    1.386    78 N    0.145
    81   6 C    3.954 --    82 C    1.273    99 C    1.266    77 C    1.175
    82   6 C    3.917 --    97 C    1.306    81 C    1.273    83 S    1.109
    83  16 S    2.516 --    82 C    1.109    84 C    1.094
    84   6 C    3.918 --    96 C    1.330    85 C    1.279    83 S    1.094
    85   6 C    3.942 --    94 C    1.410    84 C    1.279    86 C    1.049
    86   6 C    3.986 --    87 C    1.381    93 C    1.378    85 C    1.049
                            89 C    0.101
    87   6 C    3.985 --    88 C    1.444    86 C    1.381   196 H    0.966
                            90 C    0.103
    88   6 C    3.990 --    87 C    1.444    89 C    1.443   197 H    0.969
                            93 C    0.105
    89   6 C    3.982 --    88 C    1.443    90 C    1.399   198 H    0.969
                            86 C    0.101
    90   6 C    3.987 --    93 C    1.428    89 C    1.399    91 C    1.012
                            87 C    0.103
    91   6 C    3.996 --    90 C    1.012    92 C    1.001   200 H    0.975
                           199 H    0.973
    92   6 C    3.996 --    91 C    1.001   202 H    0.988   201 H    0.988
                           203 H    0.986
    93   6 C    3.987 --    90 C    1.428    86 C    1.378   204 H    0.967
                            88 C    0.105
    94   6 C    3.914 --    85 C    1.410   109 C    1.166    95 S    1.090
    95  16 S    2.579 --    96 C    1.128    94 C    1.090
    96   6 C    3.918 --    84 C    1.330    97 C    1.247    95 S    1.128
    97   6 C    3.934 --    82 C    1.306    96 C    1.247    98 N    1.158
    98   7 N    3.554 --    99 C    1.168    97 C    1.158   107 C    0.978
    99   6 C    3.926 --    81 C    1.266   100 C    1.228    98 N    1.168
   100   6 C    3.931 --    75 C    1.270    99 C    1.228   101 N    1.164
   101   7 N    3.558 --   102 C    1.164   100 C    1.164   105 C    0.980
   102   6 C    3.936 --    74 C    1.313   103 C    1.234   101 N    1.164
   103   6 C    3.926 --    72 C    1.356   102 C    1.234   104 S    1.112
   104  16 S    2.550 --   103 C    1.112    62 C    1.075
   105   6 C    3.958 --   106 C    1.006   101 N    0.980   205 H    0.961
                           206 H    0.954
   106   6 C    3.988 --   105 C    1.006   208 H    0.986   209 H    0.983
                           207 H    0.983
   107   6 C    3.958 --   108 C    1.007    98 N    0.978   210 H    0.962
                           211 H    0.954
   108   6 C    3.988 --   107 C    1.007   213 H    0.986   212 H    0.983
                           214 H    0.982
   109   6 C    3.947 --   125 C    1.340   110 C    1.198    94 C    1.166
   110   6 C    3.967 --   114 N    1.382   109 C    1.198   111 C    1.164
   111   6 C    3.967 --   112 N    1.385   115 C    1.205   110 C    1.164
   112   7 N    3.062 --   113 S    1.427   111 C    1.385   114 N    0.153
   113  16 S    3.158 --   114 N    1.428   112 N    1.427
   114   7 N    3.076 --   113 S    1.428   110 C    1.382   112 N    0.153
   115   6 C    3.933 --   116 C    1.263   126 C    1.227   111 C    1.205
   116   6 C    3.965 --   115 C    1.263   125 C    1.244   117 C    1.242
   117   6 C    3.979 --   118 C    1.559   116 C    1.242   215 H    0.955
                           124 S    0.110
   118   6 C    3.918 --   117 C    1.559   124 S    1.134   119 C    1.031
   119   6 C    3.921 --   120 O    1.691   121 O    1.132   118 C    1.031
   120   8 O    2.000 --   119 C    1.691   121 O    0.170
   121   8 O    2.299 --   119 C    1.132   122 C    0.926   120 O    0.170
   122   6 C    3.913 --   123 C    1.012   217 H    0.970   216 H    0.969
                           121 O    0.926
   123   6 C    3.989 --   122 C    1.012   220 H    0.986   219 H    0.985
                           218 H    0.982
   124  16 S    2.602 --   118 C    1.134   125 C    1.130   117 C    0.110
   125   6 C    3.946 --   109 C    1.340   116 C    1.244   124 S    1.130
   126   6 C    3.936 --   127 C    1.528   115 C    1.227   221 H    0.939
   127   6 C    3.942 --   126 C    1.528   142 C    1.151   128 C    1.034
   128   6 C    3.908 --   129 O    1.740   127 C    1.034   130 C    1.020
   129   8 O    2.009 --   128 C    1.740
   130   6 C    3.978 --   131 C    1.526   141 C    1.204   128 C    1.020
   131   6 C    3.976 --   130 C    1.526   132 C    1.268   222 H    0.962
   132   6 C    3.980 --   133 C    1.288   131 C    1.268   139 C    1.242
   133   6 C    3.975 --   134 C    1.495   132 C    1.288   223 H    0.960
                           138 C    0.107
   134   6 C    3.874 --   133 C    1.495   136 C    1.249   135 F    0.967
   135   9 F    1.097 --   134 C    0.967
   136   6 C    3.878 --   138 C    1.497   134 C    1.249   137 F    0.968
   137   9 F    1.099 --   136 C    0.968
   138   6 C    3.972 --   136 C    1.497   139 C    1.285   224 H    0.960
                           133 C    0.107
   139   6 C    3.984 --   138 C    1.285   140 C    1.275   132 C    1.242
   140   6 C    3.965 --   141 C    1.502   139 C    1.275   225 H    0.956
   141   6 C    3.981 --   140 C    1.502   130 C    1.204   142 C    1.085
   142   6 C    3.964 --   143 C    1.466   127 C    1.151   141 C    1.085
   143   6 C    3.933 --   142 C    1.466   146 C    1.103   144 C    1.102
   144   6 C    3.942 --   145 N    2.752   143 C    1.102
   145   7 N    2.958 --   144 C    2.752
   146   6 C    3.942 --   147 N    2.745   143 C    1.103
   147   7 N    2.955 --   146 C    2.745
   148   1 H    0.993 --     1 C    0.949
   149   1 H    0.996 --     6 C    0.964
   150   1 H    0.997 --     9 C    0.959
   151   1 H    0.997 --    17 C    0.960
   152   1 H    0.998 --    18 C    0.972
   153   1 H    0.999 --    19 C    0.970
   154   1 H    0.999 --    20 C    0.971
   155   1 H    0.998 --    21 C    0.972
   156   1 H    0.998 --    22 C    0.978
   157   1 H    0.996 --    22 C    0.977
   158   1 H    0.996 --    23 C    0.960
   159   1 H    0.996 --    28 C    0.963
   160   1 H    0.997 --    29 C    0.968
   161   1 H    0.996 --    31 C    0.969
   162   1 H    0.996 --    31 C    0.971
   163   1 H    0.997 --    31 C    0.985
   164   1 H    0.997 --    32 C    0.967
   165   1 H    0.998 --    33 C    0.968
   166   1 H    0.998 --    35 C    0.967
   167   1 H    0.997 --    36 C    0.967
   168   1 H    0.997 --    38 C    0.981
   169   1 H    0.996 --    38 C    0.979
   170   1 H    0.995 --    38 C    0.962
   171   1 H    0.997 --    39 C    0.968
   172   1 H    0.998 --    40 C    0.968
   173   1 H    0.999 --    47 C    0.968
   174   1 H    0.998 --    48 C    0.969
   175   1 H    0.995 --    50 C    0.966
   176   1 H    0.997 --    50 C    0.981
   177   1 H    0.997 --    50 C    0.982
   178   1 H    0.998 --    51 C    0.969
   179   1 H    0.998 --    52 C    0.967
   180   1 H    0.999 --    54 C    0.966
   181   1 H    0.998 --    55 C    0.969
   182   1 H    0.996 --    57 C    0.976
   183   1 H    0.996 --    57 C    0.969
   184   1 H    0.998 --    57 C    0.985
   185   1 H    0.998 --    58 C    0.968
   186   1 H    0.998 --    59 C    0.967
   187   1 H    0.998 --    65 C    0.967
   188   1 H    0.997 --    66 C    0.969
   189   1 H    0.998 --    67 C    0.969
   190   1 H    0.998 --    69 C    0.974
   191   1 H    0.998 --    69 C    0.974
   192   1 H    0.999 --    70 C    0.988
   193   1 H    0.998 --    70 C    0.986
   194   1 H    0.999 --    70 C    0.988
   195   1 H    0.999 --    71 C    0.965
   196   1 H    0.997 --    87 C    0.966
   197   1 H    0.997 --    88 C    0.969
   198   1 H    0.998 --    89 C    0.969
   199   1 H    0.998 --    91 C    0.973
   200   1 H    0.999 --    91 C    0.975
   201   1 H    0.998 --    92 C    0.988
   202   1 H    0.999 --    92 C    0.988
   203   1 H    0.997 --    92 C    0.986
   204   1 H    0.999 --    93 C    0.967
   205   1 H    0.994 --   105 C    0.961
   206   1 H    0.993 --   105 C    0.954
   207   1 H    0.997 --   106 C    0.983
   208   1 H    0.997 --   106 C    0.986
   209   1 H    0.996 --   106 C    0.983
   210   1 H    0.993 --   107 C    0.962
   211   1 H    0.993 --   107 C    0.954
   212   1 H    0.996 --   108 C    0.983
   213   1 H    0.997 --   108 C    0.986
   214   1 H    0.997 --   108 C    0.982
   215   1 H    0.993 --   117 C    0.955
   216   1 H    0.996 --   122 C    0.969
   217   1 H    0.995 --   122 C    0.970
   218   1 H    0.996 --   123 C    0.982
   219   1 H    0.996 --   123 C    0.985
   220   1 H    0.997 --   123 C    0.986
   221   1 H    0.990 --   126 C    0.939
   222   1 H    0.994 --   131 C    0.962
   223   1 H    0.992 --   133 C    0.960
   224   1 H    0.991 --   138 C    0.960
   225   1 H    0.994 --   140 C    0.956
 ---------------------------------------------------------------------------

Topologies differ in bond orders
Writing corrected topology to xtbtopo.mol

molecular dipole:
                 x           y           z       tot (Debye)
 q only:       -0.953       3.830      -1.243
   full:       -0.776       3.279      -0.936       8.889
molecular quadrupole (traceless):
                xx          xy          yy          xz          yz          zz
 q only:     -136.064      44.397      39.423     -68.227      98.797      96.641
  q+dip:     -143.265      34.987      42.740     -71.759     106.224     100.525
   full:     -150.232      31.369      44.571     -77.344     112.606     105.662


           -------------------------------------------------
          | TOTAL ENERGY             -386.976160671765 Eh   |
          | GRADIENT NORM               0.028383234114 Eh/α |
          | HOMO-LUMO GAP               0.296928499181 eV   |
           -------------------------------------------------

------------------------------------------------------------------------
 * finished run on 2022/02/23 at 01:45:02.662     
------------------------------------------------------------------------
 total:
 * wall-time:     0 d,  0 h,  0 min,  1.343 sec
 *  cpu-time:     0 d,  0 h,  0 min,  9.294 sec
 * ratio c/w:     6.918 speedup
 SCF:
 * wall-time:     0 d,  0 h,  0 min,  1.232 sec
 *  cpu-time:     0 d,  0 h,  0 min,  8.604 sec
 * ratio c/w:     6.984 speedup

