      -----------------------------------------------------------      
     |                   =====================                   |     
     |                           x T B                           |     
     |                   =====================                   |     
     |                         S. Grimme                         |     
     |          Mulliken Center for Theoretical Chemistry        |     
     |                    University of Bonn                     |     
      -----------------------------------------------------------      

   * xtb version 6.4.1 (unknown) compiled by 'oda6@login1.crc.pitt.edu' on 2021-06-25

   xtb is free software: you can redistribute it and/or modify it under
   the terms of the GNU Lesser General Public License as published by
   the Free Software Foundation, either version 3 of the License, or
   (at your option) any later version.
   
   xtb is distributed in the hope that it will be useful,
   but WITHOUT ANY WARRANTY; without even the implied warranty of
   MERCHANTABILITY or FITNESS FOR A PARTICULAR PURPOSE.  See the
   GNU Lesser General Public License for more details.
   
   Cite this work as:
   * C. Bannwarth, E. Caldeweyher, S. Ehlert, A. Hansen, P. Pracht,
     J. Seibert, S. Spicher, S. Grimme, WIREs Comput. Mol. Sci., 2020, 11,
     e01493. DOI: 10.1002/wcms.1493
   
   for GFN2-xTB:
   * C. Bannwarth, S. Ehlert and S. Grimme., J. Chem. Theory Comput., 2019,
     15, 1652-1671. DOI: 10.1021/acs.jctc.8b01176
   for GFN1-xTB:
   * S. Grimme, C. Bannwarth, P. Shushkov, J. Chem. Theory Comput., 2017,
     13, 1989-2009. DOI: 10.1021/acs.jctc.7b00118
   for GFN0-xTB:
   * P. Pracht, E. Caldeweyher, S. Ehlert, S. Grimme, ChemRxiv, 2019, preprint.
     DOI: 10.26434/chemrxiv.8326202.v1
   for GFN-FF:
   * S. Spicher and S. Grimme, Angew. Chem. Int. Ed., 2020, 59, 15665-15673.
     DOI: 10.1002/anie.202004239
   
   for DFT-D4:
   * E. Caldeweyher, C. Bannwarth and S. Grimme, J. Chem. Phys., 2017,
     147, 034112. DOI: 10.1063/1.4993215
   * E. Caldeweyher, S. Ehlert, A. Hansen, H. Neugebauer, S. Spicher,
     C. Bannwarth and S. Grimme, J. Chem. Phys., 2019, 150, 154122.
     DOI: 10.1063/1.5090222
   * E. Caldeweyher, J.-M. Mewes, S. Ehlert and S. Grimme, Phys. Chem. Chem. Phys.
     2020, 22, 8499-8512. DOI: 10.1039/D0CP00502A
   
   for sTDA-xTB:
   * S. Grimme and C. Bannwarth, J. Chem. Phys., 2016, 145, 054103.
     DOI: 10.1063/1.4959605
   
   in the mass-spec context:
   * V. Asgeirsson, C. Bauer and S. Grimme, Chem. Sci., 2017, 8, 4879.
     DOI: 10.1039/c7sc00601b
   * J. Koopman and S. Grimme, ACS Omega 2019, 4, 12, 15120-15133.
     DOI: 10.1021/acsomega.9b02011
   
   for metadynamics refer to:
   * S. Grimme, J. Chem. Theory Comput., 2019, 155, 2847-2862
     DOI: 10.1021/acs.jctc.9b00143
   
   for SPH calculations refer to:
   * S. Spicher and S. Grimme, J. Chem. Theory Comput., 2021, 17, 1701-1714
     DOI: 10.1021/acs.jctc.0c01306
   
   with help from (in alphabetical order)
   P. Atkinson, C. Bannwarth, F. Bohle, G. Brandenburg, E. Caldeweyher
   M. Checinski, S. Dohm, S. Ehlert, S. Ehrlich, I. Gerasimov, J. Koopman
   C. Lavigne, S. Lehtola, F. März, M. Müller, F. Musil, H. Neugebauer
   J. Pisarek, C. Plett, P. Pracht, J. Seibert, P. Shushkov, S. Spicher
   M. Stahn, M. Steiner, T. Strunk, J. Stückrath, T. Rose, and J. Unsleber
   
 * started run on 2022/02/14 at 20:15:26.224     

           -------------------------------------------------
          |                Calculation Setup                |
           -------------------------------------------------

          program call               : /ihome/ghutchison/oda6/xtb/xtb-641/bin/xtb ../../GFN2_output/39_50_86_50_61.mol --sp --alpb hexane
          hostname                   : smp-n25
          coordinate file            : ../../GFN2_output/39_50_86_50_61.mol
          omp threads                :                     8
          number of atoms            :                   158
          number of electrons        :                   512
          charge                     :                     0
          spin                       :                   0.0
          first test random number   :      0.78014696869649

   ID    Z sym.   atoms
    1    6 C      1-3, 5-13, 15, 17-26, 28-30, 32-42, 44-47, 51, 52, 54-64,
                  66, 67, 69, 70, 72, 73, 75-81, 83-85, 87-89, 91-94, 96, 98,
                  100-102, 104
    2    8 O      4, 90
    3    7 N      14, 16, 48, 50, 68, 71, 103, 105
    4   16 S      27, 31, 43, 49, 53, 65, 74, 82, 86
    5    9 F      95, 97, 99
    6    1 H      106-158

           -------------------------------------------------
          |                 G F N 2 - x T B                 |
           -------------------------------------------------

        Reference                      10.1021/acs.jctc.8b01176
      * Hamiltonian:
        H0-scaling (s, p, d)           1.850000    2.230000    2.230000
        zeta-weighting                 0.500000
      * Dispersion:
        s8                             2.700000
        a1                             0.520000
        a2                             5.000000
        s9                             5.000000
      * Repulsion:
        kExp                           1.500000    1.000000
        rExp                           1.000000
      * Coulomb:
        alpha                          2.000000
        third order                    shell-resolved
        anisotropic                    true
        a3                             3.000000
        a5                             4.000000
        cn-shift                       1.200000
        cn-exp                         4.000000
        max-rad                        5.000000

      * Solvation model:               ALPB
        Solvent                        hexane
        Parameter file                 internal GFN2-xTB/ALPB
        Dielectric constant                1.8800E+00
        Reference state                gsolv [1 M gas/solution]
        Free energy shift                  4.8134E-03 Eh       3.0204E+00 kcal/mol
        Temperature                        2.9815E+02 K
        Density                            6.6000E-01 kg/L
        Solvent mass                       8.6180E+01 g/mol
        Interaction kernel             P16
        Born radius scaling (c1)           1.1040E+00
        Born radii integrator          GBOBC
        Born offset                        0.0000E+00 a0       0.0000E+00 AA
        H-bond correction              false
        Ion screening                  false
        Surface tension                    1.0000E-05 Eh       1.5569E+01 dyn/cm
        Grid points                               230 per atom

          ...................................................
          :                      SETUP                      :
          :.................................................:
          :  # basis functions                 527          :
          :  # atomic orbitals                 518          :
          :  # shells                          272          :
          :  # electrons                       512          :
          :  max. iterations                   250          :
          :  Hamiltonian                  GFN2-xTB          :
          :  restarted?                      false          :
          :  GBSA solvation                   true          :
          :  PC potential                    false          :
          :  electronic temp.          300.0000000     K    :
          :  accuracy                    1.0000000          :
          :  -> integral cutoff          0.2500000E+02      :
          :  -> integral neglect         0.1000000E-07      :
          :  -> SCF convergence          0.1000000E-05 Eh   :
          :  -> wf. convergence          0.1000000E-03 e    :
          :  Broyden damping             0.4000000          :
          ...................................................

 iter      E             dE          RMSdq      gap      omega  full diag
   1   -283.6402156 -0.283640E+03  0.459E+00    1.15       0.0  T
   2   -283.8698758 -0.229660E+00  0.270E+00    0.95       1.0  T
   3   -283.7669339  0.102942E+00  0.136E+00    0.69       1.0  T
   4   -283.9269962 -0.160062E+00  0.517E-01    0.89       1.0  T
   5   -283.9491785 -0.221823E-01  0.180E-01    0.74       1.0  T
   6   -283.9505374 -0.135895E-02  0.819E-02    0.79       1.0  T
   7   -283.9509161 -0.378660E-03  0.320E-02    0.78       1.0  T
   8   -283.9509506 -0.345719E-04  0.165E-02    0.78       1.0  T
   9   -283.9509599 -0.922466E-05  0.821E-03    0.78       1.0  T
  10   -283.9509623 -0.247351E-05  0.381E-03    0.78       2.1  T
  11   -283.9509630 -0.626203E-06  0.202E-03    0.78       3.9  T
  12   -283.9509630 -0.700085E-07  0.106E-03    0.78       7.5  T
  13   -283.9509631 -0.582418E-07  0.499E-04    0.78      15.9  T
  14   -283.9509631 -0.111806E-07  0.259E-04    0.78      30.7  T

   *** convergence criteria satisfied after 14 iterations ***

         #    Occupation            Energy/Eh            Energy/eV
      -------------------------------------------------------------
         1        2.0000           -0.8566930             -23.3118
       ...           ...                  ...                  ...
       250        2.0000           -0.3983814             -10.8405
       251        2.0000           -0.3884454             -10.5701
       252        2.0000           -0.3876344             -10.5481
       253        2.0000           -0.3845355             -10.4637
       254        2.0000           -0.3794444             -10.3252
       255        2.0000           -0.3761005             -10.2342
       256        2.0000           -0.3685929             -10.0299 (HOMO)
       257        0.0000           -0.3397893              -9.2461 (LUMO)
       258                         -0.3298379              -8.9753
       259                         -0.3265903              -8.8870
       260                         -0.3181040              -8.6561
       261                         -0.3037417              -8.2652
       ...                                ...                  ...
       518                          1.1579179              31.5085
      -------------------------------------------------------------
                  HL-Gap            0.0288036 Eh            0.7838 eV
             Fermi-level           -0.3541909 Eh           -9.6380 eV

 SCC (total)                   0 d,  0 h,  0 min,  0.540 sec
 SCC setup                      ...        0 min,  0.005 sec (  0.941%)
 Dispersion                     ...        0 min,  0.008 sec (  1.463%)
 classical contributions        ...        0 min,  0.000 sec (  0.046%)
 integral evaluation            ...        0 min,  0.026 sec (  4.840%)
 iterations                     ...        0 min,  0.429 sec ( 79.497%)
 molecular gradient             ...        0 min,  0.069 sec ( 12.787%)
 printout                       ...        0 min,  0.002 sec (  0.410%)

         :::::::::::::::::::::::::::::::::::::::::::::::::::::
         ::                     SUMMARY                     ::
         :::::::::::::::::::::::::::::::::::::::::::::::::::::
         :: total energy            -279.714806460023 Eh    ::
         :: total w/o Gsasa/hb      -279.619446871516 Eh    ::
         :: gradient norm              0.022648704108 Eh/a0 ::
         :: HOMO-LUMO gap              0.783785485226 eV    ::
         ::.................................................::
         :: SCC energy              -283.950963099439 Eh    ::
         :: -> isotropic ES            0.178421465114 Eh    ::
         :: -> anisotropic ES          0.016157372697 Eh    ::
         :: -> anisotropic XC          0.152528228260 Eh    ::
         :: -> dispersion             -0.259106523916 Eh    ::
         :: -> Gsolv                  -0.123537254048 Eh    ::
         ::    -> Gelec               -0.028177665541 Eh    ::
         ::    -> Gsasa               -0.100172944327 Eh    ::
         ::    -> Ghb                  0.000000000000 Eh    ::
         ::    -> Gshift               0.004813355820 Eh    ::
         :: repulsion energy           4.235589771246 Eh    ::
         :: add. restraining           0.000000000000 Eh    ::
         :: total charge               0.000000000183 e     ::
         :::::::::::::::::::::::::::::::::::::::::::::::::::::

           -------------------------------------------------
          |                Property Printout                |
           -------------------------------------------------

    * Orbital Energies and Occupations

         #    Occupation            Energy/Eh            Energy/eV
      -------------------------------------------------------------
         1        2.0000           -0.8566930             -23.3118
       ...           ...                  ...                  ...
       244        2.0000           -0.4101550             -11.1609
       245        2.0000           -0.4091225             -11.1328
       246        2.0000           -0.4049861             -11.0202
       247        2.0000           -0.4034185             -10.9776
       248        2.0000           -0.4013080             -10.9201
       249        2.0000           -0.3987067             -10.8494
       250        2.0000           -0.3983814             -10.8405
       251        2.0000           -0.3884454             -10.5701
       252        2.0000           -0.3876344             -10.5481
       253        2.0000           -0.3845355             -10.4637
       254        2.0000           -0.3794444             -10.3252
       255        2.0000           -0.3761005             -10.2342
       256        2.0000           -0.3685929             -10.0299 (HOMO)
       257        0.0000           -0.3397893              -9.2461 (LUMO)
       258                         -0.3298379              -8.9753
       259                         -0.3265903              -8.8870
       260                         -0.3181040              -8.6561
       261                         -0.3037417              -8.2652
       262                         -0.2932945              -7.9810
       263                         -0.2883586              -7.8466
       264                         -0.2742641              -7.4631
       265                         -0.2598779              -7.0716
       266                         -0.2556912              -6.9577
       267                         -0.2503158              -6.8114
       ...                                ...                  ...
       518                          1.1579179              31.5085
      -------------------------------------------------------------
                  HL-Gap            0.0288036 Eh            0.7838 eV
             Fermi-level           -0.3541909 Eh           -9.6380 eV

     #   Z          covCN         q      C6AA      α(0)
     1   6 C        2.956    -0.012    28.302     8.726
     2   6 C        3.001    -0.034    28.831     8.808
     3   6 C        2.868     0.235    23.092     7.877
     4   8 O        0.856    -0.415    21.985     6.286
     5   6 C        3.062    -0.020    28.444     8.746
     6   6 C        2.904    -0.021    28.534     8.759
     7   6 C        3.261     0.011    26.599     8.331
     8   6 C        3.256     0.012    26.636     8.345
     9   6 C        2.904    -0.033    28.832     8.804
    10   6 C        3.045     0.006    27.840     8.654
    11   6 C        3.024     0.038    27.124     8.543
    12   6 C        2.947     0.007    27.852     8.656
    13   6 C        1.945     0.134    27.805     8.516
    14   7 N        0.911    -0.267    26.908     7.502
    15   6 C        1.943     0.130    27.891     8.529
    16   7 N        0.911    -0.269    26.954     7.509
    17   6 C        4.163    -0.024    20.923     6.497
    18   6 C        4.012    -0.015    20.766     6.474
    19   6 C        2.988    -0.042    29.023     8.837
    20   6 C        2.987    -0.042    29.031     8.838
    21   6 C        4.012    -0.015    20.765     6.474
    22   6 C        3.927    -0.060    21.594     6.604
    23   6 C        4.161    -0.024    20.922     6.496
    24   6 C        2.985     0.030    27.318     8.574
    25   6 C        3.104    -0.043    28.937     8.815
    26   6 C        3.148     0.036    26.936     8.490
    27  16 S        2.177    -0.186   148.926    20.539
    28   6 C        3.793     0.001    20.568     6.458
    29   6 C        3.779    -0.103    22.485     6.755
    30   6 C        3.047     0.028    27.334     8.575
    31  16 S        2.363    -0.020   141.898    20.049
    32   6 C        3.031     0.012    27.710     8.634
    33   6 C        3.104    -0.004    27.987     8.669
    34   6 C        2.975     0.009    27.807     8.650
    35   6 C        2.925    -0.036    28.904     8.817
    36   6 C        2.917    -0.030    28.738     8.791
    37   6 C        2.926    -0.035    28.884     8.814
    38   6 C        2.971     0.019    27.578     8.614
    39   6 C        3.807    -0.061    21.666     6.626
    40   6 C        3.754    -0.101    22.478     6.761
    41   6 C        2.930    -0.040    28.988     8.830
    42   6 C        3.186     0.011    27.308     8.527
    43  16 S        2.179    -0.042   142.784    20.111
    44   6 C        3.097     0.003    27.851     8.649
    45   6 C        3.088    -0.038    28.841     8.803
    46   6 C        3.341     0.070    24.010     7.748
    47   6 C        3.341     0.069    24.017     7.749
    48   7 N        1.854    -0.297    28.550     7.919
    49  16 S        2.686     0.339   127.986    19.041
    50   7 N        1.854    -0.296    28.520     7.915
    51   6 C        3.087    -0.038    28.841     8.803
    52   6 C        3.098     0.003    27.830     8.646
    53  16 S        2.178    -0.034   142.475    20.090
    54   6 C        3.195     0.011    27.257     8.512
    55   6 C        3.107    -0.003    27.967     8.665
    56   6 C        2.974     0.010    27.783     8.646
    57   6 C        2.924    -0.038    28.956     8.825
    58   6 C        2.918    -0.032    28.798     8.800
    59   6 C        2.925    -0.040    28.982     8.829
    60   6 C        2.970     0.018    27.605     8.618
    61   6 C        3.807    -0.061    21.675     6.628
    62   6 C        3.754    -0.100    22.471     6.760
    63   6 C        2.930    -0.041    29.020     8.835
    64   6 C        3.036     0.011    27.733     8.638
    65  16 S        2.309    -0.047   142.981    20.125
    66   6 C        3.119     0.006    27.727     8.624
    67   6 C        3.254     0.026    26.352     8.304
    68   7 N        2.798    -0.032    21.854     6.943
    69   6 C        3.072     0.033    27.199     8.551
    70   6 C        3.072     0.031    27.239     8.557
    71   7 N        2.799    -0.029    21.800     6.935
    72   6 C        3.257     0.026    26.302     8.291
    73   6 C        3.121     0.002    27.813     8.637
    74  16 S        2.402    -0.063   143.678    20.174
    75   6 C        3.744    -0.007    20.779     6.503
    76   6 C        3.752    -0.114    22.737     6.800
    77   6 C        3.744    -0.006    20.762     6.500
    78   6 C        3.752    -0.114    22.744     6.801
    79   6 C        3.025     0.038    27.125     8.543
    80   6 C        3.119    -0.060    29.302     8.866
    81   6 C        3.116     0.056    26.586     8.446
    82  16 S        2.106    -0.060   143.526    20.164
    83   6 C        3.793    -0.017    20.882     6.508
    84   6 C        3.777    -0.110    22.619     6.776
    85   6 C        3.012     0.025    27.427     8.591
    86  16 S        2.399    -0.017   141.750    20.038
    87   6 C        2.959    -0.011    28.289     8.724
    88   6 C        3.012    -0.039    28.961     8.828
    89   6 C        2.872     0.235    23.095     7.878
    90   8 O        0.924    -0.396    21.567     6.228
    91   6 C        3.042    -0.035    28.824     8.806
    92   6 C        3.037     0.013    27.697     8.632
    93   6 C        2.912    -0.051    29.265     8.871
    94   6 C        2.783     0.169    24.349     8.082
    95   9 F        0.788    -0.193    11.165     3.947
    96   6 C        2.777     0.149    24.749     8.148
    97   9 F        0.786    -0.186    11.092     3.934
    98   6 C        2.773     0.175    24.235     8.063
    99   9 F        0.787    -0.181    11.039     3.925
   100   6 C        3.022     0.040    27.073     8.535
   101   6 C        2.947     0.015    27.668     8.627
   102   6 C        1.938     0.133    27.838     8.521
   103   7 N        0.911    -0.257    26.667     7.469
   104   6 C        1.939     0.132    27.851     8.523
   105   7 N        0.911    -0.255    26.617     7.462
   106   1 H        0.925     0.071     2.077     2.254
   107   1 H        0.926     0.063     2.167     2.302
   108   1 H        0.926     0.058     2.218     2.329
   109   1 H        0.925     0.050     2.317     2.380
   110   1 H        0.925     0.040     2.455     2.450
   111   1 H        0.926     0.032     2.563     2.503
   112   1 H        0.926     0.032     2.557     2.500
   113   1 H        0.925     0.039     2.466     2.456
   114   1 H        0.925     0.042     2.422     2.434
   115   1 H        0.925     0.043     2.411     2.428
   116   1 H        0.925     0.050     2.323     2.384
   117   1 H        0.926     0.105     1.739     2.062
   118   1 H        0.925     0.046     2.370     2.408
   119   1 H        0.925     0.061     2.182     2.310
   120   1 H        0.925     0.056     2.250     2.346
   121   1 H        0.925     0.050     2.325     2.385
   122   1 H        0.925     0.042     2.428     2.437
   123   1 H        0.926     0.028     2.610     2.526
   124   1 H        0.926     0.040     2.445     2.445
   125   1 H        0.926     0.043     2.413     2.429
   126   1 H        0.924     0.042     2.417     2.431
   127   1 H        0.924     0.043     2.413     2.429
   128   1 H        0.925     0.040     2.443     2.444
   129   1 H        0.925     0.040     2.445     2.445
   130   1 H        0.925     0.036     2.502     2.474
   131   1 H        0.926     0.042     2.422     2.434
   132   1 H        0.926     0.032     2.562     2.503
   133   1 H        0.926     0.040     2.455     2.450
   134   1 H        0.926     0.040     2.455     2.450
   135   1 H        0.924     0.043     2.409     2.427
   136   1 H        0.924     0.044     2.399     2.422
   137   1 H        0.925     0.037     2.495     2.470
   138   1 H        0.925     0.037     2.490     2.468
   139   1 H        0.925     0.042     2.426     2.436
   140   1 H        0.926     0.041     2.429     2.437
   141   1 H        0.924     0.077     2.005     2.214
   142   1 H        0.925     0.070     2.081     2.256
   143   1 H        0.925     0.050     2.326     2.385
   144   1 H        0.925     0.056     2.242     2.342
   145   1 H        0.925     0.050     2.321     2.383
   146   1 H        0.924     0.071     2.077     2.254
   147   1 H        0.924     0.075     2.036     2.231
   148   1 H        0.925     0.057     2.238     2.340
   149   1 H        0.925     0.050     2.321     2.382
   150   1 H        0.925     0.051     2.307     2.375
   151   1 H        0.926     0.064     2.154     2.295
   152   1 H        0.925     0.069     2.094     2.263
   153   1 H        0.925     0.062     2.179     2.308
   154   1 H        0.925     0.050     2.323     2.383
   155   1 H        0.925     0.057     2.234     2.337
   156   1 H        0.925     0.055     2.257     2.349
   157   1 H        0.925     0.074     2.039     2.233
   158   1 H        0.926     0.107     1.720     2.051

 Mol. C6AA /au·bohr⁶  :     451071.411766
 Mol. C8AA /au·bohr⁸  :   12848787.843275
 Mol. α(0) /au        :       1068.771487


Wiberg/Mayer (AO) data.
largest (>0.10) Wiberg bond orders for each atom

 ---------------------------------------------------------------------------
     #   Z sym  total        # sym  WBO       # sym  WBO       # sym  WBO
 ---------------------------------------------------------------------------
     1   6 C    3.945 --     2 C    1.538    24 C    1.257   106 H    0.944
     2   6 C    3.954 --     1 C    1.538    11 C    1.126     3 C    1.034
     3   6 C    3.913 --     4 O    1.729     2 C    1.034     5 C    1.031
     4   8 O    2.025 --     3 C    1.729
     5   6 C    3.973 --     6 C    1.379    10 C    1.306     3 C    1.031
     6   6 C    3.981 --     7 C    1.444     5 C    1.379   107 H    0.963
     7   6 C    3.955 --     6 C    1.444     8 C    1.323    23 C    0.996
     8   6 C    3.965 --     9 C    1.451     7 C    1.323    17 C    0.997
     9   6 C    3.978 --     8 C    1.451    10 C    1.363   108 H    0.958
    10   6 C    3.977 --     9 C    1.363     5 C    1.306    11 C    1.091
    11   6 C    3.970 --    12 C    1.484     2 C    1.126    10 C    1.091
    12   6 C    3.949 --    11 C    1.484    13 C    1.098    15 C    1.098
    13   6 C    3.942 --    14 N    2.756    12 C    1.098
    14   7 N    2.963 --    13 C    2.756
    15   6 C    3.943 --    16 N    2.749    12 C    1.098
    16   7 N    2.957 --    15 C    2.749
    17   6 C    3.985 --     8 C    0.997    23 C    0.978   109 H    0.959
                            18 C    0.946
    18   6 C    3.989 --    19 C    1.010    22 C    0.985   110 H    0.972
                            17 C    0.946
    19   6 C    3.987 --    20 C    1.924    18 C    1.010   111 H    0.971
    20   6 C    3.987 --    19 C    1.924    21 C    1.010   112 H    0.971
    21   6 C    3.988 --    20 C    1.010    22 C    0.985   113 H    0.972
                            23 C    0.947
    22   6 C    3.993 --    21 C    0.985    18 C    0.985   114 H    0.977
                           115 H    0.976
    23   6 C    3.984 --     7 C    0.996    17 C    0.978   116 H    0.959
                            21 C    0.947
    24   6 C    3.928 --    25 C    1.416     1 C    1.257    31 S    1.084
    25   6 C    3.953 --    24 C    1.416    26 C    1.365   117 H    0.940
    26   6 C    3.940 --    30 C    1.373    25 C    1.365    27 S    1.012
    27  16 S    2.211 --    26 C    1.012    28 C    0.963
    28   6 C    3.970 --    29 C    1.028   118 H    0.973   119 H    0.970
                            27 S    0.963
    29   6 C    3.993 --    28 C    1.028   120 H    0.985   122 H    0.985
                           121 H    0.977
    30   6 C    3.928 --    26 C    1.373    32 C    1.200    31 S    1.157
    31  16 S    2.599 --    30 C    1.157    24 C    1.084
    32   6 C    3.918 --    33 C    1.413    30 C    1.200    74 S    1.070
    33   6 C    3.961 --    32 C    1.413    42 C    1.273    34 C    1.044
    34   6 C    3.986 --    41 C    1.390    35 C    1.373    33 C    1.044
                            37 C    0.101
    35   6 C    3.988 --    36 C    1.451    34 C    1.373   123 H    0.970
                            38 C    0.104
    36   6 C    3.990 --    35 C    1.451    37 C    1.436   124 H    0.969
                            41 C    0.104
    37   6 C    3.982 --    36 C    1.436    38 C    1.407   125 H    0.969
                            34 C    0.101
    38   6 C    3.986 --    41 C    1.418    37 C    1.407    39 C    1.013
                            35 C    0.104
    39   6 C    3.996 --    38 C    1.013    40 C    1.000   126 H    0.974
                           127 H    0.973
    40   6 C    3.995 --    39 C    1.000   130 H    0.988   129 H    0.988
                           128 H    0.986
    41   6 C    3.983 --    38 C    1.418    34 C    1.390   131 H    0.965
                            36 C    0.104
    42   6 C    3.925 --    73 C    1.344    33 C    1.273    43 S    1.091
    43  16 S    2.509 --    44 C    1.109    42 C    1.091
    44   6 C    3.920 --    72 C    1.310    45 C    1.270    43 S    1.109
    45   6 C    3.956 --    70 C    1.271    44 C    1.270    46 C    1.174
    46   6 C    3.972 --    50 N    1.423    45 C    1.174    47 C    1.166
                            49 S    0.103
    47   6 C    3.972 --    48 N    1.422    51 C    1.174    46 C    1.166
                            49 S    0.104
    48   7 N    3.061 --    47 C    1.422    49 S    1.387    50 N    0.145
    49  16 S    3.104 --    50 N    1.388    48 N    1.387    47 C    0.104
                            46 C    0.103
    50   7 N    3.062 --    46 C    1.423    49 S    1.388    48 N    0.145
    51   6 C    3.956 --    69 C    1.273    52 C    1.268    47 C    1.174
    52   6 C    3.921 --    67 C    1.310    51 C    1.268    53 S    1.110
    53  16 S    2.513 --    52 C    1.110    54 C    1.094
    54   6 C    3.925 --    66 C    1.335    55 C    1.277    53 S    1.094
    55   6 C    3.956 --    64 C    1.417    54 C    1.277    56 C    1.032
    56   6 C    3.987 --    63 C    1.397    57 C    1.381    55 C    1.032
                            59 C    0.103
    57   6 C    3.987 --    58 C    1.448    56 C    1.381   132 H    0.970
                            60 C    0.106
    58   6 C    3.990 --    57 C    1.448    59 C    1.438   133 H    0.969
                            63 C    0.105
    59   6 C    3.985 --    58 C    1.438    60 C    1.408   134 H    0.969
                            56 C    0.103
    60   6 C    3.987 --    63 C    1.415    59 C    1.408    61 C    1.013
                            57 C    0.106
    61   6 C    3.995 --    60 C    1.013    62 C    1.000   136 H    0.973
                           135 H    0.973
    62   6 C    3.996 --    61 C    1.000   137 H    0.988   138 H    0.988
                           139 H    0.986
    63   6 C    3.985 --    60 C    1.415    56 C    1.397   140 H    0.967
                            58 C    0.105
    64   6 C    3.918 --    55 C    1.417    79 C    1.192    65 S    1.083
    65  16 S    2.550 --    66 C    1.122    64 C    1.083
    66   6 C    3.925 --    54 C    1.335    67 C    1.245    65 S    1.122
    67   6 C    3.938 --    52 C    1.310    66 C    1.245    68 N    1.159
    68   7 N    3.554 --    69 C    1.167    67 C    1.159    77 C    0.977
    69   6 C    3.931 --    51 C    1.273    70 C    1.223    68 N    1.167
    70   6 C    3.932 --    45 C    1.271    69 C    1.223    71 N    1.170
    71   7 N    3.560 --    70 C    1.170    72 C    1.162    75 C    0.979
    72   6 C    3.938 --    44 C    1.310    73 C    1.240    71 N    1.162
    73   6 C    3.931 --    42 C    1.344    72 C    1.240    74 S    1.114
    74  16 S    2.596 --    73 C    1.114    32 C    1.070
    75   6 C    3.957 --    76 C    1.007    71 N    0.979   141 H    0.960
                           142 H    0.954
    76   6 C    3.988 --    75 C    1.007   143 H    0.986   145 H    0.983
                           144 H    0.983
    77   6 C    3.958 --    78 C    1.008    68 N    0.977   147 H    0.962
                           146 H    0.953
    78   6 C    3.988 --    77 C    1.008   149 H    0.986   148 H    0.983
                           150 H    0.982
    79   6 C    3.934 --    80 C    1.432    64 C    1.192    86 S    1.146
    80   6 C    3.959 --    79 C    1.432    81 C    1.335   151 H    0.952
    81   6 C    3.944 --    80 C    1.335    85 C    1.302    82 S    1.125
    82  16 S    2.517 --    81 C    1.125    83 C    0.967
    83   6 C    3.969 --    84 C    1.025    82 S    0.967   153 H    0.967
                           152 H    0.967
    84   6 C    3.988 --    83 C    1.025   156 H    0.985   154 H    0.982
                           155 H    0.976
    85   6 C    3.927 --    87 C    1.348    81 C    1.302    86 S    1.077
    86  16 S    2.557 --    79 C    1.146    85 C    1.077
    87   6 C    3.956 --    88 C    1.431    85 C    1.348   157 H    0.944
    88   6 C    3.959 --    87 C    1.431   100 C    1.165    89 C    1.081
    89   6 C    3.927 --    90 O    1.682    88 C    1.081    91 C    1.011
    90   8 O    2.052 --    89 C    1.682
    91   6 C    3.973 --    98 C    1.376    92 C    1.296    89 C    1.011
    92   6 C    3.984 --    93 C    1.413    91 C    1.296   100 C    1.074
    93   6 C    3.967 --    92 C    1.413    94 C    1.374   158 H    0.951
    94   6 C    3.882 --    93 C    1.374    96 C    1.349    95 F    0.985
    95   9 F    1.122 --    94 C    0.985
    96   6 C    3.879 --    94 C    1.349    98 C    1.320    97 F    0.987
    97   9 F    1.125 --    96 C    0.987
    98   6 C    3.889 --    91 C    1.376    96 C    1.320    99 F    0.996
    99   9 F    1.145 --    98 C    0.996
   100   6 C    3.971 --   101 C    1.472    88 C    1.165    92 C    1.074
   101   6 C    3.943 --   100 C    1.472   104 C    1.100   102 C    1.099
   102   6 C    3.944 --   103 N    2.755   101 C    1.099
   103   7 N    2.957 --   102 C    2.755
   104   6 C    3.943 --   105 N    2.758   101 C    1.100
   105   7 N    2.961 --   104 C    2.758
   106   1 H    0.994 --     1 C    0.944
   107   1 H    0.995 --     6 C    0.963
   108   1 H    0.996 --     9 C    0.958
   109   1 H    0.996 --    17 C    0.959
   110   1 H    0.998 --    18 C    0.972
   111   1 H    0.999 --    19 C    0.971
   112   1 H    0.999 --    20 C    0.971
   113   1 H    0.998 --    21 C    0.972
   114   1 H    0.998 --    22 C    0.977
   115   1 H    0.996 --    22 C    0.976
   116   1 H    0.995 --    23 C    0.959
   117   1 H    0.988 --    25 C    0.940
   118   1 H    0.998 --    28 C    0.973
   119   1 H    0.996 --    28 C    0.970
   120   1 H    0.997 --    29 C    0.985
   121   1 H    0.997 --    29 C    0.977
   122   1 H    0.998 --    29 C    0.985
   123   1 H    0.999 --    35 C    0.970
   124   1 H    0.997 --    36 C    0.969
   125   1 H    0.998 --    37 C    0.969
   126   1 H    0.998 --    39 C    0.974
   127   1 H    0.998 --    39 C    0.973
   128   1 H    0.997 --    40 C    0.986
   129   1 H    0.998 --    40 C    0.988
   130   1 H    0.999 --    40 C    0.988
   131   1 H    0.998 --    41 C    0.965
   132   1 H    0.998 --    57 C    0.970
   133   1 H    0.997 --    58 C    0.969
   134   1 H    0.998 --    59 C    0.969
   135   1 H    0.998 --    61 C    0.973
   136   1 H    0.998 --    61 C    0.973
   137   1 H    0.999 --    62 C    0.988
   138   1 H    0.999 --    62 C    0.988
   139   1 H    0.997 --    62 C    0.986
   140   1 H    0.998 --    63 C    0.967
   141   1 H    0.993 --    75 C    0.960
   142   1 H    0.993 --    75 C    0.954
   143   1 H    0.997 --    76 C    0.986
   144   1 H    0.996 --    76 C    0.983
   145   1 H    0.997 --    76 C    0.983
   146   1 H    0.993 --    77 C    0.953
   147   1 H    0.994 --    77 C    0.962
   148   1 H    0.996 --    78 C    0.983
   149   1 H    0.997 --    78 C    0.986
   150   1 H    0.997 --    78 C    0.982
   151   1 H    0.995 --    80 C    0.952
   152   1 H    0.995 --    83 C    0.967
   153   1 H    0.995 --    83 C    0.967
   154   1 H    0.997 --    84 C    0.982
   155   1 H    0.995 --    84 C    0.976
   156   1 H    0.997 --    84 C    0.985
   157   1 H    0.992 --    87 C    0.944
   158   1 H    0.988 --    93 C    0.951
 ---------------------------------------------------------------------------

Topologies differ in bond orders
Writing corrected topology to xtbtopo.mol

molecular dipole:
                 x           y           z       tot (Debye)
 q only:        0.484       1.054      -2.411
   full:        0.423       1.159      -1.948       5.862
molecular quadrupole (traceless):
                xx          xy          yy          xz          yz          zz
 q only:      120.559      94.149     -87.323    -116.781     133.408     -33.236
  q+dip:      138.636     102.610    -117.107    -103.982     138.466     -21.528
   full:      141.714     101.948    -125.052    -102.843     142.897     -16.663


           -------------------------------------------------
          | TOTAL ENERGY             -279.714806460023 Eh   |
          | GRADIENT NORM               0.022648704108 Eh/α |
          | HOMO-LUMO GAP               0.783785485226 eV   |
           -------------------------------------------------

------------------------------------------------------------------------
 * finished run on 2022/02/14 at 20:15:26.844     
------------------------------------------------------------------------
 total:
 * wall-time:     0 d,  0 h,  0 min,  0.620 sec
 *  cpu-time:     0 d,  0 h,  0 min,  4.871 sec
 * ratio c/w:     7.857 speedup
 SCF:
 * wall-time:     0 d,  0 h,  0 min,  0.543 sec
 *  cpu-time:     0 d,  0 h,  0 min,  4.325 sec
 * ratio c/w:     7.971 speedup

