      -----------------------------------------------------------      
     |                   =====================                   |     
     |                           x T B                           |     
     |                   =====================                   |     
     |                         S. Grimme                         |     
     |          Mulliken Center for Theoretical Chemistry        |     
     |                    University of Bonn                     |     
      -----------------------------------------------------------      

   * xtb version 6.4.1 (unknown) compiled by 'oda6@login1.crc.pitt.edu' on 2021-06-25

   xtb is free software: you can redistribute it and/or modify it under
   the terms of the GNU Lesser General Public License as published by
   the Free Software Foundation, either version 3 of the License, or
   (at your option) any later version.
   
   xtb is distributed in the hope that it will be useful,
   but WITHOUT ANY WARRANTY; without even the implied warranty of
   MERCHANTABILITY or FITNESS FOR A PARTICULAR PURPOSE.  See the
   GNU Lesser General Public License for more details.
   
   Cite this work as:
   * C. Bannwarth, E. Caldeweyher, S. Ehlert, A. Hansen, P. Pracht,
     J. Seibert, S. Spicher, S. Grimme, WIREs Comput. Mol. Sci., 2020, 11,
     e01493. DOI: 10.1002/wcms.1493
   
   for GFN2-xTB:
   * C. Bannwarth, S. Ehlert and S. Grimme., J. Chem. Theory Comput., 2019,
     15, 1652-1671. DOI: 10.1021/acs.jctc.8b01176
   for GFN1-xTB:
   * S. Grimme, C. Bannwarth, P. Shushkov, J. Chem. Theory Comput., 2017,
     13, 1989-2009. DOI: 10.1021/acs.jctc.7b00118
   for GFN0-xTB:
   * P. Pracht, E. Caldeweyher, S. Ehlert, S. Grimme, ChemRxiv, 2019, preprint.
     DOI: 10.26434/chemrxiv.8326202.v1
   for GFN-FF:
   * S. Spicher and S. Grimme, Angew. Chem. Int. Ed., 2020, 59, 15665-15673.
     DOI: 10.1002/anie.202004239
   
   for DFT-D4:
   * E. Caldeweyher, C. Bannwarth and S. Grimme, J. Chem. Phys., 2017,
     147, 034112. DOI: 10.1063/1.4993215
   * E. Caldeweyher, S. Ehlert, A. Hansen, H. Neugebauer, S. Spicher,
     C. Bannwarth and S. Grimme, J. Chem. Phys., 2019, 150, 154122.
     DOI: 10.1063/1.5090222
   * E. Caldeweyher, J.-M. Mewes, S. Ehlert and S. Grimme, Phys. Chem. Chem. Phys.
     2020, 22, 8499-8512. DOI: 10.1039/D0CP00502A
   
   for sTDA-xTB:
   * S. Grimme and C. Bannwarth, J. Chem. Phys., 2016, 145, 054103.
     DOI: 10.1063/1.4959605
   
   in the mass-spec context:
   * V. Asgeirsson, C. Bauer and S. Grimme, Chem. Sci., 2017, 8, 4879.
     DOI: 10.1039/c7sc00601b
   * J. Koopman and S. Grimme, ACS Omega 2019, 4, 12, 15120-15133.
     DOI: 10.1021/acsomega.9b02011
   
   for metadynamics refer to:
   * S. Grimme, J. Chem. Theory Comput., 2019, 155, 2847-2862
     DOI: 10.1021/acs.jctc.9b00143
   
   for SPH calculations refer to:
   * S. Spicher and S. Grimme, J. Chem. Theory Comput., 2021, 17, 1701-1714
     DOI: 10.1021/acs.jctc.0c01306
   
   with help from (in alphabetical order)
   P. Atkinson, C. Bannwarth, F. Bohle, G. Brandenburg, E. Caldeweyher
   M. Checinski, S. Dohm, S. Ehlert, S. Ehrlich, I. Gerasimov, J. Koopman
   C. Lavigne, S. Lehtola, F. März, M. Müller, F. Musil, H. Neugebauer
   J. Pisarek, C. Plett, P. Pracht, J. Seibert, P. Shushkov, S. Spicher
   M. Stahn, M. Steiner, T. Strunk, J. Stückrath, T. Rose, and J. Unsleber
   
 * started run on 2022/02/04 at 01:55:32.554     

           -------------------------------------------------
          |                Calculation Setup                |
           -------------------------------------------------

          program call               : /ihome/ghutchison/oda6/xtb/xtb-641/bin/xtb ../../GFN2_output/42_21_114_21_24.mol --sp --alpb hexane
          hostname                   : smp-n26
          coordinate file            : ../../GFN2_output/42_21_114_21_24.mol
          omp threads                :                     8
          number of atoms            :                   116
          number of electrons        :                   354
          charge                     :                     0
          spin                       :                   0.0
          first test random number   :      0.80015672790507

   ID    Z sym.   atoms
    1    6 C      1-3, 6-8, 10, 11, 13-18, 20-25, 27, 28, 31, 32, 34-36,
                  38-42, 44-47, 49-54, 56-58, 60, 62-68, 70
    2    8 O      4, 9, 59
    3    7 N      5, 12, 29, 30, 33, 43, 48, 69, 71
    4   34 Se     19, 55
    5   16 S      26, 37, 61
    6    1 H      72-116

           -------------------------------------------------
          |                 G F N 2 - x T B                 |
           -------------------------------------------------

        Reference                      10.1021/acs.jctc.8b01176
      * Hamiltonian:
        H0-scaling (s, p, d)           1.850000    2.230000    2.230000
        zeta-weighting                 0.500000
      * Dispersion:
        s8                             2.700000
        a1                             0.520000
        a2                             5.000000
        s9                             5.000000
      * Repulsion:
        kExp                           1.500000    1.000000
        rExp                           1.000000
      * Coulomb:
        alpha                          2.000000
        third order                    shell-resolved
        anisotropic                    true
        a3                             3.000000
        a5                             4.000000
        cn-shift                       1.200000
        cn-exp                         4.000000
        max-rad                        5.000000

      * Solvation model:               ALPB
        Solvent                        hexane
        Parameter file                 internal GFN2-xTB/ALPB
        Dielectric constant                1.8800E+00
        Reference state                gsolv [1 M gas/solution]
        Free energy shift                  4.8134E-03 Eh       3.0204E+00 kcal/mol
        Temperature                        2.9815E+02 K
        Density                            6.6000E-01 kg/L
        Solvent mass                       8.6180E+01 g/mol
        Interaction kernel             P16
        Born radius scaling (c1)           1.1040E+00
        Born radii integrator          GBOBC
        Born offset                        0.0000E+00 a0       0.0000E+00 AA
        H-bond correction              false
        Ion screening                  false
        Surface tension                    1.0000E-05 Eh       1.5569E+01 dyn/cm
        Grid points                               230 per atom

          ...................................................
          :                      SETUP                      :
          :.................................................:
          :  # basis functions                 359          :
          :  # atomic orbitals                 354          :
          :  # shells                          192          :
          :  # electrons                       354          :
          :  max. iterations                   250          :
          :  Hamiltonian                  GFN2-xTB          :
          :  restarted?                      false          :
          :  GBSA solvation                   true          :
          :  PC potential                    false          :
          :  electronic temp.          300.0000000     K    :
          :  accuracy                    1.0000000          :
          :  -> integral cutoff          0.2500000E+02      :
          :  -> integral neglect         0.1000000E-07      :
          :  -> SCF convergence          0.1000000E-05 Eh   :
          :  -> wf. convergence          0.1000000E-03 e    :
          :  Broyden damping             0.4000000          :
          ...................................................

 iter      E             dE          RMSdq      gap      omega  full diag
   1   -195.8003755 -0.195800E+03  0.435E+00    1.21       0.0  T
   2   -196.0439913 -0.243616E+00  0.252E+00    0.90       1.0  T
   3   -196.0143503  0.296411E-01  0.136E+00    0.85       1.0  T
   4   -196.0832711 -0.689209E-01  0.567E-01    0.98       1.0  T
   5   -196.1070305 -0.237593E-01  0.187E-01    0.77       1.0  T
   6   -196.1083916 -0.136108E-02  0.966E-02    0.86       1.0  T
   7   -196.1088438 -0.452259E-03  0.380E-02    0.84       1.0  T
   8   -196.1089073 -0.634923E-04  0.181E-02    0.84       1.0  T
   9   -196.1089114 -0.409448E-05  0.100E-02    0.84       1.0  T
  10   -196.1089143 -0.290925E-05  0.527E-03    0.84       1.8  T
  11   -196.1089148 -0.498665E-06  0.297E-03    0.84       3.1  T
  12   -196.1089149 -0.106468E-06  0.177E-03    0.84       5.2  T
  13   -196.1089150 -0.111570E-06  0.771E-04    0.84      12.1  T
  14   -196.1089150 -0.109094E-07  0.405E-04    0.84      22.9  T

   *** convergence criteria satisfied after 14 iterations ***

         #    Occupation            Energy/Eh            Energy/eV
      -------------------------------------------------------------
         1        2.0000           -0.7636079             -20.7788
       ...           ...                  ...                  ...
       171        2.0000           -0.3959545             -10.7745
       172        2.0000           -0.3903131             -10.6210
       173        2.0000           -0.3894736             -10.5981
       174        2.0000           -0.3828170             -10.4170
       175        2.0000           -0.3751943             -10.2096
       176        2.0000           -0.3688268             -10.0363
       177        2.0000           -0.3561980              -9.6926 (HOMO)
       178        0.0000           -0.3252560              -8.8507 (LUMO)
       179                         -0.3146366              -8.5617
       180                         -0.3076106              -8.3705
       181                         -0.2797486              -7.6123
       182                         -0.2686974              -7.3116
       ...                                ...                  ...
       354                          1.1633844              31.6573
      -------------------------------------------------------------
                  HL-Gap            0.0309420 Eh            0.8420 eV
             Fermi-level           -0.3407271 Eh           -9.2717 eV

 SCC (total)                   0 d,  0 h,  0 min,  0.265 sec
 SCC setup                      ...        0 min,  0.002 sec (  0.923%)
 Dispersion                     ...        0 min,  0.003 sec (  1.068%)
 classical contributions        ...        0 min,  0.000 sec (  0.054%)
 integral evaluation            ...        0 min,  0.013 sec (  4.938%)
 iterations                     ...        0 min,  0.207 sec ( 78.254%)
 molecular gradient             ...        0 min,  0.038 sec ( 14.364%)
 printout                       ...        0 min,  0.001 sec (  0.368%)

         :::::::::::::::::::::::::::::::::::::::::::::::::::::
         ::                     SUMMARY                     ::
         :::::::::::::::::::::::::::::::::::::::::::::::::::::
         :: total energy            -193.236587802285 Eh    ::
         :: total w/o Gsasa/hb      -193.172110667208 Eh    ::
         :: gradient norm              0.024535980829 Eh/a0 ::
         :: HOMO-LUMO gap              0.841974595758 eV    ::
         ::.................................................::
         :: SCC energy              -196.108915039453 Eh    ::
         :: -> isotropic ES            0.165899414594 Eh    ::
         :: -> anisotropic ES          0.015494566999 Eh    ::
         :: -> anisotropic XC          0.117574632921 Eh    ::
         :: -> dispersion             -0.173527506805 Eh    ::
         :: -> Gsolv                  -0.090207144468 Eh    ::
         ::    -> Gelec               -0.025730009390 Eh    ::
         ::    -> Gsasa               -0.069290490897 Eh    ::
         ::    -> Ghb                  0.000000000000 Eh    ::
         ::    -> Gshift               0.004813355820 Eh    ::
         :: repulsion energy           2.872757274893 Eh    ::
         :: add. restraining           0.000000000000 Eh    ::
         :: total charge              -0.000000000002 e     ::
         :::::::::::::::::::::::::::::::::::::::::::::::::::::

           -------------------------------------------------
          |                Property Printout                |
           -------------------------------------------------

    * Orbital Energies and Occupations

         #    Occupation            Energy/Eh            Energy/eV
      -------------------------------------------------------------
         1        2.0000           -0.7636079             -20.7788
       ...           ...                  ...                  ...
       165        2.0000           -0.4099366             -11.1549
       166        2.0000           -0.4092414             -11.1360
       167        2.0000           -0.4068515             -11.0710
       168        2.0000           -0.4054903             -11.0340
       169        2.0000           -0.4050792             -11.0228
       170        2.0000           -0.4024191             -10.9504
       171        2.0000           -0.3959545             -10.7745
       172        2.0000           -0.3903131             -10.6210
       173        2.0000           -0.3894736             -10.5981
       174        2.0000           -0.3828170             -10.4170
       175        2.0000           -0.3751943             -10.2096
       176        2.0000           -0.3688268             -10.0363
       177        2.0000           -0.3561980              -9.6926 (HOMO)
       178        0.0000           -0.3252560              -8.8507 (LUMO)
       179                         -0.3146366              -8.5617
       180                         -0.3076106              -8.3705
       181                         -0.2797486              -7.6123
       182                         -0.2686974              -7.3116
       183                         -0.2582512              -7.0274
       184                         -0.2447276              -6.6594
       185                         -0.2434186              -6.6238
       186                         -0.2406188              -6.5476
       187                         -0.2365865              -6.4378
       188                         -0.2224940              -6.0544
       ...                                ...                  ...
       354                          1.1633844              31.6573
      -------------------------------------------------------------
                  HL-Gap            0.0309420 Eh            0.8420 eV
             Fermi-level           -0.3407271 Eh           -9.2717 eV

     #   Z          covCN         q      C6AA      α(0)
     1   6 C        2.918    -0.019    28.474     8.750
     2   6 C        2.952    -0.047    29.155     8.856
     3   6 C        2.773     0.270    22.447     7.760
     4   8 O        1.074    -0.388    21.325     6.197
     5   7 N        2.740    -0.094    23.080     7.135
     6   6 C        3.754     0.009    20.484     6.454
     7   6 C        3.752    -0.110    22.658     6.788
     8   6 C        2.776     0.296    21.988     7.680
     9   8 O        0.858    -0.424    22.176     6.314
    10   6 C        3.865    -0.035    21.152     6.540
    11   6 C        1.908     0.138    27.745     8.507
    12   7 N        0.911    -0.241    26.290     7.416
    13   6 C        3.863    -0.007    20.654     6.463
    14   6 C        3.753    -0.113    22.723     6.797
    15   6 C        2.961     0.012    27.742     8.639
    16   6 C        3.096    -0.040    28.875     8.807
    17   6 C        3.061    -0.049    29.162     8.856
    18   6 C        3.038     0.002    27.950     8.671
    19  34 Se       2.633    -0.009   236.051    26.771
    20   6 C        3.046     0.011    27.728     8.636
    21   6 C        3.075    -0.020    28.423     8.741
    22   6 C        3.804    -0.058    21.610     6.618
    23   6 C        3.753    -0.100    22.468     6.759
    24   6 C        3.237     0.021    26.656     8.375
    25   6 C        3.098     0.003    27.830     8.645
    26  16 S        2.357    -0.052   143.224    20.142
    27   6 C        3.077    -0.040    28.911     8.815
    28   6 C        3.153     0.052    26.555     8.427
    29   7 N        1.986    -0.274    27.928     7.838
    30   7 N        3.286     0.221    17.620     6.234
    31   6 C        3.745    -0.021    21.012     6.539
    32   6 C        3.753    -0.114    22.738     6.800
    33   7 N        1.986    -0.275    27.955     7.841
    34   6 C        3.154     0.050    26.591     8.433
    35   6 C        3.069    -0.036    28.821     8.803
    36   6 C        3.091     0.008    27.724     8.630
    37  16 S        2.383    -0.046   142.964    20.124
    38   6 C        3.047     0.010    27.739     8.638
    39   6 C        3.075    -0.015    28.301     8.722
    40   6 C        3.803    -0.056    21.578     6.613
    41   6 C        3.752    -0.104    22.543     6.771
    42   6 C        3.249     0.025    26.432     8.324
    43   7 N        2.792    -0.070    22.599     7.061
    44   6 C        3.745    -0.008    20.794     6.505
    45   6 C        3.751    -0.108    22.631     6.784
    46   6 C        3.061     0.029    27.300     8.568
    47   6 C        3.058     0.024    27.425     8.588
    48   7 N        2.809    -0.037    21.949     6.958
    49   6 C        3.739    -0.001    20.669     6.487
    50   6 C        3.751    -0.117    22.793     6.808
    51   6 C        3.028     0.025    27.418     8.589
    52   6 C        3.072    -0.047    29.099     8.845
    53   6 C        3.084    -0.029    28.631     8.772
    54   6 C        2.966     0.014    27.700     8.633
    55  34 Se       2.467    -0.047   237.323    26.843
    56   6 C        2.919    -0.008    28.220     8.711
    57   6 C        3.030    -0.039    28.949     8.825
    58   6 C        2.871     0.232    23.143     7.886
    59   8 O        0.856    -0.418    22.048     6.295
    60   6 C        3.075    -0.021    28.437     8.743
    61  16 S        2.277     0.051   138.980    19.842
    62   6 C        2.997     0.038    27.139     8.546
    63   6 C        3.778    -0.119    22.799     6.803
    64   6 C        3.067    -0.056    29.313     8.878
    65   6 C        3.233    -0.004    27.260     8.474
    66   6 C        3.029     0.043    26.999     8.523
    67   6 C        2.948     0.012    27.745     8.639
    68   6 C        1.931     0.137    27.757     8.508
    69   7 N        0.911    -0.264    26.833     7.492
    70   6 C        1.927     0.134    27.827     8.519
    71   7 N        0.911    -0.266    26.892     7.500
    72   1 H        0.925     0.075     2.029     2.227
    73   1 H        0.924     0.071     2.071     2.250
    74   1 H        0.924     0.073     2.051     2.240
    75   1 H        0.925     0.057     2.239     2.340
    76   1 H        0.925     0.056     2.248     2.345
    77   1 H        0.925     0.049     2.334     2.389
    78   1 H        0.923     0.098     1.806     2.101
    79   1 H        0.923     0.053     2.286     2.364
    80   1 H        0.925     0.056     2.250     2.346
    81   1 H        0.925     0.050     2.324     2.384
    82   1 H        0.925     0.054     2.269     2.355
    83   1 H        0.926     0.044     2.397     2.421
    84   1 H        0.926     0.049     2.336     2.390
    85   1 H        0.925     0.049     2.333     2.388
    86   1 H        0.924     0.045     2.378     2.412
    87   1 H        0.925     0.035     2.516     2.481
    88   1 H        0.925     0.039     2.456     2.451
    89   1 H        0.925     0.040     2.447     2.446
    90   1 H        0.924     0.080     1.975     2.198
    91   1 H        0.924     0.080     1.979     2.200
    92   1 H        0.925     0.057     2.230     2.335
    93   1 H        0.925     0.057     2.239     2.340
    94   1 H        0.925     0.060     2.200     2.320
    95   1 H        0.924     0.046     2.372     2.408
    96   1 H        0.924     0.052     2.299     2.371
    97   1 H        0.925     0.041     2.433     2.439
    98   1 H        0.925     0.042     2.426     2.435
    99   1 H        0.925     0.042     2.419     2.432
   100   1 H        0.925     0.067     2.117     2.275
   101   1 H        0.925     0.071     2.072     2.251
   102   1 H        0.925     0.043     2.415     2.430
   103   1 H        0.925     0.042     2.424     2.435
   104   1 H        0.925     0.046     2.365     2.405
   105   1 H        0.924     0.060     2.200     2.320
   106   1 H        0.924     0.065     2.141     2.288
   107   1 H        0.925     0.048     2.344     2.394
   108   1 H        0.925     0.054     2.270     2.356
   109   1 H        0.925     0.050     2.314     2.379
   110   1 H        0.926     0.063     2.161     2.299
   111   1 H        0.926     0.058     2.226     2.333
   112   1 H        0.925     0.080     1.978     2.199
   113   1 H        0.925     0.073     2.048     2.238
   114   1 H        0.925     0.074     2.045     2.237
   115   1 H        0.925     0.069     2.092     2.262
   116   1 H        0.926     0.065     2.136     2.285

 Mol. C6AA /au·bohr⁶  :     216483.543575
 Mol. C8AA /au·bohr⁸  :    6166674.425381
 Mol. α(0) /au        :        735.693672


Wiberg/Mayer (AO) data.
largest (>0.10) Wiberg bond orders for each atom

 ---------------------------------------------------------------------------
     #   Z sym  total        # sym  WBO       # sym  WBO       # sym  WBO
 ---------------------------------------------------------------------------
     1   6 C    3.968 --     2 C    1.570    15 C    1.258    72 H    0.945
     2   6 C    3.952 --     1 C    1.570     3 C    1.128    13 C    0.994
     3   6 C    3.925 --     4 O    1.571     2 C    1.128     5 N    1.093
     4   8 O    2.157 --     3 C    1.571    19 Se   0.267
     5   7 N    3.562 --     8 C    1.172     3 C    1.093     6 C    0.956
                             9 O    0.147
     6   6 C    3.948 --     7 C    1.010    74 H    0.968    73 H    0.968
                             5 N    0.956
     7   6 C    3.990 --     6 C    1.010    77 H    0.986    76 H    0.985
                            75 H    0.982
     8   6 C    3.940 --     9 O    1.724     5 N    1.172    10 C    0.930
     9   8 O    2.025 --     8 C    1.724     5 N    0.147
    10   6 C    3.990 --    11 C    1.037    13 C    0.942     8 C    0.930
                            78 H    0.913
    11   6 C    3.943 --    12 N    2.853    10 C    1.037
    12   7 N    3.005 --    11 C    2.853
    13   6 C    3.988 --    14 C    1.009     2 C    0.994    79 H    0.952
                            10 C    0.942
    14   6 C    3.992 --    13 C    1.009    81 H    0.984    82 H    0.981
                            80 H    0.979
    15   6 C    3.950 --    16 C    1.381     1 C    1.258    19 Se   1.133
    16   6 C    3.977 --    17 C    1.400    15 C    1.381    83 H    0.963
                            19 Se   0.116
    17   6 C    3.964 --    18 C    1.412    16 C    1.400    84 H    0.957
    18   6 C    3.967 --    17 C    1.412    19 Se   1.189    20 C    1.175
    19  34 Se   3.013 --    18 C    1.189    15 C    1.133     4 O    0.267
                            16 C    0.116
    20   6 C    3.916 --    21 C    1.458    18 C    1.175    26 S    1.094
    21   6 C    3.958 --    20 C    1.458    24 C    1.245    22 C    1.011
    22   6 C    3.995 --    21 C    1.011    23 C    0.998    86 H    0.966
                            85 H    0.962
    23   6 C    3.991 --    22 C    0.998    89 H    0.986    88 H    0.984
                            87 H    0.984
    24   6 C    3.933 --    25 C    1.307    21 C    1.245    48 N    1.152
    25   6 C    3.923 --    24 C    1.307    27 C    1.270    26 S    1.118
    26  16 S    2.554 --    25 C    1.118    20 C    1.094
    27   6 C    3.953 --    47 C    1.272    25 C    1.270    28 C    1.180
    28   6 C    3.973 --    29 N    1.368    34 C    1.224    27 C    1.180
    29   7 N    2.972 --    28 C    1.368    30 N    1.274    33 N    0.202
    30   7 N    3.738 --    33 N    1.276    29 N    1.274    31 C    0.981
    31   6 C    3.958 --    32 C    1.000    30 N    0.981    91 H    0.966
                            90 H    0.966
    32   6 C    3.985 --    31 C    1.000    93 H    0.986    92 H    0.986
                            94 H    0.982
    33   7 N    2.972 --    34 C    1.366    30 N    1.276    29 N    0.202
    34   6 C    3.972 --    33 N    1.366    28 C    1.224    35 C    1.180
    35   6 C    3.955 --    46 C    1.296    36 C    1.253    34 C    1.180
    36   6 C    3.920 --    42 C    1.317    35 C    1.253    37 S    1.120
    37  16 S    2.556 --    36 C    1.120    38 C    1.091
    38   6 C    3.915 --    39 C    1.432    51 C    1.191    37 S    1.091
    39   6 C    3.955 --    38 C    1.432    42 C    1.267    40 C    1.011
    40   6 C    3.995 --    39 C    1.011    41 C    0.999    95 H    0.966
                            96 H    0.964
    41   6 C    3.990 --    40 C    0.999    99 H    0.986    97 H    0.983
                            98 H    0.982
    42   6 C    3.936 --    36 C    1.317    39 C    1.267    43 N    1.129
    43   7 N    3.482 --    46 C    1.131    42 C    1.129    44 C    0.974
    44   6 C    3.962 --    45 C    1.007    43 N    0.974   101 H    0.959
                           100 H    0.955
    45   6 C    3.992 --    44 C    1.007   102 H    0.987   103 H    0.985
                           104 H    0.984
    46   6 C    3.927 --    35 C    1.296    47 C    1.237    43 N    1.131
    47   6 C    3.932 --    27 C    1.272    46 C    1.237    48 N    1.163
    48   7 N    3.557 --    47 C    1.163    24 C    1.152    49 C    0.989
    49   6 C    3.967 --    50 C    1.004    48 N    0.989   105 H    0.962
                           106 H    0.960
    50   6 C    3.989 --    49 C    1.004   107 H    0.984   108 H    0.979
                           109 H    0.977
    51   6 C    3.946 --    52 C    1.418    38 C    1.191    55 Se   1.165
    52   6 C    3.960 --    51 C    1.418    53 C    1.375   110 H    0.952
    53   6 C    3.967 --    54 C    1.407    52 C    1.375   111 H    0.961
                            55 Se   0.102
    54   6 C    3.941 --    53 C    1.407    56 C    1.241    55 Se   1.123
    55  34 Se   2.795 --    51 C    1.165    54 C    1.123    53 C    0.102
    56   6 C    3.942 --    57 C    1.549    54 C    1.241   112 H    0.945
    57   6 C    3.954 --    56 C    1.549    66 C    1.130    58 C    1.004
    58   6 C    3.925 --    59 O    1.720    60 C    1.071    57 C    1.004
    59   8 O    2.015 --    58 C    1.720
    60   6 C    3.921 --    65 C    1.382    61 S    1.186    58 C    1.071
    61  16 S    2.660 --    60 C    1.186    62 C    1.173
    62   6 C    3.934 --    64 C    1.562    61 S    1.173    63 C    1.047
    63   6 C    3.988 --    62 C    1.047   115 H    0.977   113 H    0.963
                           114 H    0.962
    64   6 C    3.980 --    62 C    1.562    65 C    1.279   116 H    0.958
    65   6 C    3.972 --    60 C    1.382    64 C    1.279    66 C    1.092
    66   6 C    3.971 --    67 C    1.455    57 C    1.130    65 C    1.092
    67   6 C    3.971 --    66 C    1.455    70 C    1.104    68 C    1.100
    68   6 C    3.943 --    69 N    2.745    67 C    1.100
    69   7 N    2.971 --    68 C    2.745
    70   6 C    3.943 --    71 N    2.761    67 C    1.104
    71   7 N    2.961 --    70 C    2.761
    72   1 H    0.993 --     1 C    0.945
    73   1 H    0.994 --     6 C    0.968
    74   1 H    0.994 --     6 C    0.968
    75   1 H    0.996 --     7 C    0.982
    76   1 H    0.997 --     7 C    0.985
    77   1 H    0.998 --     7 C    0.986
    78   1 H    0.990 --    10 C    0.913
    79   1 H    0.991 --    13 C    0.952
    80   1 H    0.996 --    14 C    0.979
    81   1 H    0.997 --    14 C    0.984
    82   1 H    0.996 --    14 C    0.981
    83   1 H    0.997 --    16 C    0.963
    84   1 H    0.996 --    17 C    0.957
    85   1 H    0.997 --    22 C    0.962
    86   1 H    0.997 --    22 C    0.966
    87   1 H    0.999 --    23 C    0.984
    88   1 H    0.998 --    23 C    0.984
    89   1 H    0.997 --    23 C    0.986
    90   1 H    0.992 --    31 C    0.966
    91   1 H    0.992 --    31 C    0.966
    92   1 H    0.997 --    32 C    0.986
    93   1 H    0.997 --    32 C    0.986
    94   1 H    0.996 --    32 C    0.982
    95   1 H    0.997 --    40 C    0.966
    96   1 H    0.996 --    40 C    0.964
    97   1 H    0.998 --    41 C    0.983
    98   1 H    0.998 --    41 C    0.982
    99   1 H    0.997 --    41 C    0.986
   100   1 H    0.994 --    44 C    0.955
   101   1 H    0.994 --    44 C    0.959
   102   1 H    0.998 --    45 C    0.987
   103   1 H    0.998 --    45 C    0.985
   104   1 H    0.997 --    45 C    0.984
   105   1 H    0.995 --    49 C    0.962
   106   1 H    0.994 --    49 C    0.960
   107   1 H    0.997 --    50 C    0.984
   108   1 H    0.997 --    50 C    0.979
   109   1 H    0.997 --    50 C    0.977
   110   1 H    0.995 --    52 C    0.952
   111   1 H    0.996 --    53 C    0.961
   112   1 H    0.991 --    56 C    0.945
   113   1 H    0.991 --    63 C    0.963
   114   1 H    0.991 --    63 C    0.962
   115   1 H    0.995 --    63 C    0.977
   116   1 H    0.995 --    64 C    0.958
 ---------------------------------------------------------------------------

Topologies differ in bond orders
Writing corrected topology to xtbtopo.mol

molecular dipole:
                 x           y           z       tot (Debye)
 q only:       -1.589       1.061       2.064
   full:       -2.229       0.729       2.703       9.095
molecular quadrupole (traceless):
                xx          xy          yy          xz          yz          zz
 q only:       -8.095    -135.114     -76.094     -29.072      53.220      84.189
  q+dip:       -8.629    -149.331     -81.855     -28.168      49.598      90.484
   full:       -6.461    -149.380     -87.127     -22.924      51.498      93.588


           -------------------------------------------------
          | TOTAL ENERGY             -193.236587802285 Eh   |
          | GRADIENT NORM               0.024535980829 Eh/α |
          | HOMO-LUMO GAP               0.841974595758 eV   |
           -------------------------------------------------

------------------------------------------------------------------------
 * finished run on 2022/02/04 at 01:55:32.882     
------------------------------------------------------------------------
 total:
 * wall-time:     0 d,  0 h,  0 min,  0.328 sec
 *  cpu-time:     0 d,  0 h,  0 min,  2.532 sec
 * ratio c/w:     7.721 speedup
 SCF:
 * wall-time:     0 d,  0 h,  0 min,  0.266 sec
 *  cpu-time:     0 d,  0 h,  0 min,  2.118 sec
 * ratio c/w:     7.961 speedup

