      -----------------------------------------------------------      
     |                   =====================                   |     
     |                           x T B                           |     
     |                   =====================                   |     
     |                         S. Grimme                         |     
     |          Mulliken Center for Theoretical Chemistry        |     
     |                    University of Bonn                     |     
      -----------------------------------------------------------      

   * xtb version 6.4.1 (unknown) compiled by 'oda6@login1.crc.pitt.edu' on 2021-06-25

   xtb is free software: you can redistribute it and/or modify it under
   the terms of the GNU Lesser General Public License as published by
   the Free Software Foundation, either version 3 of the License, or
   (at your option) any later version.
   
   xtb is distributed in the hope that it will be useful,
   but WITHOUT ANY WARRANTY; without even the implied warranty of
   MERCHANTABILITY or FITNESS FOR A PARTICULAR PURPOSE.  See the
   GNU Lesser General Public License for more details.
   
   Cite this work as:
   * C. Bannwarth, E. Caldeweyher, S. Ehlert, A. Hansen, P. Pracht,
     J. Seibert, S. Spicher, S. Grimme, WIREs Comput. Mol. Sci., 2020, 11,
     e01493. DOI: 10.1002/wcms.1493
   
   for GFN2-xTB:
   * C. Bannwarth, S. Ehlert and S. Grimme., J. Chem. Theory Comput., 2019,
     15, 1652-1671. DOI: 10.1021/acs.jctc.8b01176
   for GFN1-xTB:
   * S. Grimme, C. Bannwarth, P. Shushkov, J. Chem. Theory Comput., 2017,
     13, 1989-2009. DOI: 10.1021/acs.jctc.7b00118
   for GFN0-xTB:
   * P. Pracht, E. Caldeweyher, S. Ehlert, S. Grimme, ChemRxiv, 2019, preprint.
     DOI: 10.26434/chemrxiv.8326202.v1
   for GFN-FF:
   * S. Spicher and S. Grimme, Angew. Chem. Int. Ed., 2020, 59, 15665-15673.
     DOI: 10.1002/anie.202004239
   
   for DFT-D4:
   * E. Caldeweyher, C. Bannwarth and S. Grimme, J. Chem. Phys., 2017,
     147, 034112. DOI: 10.1063/1.4993215
   * E. Caldeweyher, S. Ehlert, A. Hansen, H. Neugebauer, S. Spicher,
     C. Bannwarth and S. Grimme, J. Chem. Phys., 2019, 150, 154122.
     DOI: 10.1063/1.5090222
   * E. Caldeweyher, J.-M. Mewes, S. Ehlert and S. Grimme, Phys. Chem. Chem. Phys.
     2020, 22, 8499-8512. DOI: 10.1039/D0CP00502A
   
   for sTDA-xTB:
   * S. Grimme and C. Bannwarth, J. Chem. Phys., 2016, 145, 054103.
     DOI: 10.1063/1.4959605
   
   in the mass-spec context:
   * V. Asgeirsson, C. Bauer and S. Grimme, Chem. Sci., 2017, 8, 4879.
     DOI: 10.1039/c7sc00601b
   * J. Koopman and S. Grimme, ACS Omega 2019, 4, 12, 15120-15133.
     DOI: 10.1021/acsomega.9b02011
   
   for metadynamics refer to:
   * S. Grimme, J. Chem. Theory Comput., 2019, 155, 2847-2862
     DOI: 10.1021/acs.jctc.9b00143
   
   for SPH calculations refer to:
   * S. Spicher and S. Grimme, J. Chem. Theory Comput., 2021, 17, 1701-1714
     DOI: 10.1021/acs.jctc.0c01306
   
   with help from (in alphabetical order)
   P. Atkinson, C. Bannwarth, F. Bohle, G. Brandenburg, E. Caldeweyher
   M. Checinski, S. Dohm, S. Ehlert, S. Ehrlich, I. Gerasimov, J. Koopman
   C. Lavigne, S. Lehtola, F. März, M. Müller, F. Musil, H. Neugebauer
   J. Pisarek, C. Plett, P. Pracht, J. Seibert, P. Shushkov, S. Spicher
   M. Stahn, M. Steiner, T. Strunk, J. Stückrath, T. Rose, and J. Unsleber
   
 * started run on 2022/02/07 at 12:16:18.381     

           -------------------------------------------------
          |                Calculation Setup                |
           -------------------------------------------------

          program call               : /ihome/ghutchison/oda6/xtb/xtb-641/bin/xtb ../../GFN2_output/49_28_100_28_62.mol --sp --alpb hexane
          hostname                   : smp-n26
          coordinate file            : ../../GFN2_output/49_28_100_28_62.mol
          omp threads                :                     8
          number of atoms            :                   249
          number of electrons        :                   766
          charge                     :                     0
          spin                       :                   0.0
          first test random number   :      0.92531231914253

   ID    Z sym.   atoms
    1    6 C      1-3, 5-8, 10-14, 16, 18, 19, 21-35, 37, 38, 40-54, 56-66,
                  68-71, 75, 76, 78-88, 90, 91, 93, 94, 96, 97, 99-104,
                  106-120, 122, 123, 125-139, 141-143, 145-149, 151, 153-155,
                  157
    2    8 O      4, 144
    3   35 Br     9, 150
    4    7 N      15, 17, 20, 39, 72, 74, 92, 95, 105, 124, 156, 158
    5   16 S      36, 55, 67, 73, 77, 89, 98, 121, 140
    6   17 Cl     152
    7    1 H      159-249

           -------------------------------------------------
          |                 G F N 2 - x T B                 |
           -------------------------------------------------

        Reference                      10.1021/acs.jctc.8b01176
      * Hamiltonian:
        H0-scaling (s, p, d)           1.850000    2.230000    2.230000
        zeta-weighting                 0.500000
      * Dispersion:
        s8                             2.700000
        a1                             0.520000
        a2                             5.000000
        s9                             5.000000
      * Repulsion:
        kExp                           1.500000    1.000000
        rExp                           1.000000
      * Coulomb:
        alpha                          2.000000
        third order                    shell-resolved
        anisotropic                    true
        a3                             3.000000
        a5                             4.000000
        cn-shift                       1.200000
        cn-exp                         4.000000
        max-rad                        5.000000

      * Solvation model:               ALPB
        Solvent                        hexane
        Parameter file                 internal GFN2-xTB/ALPB
        Dielectric constant                1.8800E+00
        Reference state                gsolv [1 M gas/solution]
        Free energy shift                  4.8134E-03 Eh       3.0204E+00 kcal/mol
        Temperature                        2.9815E+02 K
        Density                            6.6000E-01 kg/L
        Solvent mass                       8.6180E+01 g/mol
        Interaction kernel             P16
        Born radius scaling (c1)           1.1040E+00
        Born radii integrator          GBOBC
        Born offset                        0.0000E+00 a0       0.0000E+00 AA
        H-bond correction              false
        Ion screening                  false
        Surface tension                    1.0000E-05 Eh       1.5569E+01 dyn/cm
        Grid points                               230 per atom

          ...................................................
          :                      SETUP                      :
          :.................................................:
          :  # basis functions                 795          :
          :  # atomic orbitals                 783          :
          :  # shells                          419          :
          :  # electrons                       766          :
          :  max. iterations                   250          :
          :  Hamiltonian                  GFN2-xTB          :
          :  restarted?                      false          :
          :  GBSA solvation                   true          :
          :  PC potential                    false          :
          :  electronic temp.          300.0000000     K    :
          :  accuracy                    1.0000000          :
          :  -> integral cutoff          0.2500000E+02      :
          :  -> integral neglect         0.1000000E-07      :
          :  -> SCF convergence          0.1000000E-05 Eh   :
          :  -> wf. convergence          0.1000000E-03 e    :
          :  Broyden damping             0.4000000          :
          ...................................................

 iter      E             dE          RMSdq      gap      omega  full diag
   1   -420.8806993 -0.420881E+03  0.438E+00    1.02       0.0  T
   2   -421.1515216 -0.270822E+00  0.264E+00    0.72       1.0  T
   3   -420.9552125  0.196309E+00  0.126E+00    0.34       1.0  T
   4   -421.2084887 -0.253276E+00  0.482E-01    0.59       1.0  T
   5   -421.2457750 -0.372862E-01  0.184E-01    0.39       1.0  T
   6   -421.2484983 -0.272332E-02  0.105E-01    0.47       1.0  T
   7   -421.2492630 -0.764738E-03  0.618E-02    0.43       1.0  T
   8   -421.2494459 -0.182857E-03  0.472E-02    0.45       1.0  T
   9   -421.2495389 -0.930296E-04  0.336E-02    0.44       1.0  T
  10   -421.2496188 -0.798932E-04  0.198E-02    0.43       1.0  T
  11   -421.2496550 -0.361710E-04  0.103E-02    0.43       1.0  T
  12   -421.2496628 -0.786691E-05  0.562E-03    0.43       1.1  T
  13   -421.2496651 -0.225453E-05  0.359E-03    0.43       1.8  T
  14   -421.2496659 -0.756956E-06  0.261E-03    0.43       2.4  T
  15   -421.2496662 -0.360113E-06  0.185E-03    0.43       3.4  T
  16   -421.2496664 -0.222717E-06  0.106E-03    0.43       6.0  T
  17   -421.2496666 -0.122692E-06  0.574E-04    0.43      11.0  T
  18   -421.2496666 -0.244677E-07  0.321E-04    0.43      19.7  T

   *** convergence criteria satisfied after 18 iterations ***

         #    Occupation            Energy/Eh            Energy/eV
      -------------------------------------------------------------
         1        2.0000           -1.0734174             -29.2092
       ...           ...                  ...                  ...
       377        2.0000           -0.3764850             -10.2447
       378        2.0000           -0.3731824             -10.1548
       379        2.0000           -0.3685019             -10.0274
       380        2.0000           -0.3652288              -9.9384
       381        2.0000           -0.3614677              -9.8360
       382        2.0000           -0.3527398              -9.5985
       383        1.9995           -0.3504103              -9.5351 (HOMO)
       384        0.0005           -0.3346584              -9.1065 (LUMO)
       385        0.0000           -0.3271544              -8.9023
       386                         -0.3233707              -8.7994
       387                         -0.3191820              -8.6854
       388                         -0.2999218              -8.1613
       ...                                ...                  ...
       783                          1.1610136              31.5928
      -------------------------------------------------------------
                  HL-Gap            0.0157518 Eh            0.4286 eV
             Fermi-level           -0.3424953 Eh           -9.3198 eV

 SCC (total)                   0 d,  0 h,  0 min,  1.400 sec
 SCC setup                      ...        0 min,  0.011 sec (  0.760%)
 Dispersion                     ...        0 min,  0.014 sec (  1.012%)
 classical contributions        ...        0 min,  0.001 sec (  0.041%)
 integral evaluation            ...        0 min,  0.057 sec (  4.059%)
 iterations                     ...        0 min,  1.072 sec ( 76.541%)
 molecular gradient             ...        0 min,  0.240 sec ( 17.169%)
 printout                       ...        0 min,  0.006 sec (  0.410%)

         :::::::::::::::::::::::::::::::::::::::::::::::::::::
         ::                     SUMMARY                     ::
         :::::::::::::::::::::::::::::::::::::::::::::::::::::
         :: total energy            -414.429415638596 Eh    ::
         :: total w/o Gsasa/hb      -414.306071122329 Eh    ::
         :: gradient norm              0.022102037942 Eh/a0 ::
         :: HOMO-LUMO gap              0.428629187122 eV    ::
         ::.................................................::
         :: SCC energy              -421.249666583396 Eh    ::
         :: -> isotropic ES            0.173374572711 Eh    ::
         :: -> anisotropic ES          0.027030354537 Eh    ::
         :: -> anisotropic XC          0.233698563388 Eh    ::
         :: -> dispersion             -0.495782142154 Eh    ::
         :: -> Gsolv                  -0.149393278935 Eh    ::
         ::    -> Gelec               -0.026048762667 Eh    ::
         ::    -> Gsasa               -0.128157872088 Eh    ::
         ::    -> Ghb                  0.000000000000 Eh    ::
         ::    -> Gshift               0.004813355820 Eh    ::
         :: repulsion energy           6.785585162234 Eh    ::
         :: add. restraining           0.000000000000 Eh    ::
         :: total charge              -0.000000000000 e     ::
         :::::::::::::::::::::::::::::::::::::::::::::::::::::

           -------------------------------------------------
          |                Property Printout                |
           -------------------------------------------------

    * Orbital Energies and Occupations

         #    Occupation            Energy/Eh            Energy/eV
      -------------------------------------------------------------
         1        2.0000           -1.0734174             -29.2092
       ...           ...                  ...                  ...
       371        2.0000           -0.3951628             -10.7529
       372        2.0000           -0.3947866             -10.7427
       373        2.0000           -0.3943013             -10.7295
       374        2.0000           -0.3926254             -10.6839
       375        2.0000           -0.3888499             -10.5811
       376        2.0000           -0.3809498             -10.3662
       377        2.0000           -0.3764850             -10.2447
       378        2.0000           -0.3731824             -10.1548
       379        2.0000           -0.3685019             -10.0274
       380        2.0000           -0.3652288              -9.9384
       381        2.0000           -0.3614677              -9.8360
       382        2.0000           -0.3527398              -9.5985
       383        1.9995           -0.3504103              -9.5351 (HOMO)
       384        0.0005           -0.3346584              -9.1065 (LUMO)
       385        0.0000           -0.3271544              -8.9023
       386                         -0.3233707              -8.7994
       387                         -0.3191820              -8.6854
       388                         -0.2999218              -8.1613
       389                         -0.2913402              -7.9278
       390                         -0.2840647              -7.7298
       391                         -0.2713180              -7.3829
       392                         -0.2669766              -7.2648
       393                         -0.2621685              -7.1340
       394                         -0.2526888              -6.8760
       ...                                ...                  ...
       783                          1.1610136              31.5928
      -------------------------------------------------------------
                  HL-Gap            0.0157518 Eh            0.4286 eV
             Fermi-level           -0.3424953 Eh           -9.3198 eV

     #   Z          covCN         q      C6AA      α(0)
     1   6 C        2.917    -0.016    28.405     8.740
     2   6 C        3.011    -0.046    29.121     8.852
     3   6 C        2.876     0.229    23.204     7.897
     4   8 O        0.932    -0.410    21.850     6.269
     5   6 C        3.046    -0.020    28.452     8.748
     6   6 C        2.915    -0.015    28.378     8.735
     7   6 C        3.000    -0.030    28.727     8.792
     8   6 C        2.919     0.095    25.892     8.344
     9  35 Br       1.081    -0.157   189.374    22.188
    10   6 C        2.993    -0.032    28.780     8.800
    11   6 C        3.041     0.012    27.710     8.634
    12   6 C        3.021     0.033    27.230     8.560
    13   6 C        2.947     0.007    27.865     8.658
    14   6 C        1.945     0.130    27.890     8.528
    15   7 N        0.911    -0.276    27.142     7.535
    16   6 C        1.947     0.133    27.831     8.519
    17   7 N        0.911    -0.265    26.866     7.497
    18   6 C        2.984     0.005    27.902     8.665
    19   6 C        3.055     0.060    26.595     8.457
    20   7 N        2.749    -0.047    22.150     6.990
    21   6 C        2.925     0.059    26.687     8.472
    22   6 C        2.920    -0.049    29.205     8.862
    23   6 C        2.926    -0.039    28.968     8.827
    24   6 C        2.965     0.016    27.642     8.624
    25   6 C        3.758    -0.109    22.643     6.784
    26   6 C        2.926    -0.036    28.900     8.816
    27   6 C        2.920    -0.041    29.008     8.832
    28   6 C        2.933     0.061    26.635     8.464
    29   6 C        2.920    -0.044    29.082     8.843
    30   6 C        2.926    -0.038    28.951     8.824
    31   6 C        2.966     0.018    27.605     8.618
    32   6 C        3.758    -0.114    22.740     6.799
    33   6 C        2.925    -0.038    28.937     8.822
    34   6 C        2.922    -0.043    29.063     8.841
    35   6 C        3.155     0.001    27.714     8.609
    36  16 S        2.263    -0.057   143.435    20.157
    37   6 C        3.056     0.010    27.744     8.638
    38   6 C        3.056     0.053    26.761     8.484
    39   7 N        2.748    -0.071    22.624     7.064
    40   6 C        2.928     0.061    26.635     8.464
    41   6 C        2.920    -0.047    29.179     8.858
    42   6 C        2.927    -0.039    28.980     8.828
    43   6 C        2.966     0.012    27.755     8.641
    44   6 C        3.758    -0.112    22.693     6.792
    45   6 C        2.925    -0.041    29.021     8.834
    46   6 C        2.924    -0.051    29.273     8.873
    47   6 C        2.920     0.062    26.612     8.460
    48   6 C        2.923    -0.050    29.230     8.866
    49   6 C        2.925    -0.038    28.957     8.825
    50   6 C        2.965     0.004    27.926     8.668
    51   6 C        3.757    -0.096    22.387     6.746
    52   6 C        2.927    -0.039    28.971     8.827
    53   6 C        2.922    -0.049    29.218     8.864
    54   6 C        3.157     0.000    27.713     8.607
    55  16 S        2.296     0.005   140.864    19.976
    56   6 C        3.040     0.014    27.668     8.627
    57   6 C        3.098    -0.005    28.028     8.676
    58   6 C        2.975     0.003    27.958     8.673
    59   6 C        2.928    -0.034    28.854     8.809
    60   6 C        2.919    -0.033    28.826     8.804
    61   6 C        2.918    -0.031    28.773     8.796
    62   6 C        2.928    -0.037    28.930     8.821
    63   6 C        2.968     0.009    27.821     8.652
    64   6 C        3.806    -0.058    21.620     6.619
    65   6 C        3.751    -0.094    22.365     6.744
    66   6 C        3.179     0.007    27.441     8.553
    67  16 S        2.205    -0.049   143.093    20.133
    68   6 C        3.094     0.000    27.914     8.659
    69   6 C        3.078    -0.038    28.854     8.806
    70   6 C        3.329     0.072    24.183     7.805
    71   6 C        3.331     0.070    24.186     7.800
    72   7 N        1.852    -0.294    28.458     7.907
    73  16 S        2.669     0.327   128.413    19.072
    74   7 N        1.853    -0.296    28.531     7.917
    75   6 C        3.072    -0.035    28.803     8.800
    76   6 C        3.093     0.001    27.901     8.657
    77  16 S        2.201    -0.045   142.916    20.121
    78   6 C        3.180     0.008    27.418     8.548
    79   6 C        3.095     0.002    27.858     8.650
    80   6 C        2.977     0.005    27.900     8.664
    81   6 C        2.970     0.009    27.812     8.650
    82   6 C        3.806    -0.058    21.607     6.617
    83   6 C        3.752    -0.098    22.429     6.754
    84   6 C        2.927    -0.037    28.932     8.821
    85   6 C        2.918    -0.030    28.754     8.793
    86   6 C        2.919    -0.031    28.770     8.796
    87   6 C        2.926    -0.031    28.769     8.796
    88   6 C        3.045     0.015    27.623     8.620
    89  16 S        2.450    -0.067   143.848    20.186
    90   6 C        3.130     0.006    27.689     8.615
    91   6 C        3.280     0.031    25.893     8.187
    92   7 N        2.789    -0.054    22.275     7.010
    93   6 C        3.105     0.029    27.220     8.549
    94   6 C        3.102     0.028    27.246     8.554
    95   7 N        2.794    -0.033    21.886     6.948
    96   6 C        3.282     0.028    25.917     8.187
    97   6 C        3.138     0.005    27.681     8.611
    98  16 S        2.300    -0.066   143.793    20.182
    99   6 C        3.743    -0.002    20.682     6.488
   100   6 C        3.752    -0.114    22.752     6.802
   101   6 C        3.741     0.001    20.632     6.480
   102   6 C        3.752    -0.113    22.715     6.797
   103   6 C        3.075     0.017    27.556     8.607
   104   6 C        3.065     0.057    26.666     8.468
   105   7 N        2.746    -0.104    23.276     7.165
   106   6 C        2.923     0.063    26.587     8.456
   107   6 C        2.922    -0.054    29.338     8.882
   108   6 C        2.927    -0.042    29.044     8.838
   109   6 C        2.965     0.004    27.926     8.668
   110   6 C        3.757    -0.110    22.654     6.786
   111   6 C        2.926    -0.043    29.061     8.841
   112   6 C        2.923    -0.057    29.413     8.894
   113   6 C        2.928     0.063    26.584     8.456
   114   6 C        2.922    -0.045    29.107     8.847
   115   6 C        2.925    -0.036    28.892     8.815
   116   6 C        2.965     0.013    27.725     8.637
   117   6 C        3.757    -0.106    22.571     6.774
   118   6 C        2.926    -0.041    29.018     8.834
   119   6 C        2.920    -0.047    29.167     8.856
   120   6 C        3.186     0.015    27.223     8.513
   121  16 S        2.268    -0.022   141.955    20.053
   122   6 C        3.001     0.014    27.690     8.632
   123   6 C        3.055     0.064    26.524     8.446
   124   7 N        2.749    -0.057    22.348     7.021
   125   6 C        2.934     0.060    26.656     8.467
   126   6 C        2.920    -0.042    29.046     8.838
   127   6 C        2.926    -0.039    28.974     8.827
   128   6 C        2.966     0.016    27.642     8.624
   129   6 C        3.758    -0.115    22.758     6.801
   130   6 C        2.925    -0.038    28.942     8.822
   131   6 C        2.920    -0.043    29.057     8.840
   132   6 C        2.927     0.056    26.740     8.480
   133   6 C        2.921    -0.047    29.167     8.856
   134   6 C        2.925    -0.034    28.856     8.809
   135   6 C        2.965     0.024    27.475     8.598
   136   6 C        3.758    -0.117    22.791     6.806
   137   6 C        2.925    -0.041    29.020     8.834
   138   6 C        2.920    -0.048    29.196     8.861
   139   6 C        3.176     0.001    27.605     8.580
   140  16 S        2.449    -0.043   142.817    20.114
   141   6 C        2.935    -0.013    28.346     8.732
   142   6 C        3.019    -0.041    28.994     8.833
   143   6 C        2.873     0.239    23.025     7.866
   144   8 O        0.858    -0.423    22.153     6.310
   145   6 C        3.087    -0.029    28.632     8.771
   146   6 C        3.032     0.011    27.749     8.641
   147   6 C        2.914    -0.030    28.750     8.792
   148   6 C        3.001    -0.027    28.650     8.780
   149   6 C        2.947     0.078    26.254     8.404
   150  35 Br       1.170    -0.121   188.379    22.130
   151   6 C        2.958     0.102    25.742     8.322
   152  17 Cl       1.038    -0.097   102.194    15.466
   153   6 C        3.021     0.035    27.200     8.555
   154   6 C        2.947     0.006    27.878     8.660
   155   6 C        1.938     0.131    27.888     8.528
   156   7 N        0.911    -0.271    27.014     7.517
   157   6 C        1.938     0.135    27.788     8.513
   158   7 N        0.911    -0.275    27.106     7.530
   159   1 H        0.925     0.068     2.103     2.268
   160   1 H        0.926     0.072     2.065     2.247
   161   1 H        0.926     0.073     2.053     2.241
   162   1 H        0.926     0.075     2.028     2.227
   163   1 H        0.926     0.021     2.720     2.579
   164   1 H        0.926     0.022     2.709     2.574
   165   1 H        0.925     0.052     2.298     2.370
   166   1 H        0.925     0.042     2.428     2.437
   167   1 H        0.924     0.056     2.250     2.346
   168   1 H        0.926     0.050     2.322     2.383
   169   1 H        0.926     0.063     2.164     2.301
   170   1 H        0.926     0.041     2.441     2.443
   171   1 H        0.926     0.043     2.408     2.427
   172   1 H        0.925     0.051     2.304     2.374
   173   1 H        0.924     0.055     2.261     2.351
   174   1 H        0.925     0.048     2.339     2.392
   175   1 H        0.926     0.043     2.407     2.426
   176   1 H        0.926     0.036     2.498     2.472
   177   1 H        0.926     0.051     2.311     2.377
   178   1 H        0.926     0.041     2.438     2.442
   179   1 H        0.925     0.047     2.353     2.399
   180   1 H        0.925     0.044     2.398     2.422
   181   1 H        0.924     0.051     2.313     2.378
   182   1 H        0.926     0.034     2.527     2.486
   183   1 H        0.926     0.030     2.592     2.518
   184   1 H        0.926     0.020     2.729     2.583
   185   1 H        0.925     0.020     2.740     2.588
   186   1 H        0.925     0.039     2.457     2.451
   187   1 H        0.925     0.024     2.676     2.558
   188   1 H        0.924     0.051     2.311     2.378
   189   1 H        0.926     0.039     2.463     2.454
   190   1 H        0.926     0.045     2.380     2.413
   191   1 H        0.926     0.048     2.345     2.395
   192   1 H        0.926     0.037     2.483     2.464
   193   1 H        0.926     0.037     2.488     2.466
   194   1 H        0.926     0.039     2.462     2.454
   195   1 H        0.924     0.044     2.399     2.422
   196   1 H        0.925     0.034     2.525     2.485
   197   1 H        0.925     0.038     2.472     2.459
   198   1 H        0.925     0.038     2.470     2.458
   199   1 H        0.925     0.027     2.626     2.534
   200   1 H        0.924     0.033     2.550     2.497
   201   1 H        0.924     0.043     2.413     2.429
   202   1 H        0.925     0.031     2.567     2.505
   203   1 H        0.925     0.039     2.465     2.455
   204   1 H        0.925     0.041     2.441     2.443
   205   1 H        0.926     0.038     2.471     2.458
   206   1 H        0.926     0.037     2.483     2.464
   207   1 H        0.926     0.038     2.472     2.458
   208   1 H        0.926     0.040     2.449     2.447
   209   1 H        0.925     0.066     2.125     2.280
   210   1 H        0.924     0.065     2.141     2.288
   211   1 H        0.925     0.055     2.254     2.348
   212   1 H        0.925     0.048     2.350     2.398
   213   1 H        0.925     0.057     2.231     2.336
   214   1 H        0.925     0.071     2.075     2.253
   215   1 H        0.924     0.065     2.145     2.290
   216   1 H        0.925     0.055     2.263     2.353
   217   1 H        0.925     0.050     2.325     2.385
   218   1 H        0.925     0.047     2.358     2.401
   219   1 H        0.926     0.034     2.530     2.487
   220   1 H        0.926     0.034     2.536     2.490
   221   1 H        0.924     0.047     2.361     2.403
   222   1 H        0.925     0.042     2.424     2.435
   223   1 H        0.925     0.045     2.381     2.413
   224   1 H        0.926     0.031     2.573     2.508
   225   1 H        0.926     0.021     2.718     2.578
   226   1 H        0.926     0.019     2.744     2.590
   227   1 H        0.926     0.031     2.575     2.509
   228   1 H        0.924     0.048     2.351     2.398
   229   1 H        0.925     0.046     2.365     2.405
   230   1 H        0.925     0.045     2.385     2.415
   231   1 H        0.926     0.035     2.515     2.480
   232   1 H        0.926     0.037     2.492     2.468
   233   1 H        0.926     0.044     2.398     2.422
   234   1 H        0.926     0.044     2.393     2.419
   235   1 H        0.925     0.047     2.355     2.400
   236   1 H        0.925     0.050     2.316     2.380
   237   1 H        0.924     0.056     2.251     2.346
   238   1 H        0.926     0.037     2.491     2.468
   239   1 H        0.926     0.040     2.446     2.446
   240   1 H        0.926     0.039     2.457     2.451
   241   1 H        0.926     0.053     2.280     2.361
   242   1 H        0.925     0.054     2.268     2.355
   243   1 H        0.925     0.070     2.081     2.256
   244   1 H        0.925     0.045     2.388     2.417
   245   1 H        0.926     0.040     2.454     2.450
   246   1 H        0.926     0.034     2.526     2.486
   247   1 H        0.925     0.068     2.105     2.269
   248   1 H        0.926     0.068     2.105     2.269
   249   1 H        0.926     0.085     1.925     2.170

 Mol. C6AA /au·bohr⁶  :    1085098.671175
 Mol. C8AA /au·bohr⁸  :   30700731.939891
 Mol. α(0) /au        :       1671.544993


Wiberg/Mayer (AO) data.
largest (>0.10) Wiberg bond orders for each atom

 ---------------------------------------------------------------------------
     #   Z sym  total        # sym  WBO       # sym  WBO       # sym  WBO
 ---------------------------------------------------------------------------
     1   6 C    3.950 --     2 C    1.421    18 C    1.374   159 H    0.932
     2   6 C    3.951 --     1 C    1.421    12 C    1.169     3 C    1.090
     3   6 C    3.907 --     4 O    1.665     2 C    1.090     5 C    1.022
     4   8 O    2.057 --     3 C    1.665    55 S    0.113
     5   6 C    3.975 --     6 C    1.419    11 C    1.294     3 C    1.022
     6   6 C    3.977 --     7 C    1.420     5 C    1.419   160 H    0.963
     7   6 C    3.969 --     6 C    1.420     8 C    1.409   161 H    0.965
     8   6 C    3.929 --     7 C    1.409    10 C    1.390     9 Br   0.993
     9  35 Br   1.125 --     8 C    0.993
    10   6 C    3.972 --    11 C    1.415     8 C    1.390   162 H    0.957
    11   6 C    3.981 --    10 C    1.415     5 C    1.294    12 C    1.071
    12   6 C    3.969 --    13 C    1.461     2 C    1.169    11 C    1.071
    13   6 C    3.951 --    12 C    1.461    14 C    1.107    16 C    1.100
    14   6 C    3.942 --    15 N    2.732    13 C    1.107
    15   7 N    2.957 --    14 C    2.732
    16   6 C    3.941 --    17 N    2.753    13 C    1.100
    17   7 N    2.957 --    16 C    2.753
    18   6 C    3.929 --     1 C    1.374    19 C    1.251    55 S    1.077
    19   6 C    3.948 --    35 C    1.286    18 C    1.251    20 N    1.147
    20   7 N    3.526 --    19 C    1.147    28 C    1.038    21 C    1.034
    21   6 C    3.959 --    27 C    1.371    22 C    1.364    20 N    1.034
    22   6 C    3.985 --    23 C    1.465    21 C    1.364   163 H    0.968
                            26 C    0.104
    23   6 C    3.990 --    22 C    1.465    24 C    1.393   164 H    0.967
                            27 C    0.102
    24   6 C    3.977 --    26 C    1.408    23 C    1.393    25 C    1.029
    25   6 C    3.995 --    24 C    1.029   165 H    0.983   166 H    0.978
                           167 H    0.964
    26   6 C    3.989 --    27 C    1.451    24 C    1.408   168 H    0.967
                            22 C    0.104
    27   6 C    3.980 --    26 C    1.451    21 C    1.371   169 H    0.964
                            23 C    0.102
    28   6 C    3.959 --    29 C    1.370    34 C    1.361    20 N    1.038
    29   6 C    3.973 --    30 C    1.457    28 C    1.370   170 H    0.966
                            33 C    0.103
    30   6 C    3.989 --    29 C    1.457    31 C    1.403   171 H    0.968
                            34 C    0.102
    31   6 C    3.969 --    30 C    1.403    33 C    1.397    32 C    1.028
    32   6 C    3.995 --    31 C    1.028   174 H    0.983   172 H    0.978
                           173 H    0.965
    33   6 C    3.989 --    34 C    1.464    31 C    1.397   175 H    0.968
                            29 C    0.103
    34   6 C    3.981 --    33 C    1.464    28 C    1.361   176 H    0.967
                            30 C    0.102
    35   6 C    3.933 --    54 C    1.337    19 C    1.286    36 S    1.089
    36  16 S    2.525 --    37 C    1.095    35 C    1.089
    37   6 C    3.895 --    38 C    1.415    56 C    1.138    36 S    1.095
    38   6 C    3.956 --    37 C    1.415    54 C    1.230    39 N    1.068
    39   7 N    3.491 --    47 C    1.070    38 C    1.068    40 C    1.045
    40   6 C    3.961 --    46 C    1.372    41 C    1.364    39 N    1.045
    41   6 C    3.984 --    42 C    1.463    40 C    1.364   177 H    0.958
                            45 C    0.104
    42   6 C    3.989 --    41 C    1.463    43 C    1.397   178 H    0.969
                            46 C    0.104
    43   6 C    3.976 --    45 C    1.408    42 C    1.397    44 C    1.026
    44   6 C    3.996 --    43 C    1.026   180 H    0.984   179 H    0.979
                           181 H    0.968
    45   6 C    3.990 --    46 C    1.452    43 C    1.408   182 H    0.969
                            41 C    0.104
    46   6 C    3.985 --    45 C    1.452    40 C    1.372   183 H    0.962
                            42 C    0.104
    47   6 C    3.964 --    48 C    1.362    53 C    1.352    39 N    1.070
    48   6 C    3.986 --    49 C    1.451    47 C    1.362   184 H    0.967
                            52 C    0.103
    49   6 C    3.990 --    48 C    1.451    50 C    1.408   185 H    0.968
                            53 C    0.101
    50   6 C    3.981 --    49 C    1.408    52 C    1.393    51 C    1.025
    51   6 C    3.996 --    50 C    1.025   187 H    0.985   186 H    0.974
                           188 H    0.968
    52   6 C    3.990 --    53 C    1.466    50 C    1.393   189 H    0.969
                            48 C    0.103
    53   6 C    3.985 --    52 C    1.466    47 C    1.352   190 H    0.963
                            49 C    0.101
    54   6 C    3.942 --    35 C    1.337    38 C    1.230    55 S    1.137
    55  16 S    2.668 --    54 C    1.137    18 C    1.077     4 O    0.113
    56   6 C    3.910 --    57 C    1.454    37 C    1.138    98 S    1.070
    57   6 C    3.965 --    56 C    1.454    66 C    1.241    58 C    1.049
    58   6 C    3.986 --    59 C    1.378    63 C    1.361    57 C    1.049
                            61 C    0.100
    59   6 C    3.987 --    60 C    1.456    58 C    1.378   191 H    0.959
                            62 C    0.107
    60   6 C    3.990 --    59 C    1.456    61 C    1.423   192 H    0.970
                            63 C    0.105
    61   6 C    3.984 --    62 C    1.448    60 C    1.423   193 H    0.971
                            58 C    0.100
    62   6 C    3.990 --    61 C    1.448    63 C    1.415   194 H    0.966
                            59 C    0.107
    63   6 C    3.984 --    62 C    1.415    58 C    1.361    64 C    1.012
                            60 C    0.105
    64   6 C    3.996 --    63 C    1.012    65 C    1.006   196 H    0.970
                           195 H    0.964
    65   6 C    3.996 --    64 C    1.006   197 H    0.986   198 H    0.985
                           199 H    0.981
    66   6 C    3.923 --    97 C    1.367    57 C    1.241    67 S    1.089
    67  16 S    2.502 --    68 C    1.100    66 C    1.089
    68   6 C    3.924 --    96 C    1.321    69 C    1.258    67 S    1.100
    69   6 C    3.953 --    94 C    1.277    68 C    1.258    70 C    1.169
    70   6 C    3.971 --    74 N    1.434    69 C    1.169    71 C    1.150
                            73 S    0.106
    71   6 C    3.971 --    72 N    1.434    75 C    1.173    70 C    1.150
                            73 S    0.107
    72   7 N    3.065 --    71 C    1.434    73 S    1.381    74 N    0.142
    73  16 S    3.092 --    72 N    1.381    74 N    1.378    71 C    0.107
                            70 C    0.106
    74   7 N    3.065 --    70 C    1.434    73 S    1.378    72 N    0.142
    75   6 C    3.956 --    93 C    1.288    76 C    1.245    71 C    1.173
    76   6 C    3.920 --    91 C    1.328    75 C    1.245    77 S    1.104
    77  16 S    2.503 --    76 C    1.104    78 C    1.087
    78   6 C    3.922 --    90 C    1.353    79 C    1.248    77 S    1.087
    79   6 C    3.961 --    88 C    1.441    78 C    1.248    80 C    1.039
    80   6 C    3.986 --    87 C    1.383    81 C    1.365    79 C    1.039
                            85 C    0.101
    81   6 C    3.983 --    84 C    1.410    80 C    1.365    82 C    1.013
                            86 C    0.105
    82   6 C    3.996 --    81 C    1.013    83 C    1.003   200 H    0.971
                           201 H    0.969
    83   6 C    3.995 --    82 C    1.003   203 H    0.986   204 H    0.986
                           202 H    0.979
    84   6 C    3.990 --    85 C    1.451    81 C    1.410   205 H    0.967
                            87 C    0.108
    85   6 C    3.984 --    84 C    1.451    86 C    1.421   206 H    0.970
                            80 C    0.101
    86   6 C    3.990 --    87 C    1.455    85 C    1.421   207 H    0.970
                            81 C    0.105
    87   6 C    3.988 --    86 C    1.455    80 C    1.383   208 H    0.966
                            84 C    0.108
    88   6 C    3.907 --    79 C    1.441   103 C    1.163    89 S    1.057
    89  16 S    2.535 --    90 C    1.112    88 C    1.057
    90   6 C    3.928 --    78 C    1.353    91 C    1.245    89 S    1.112
    91   6 C    3.940 --    76 C    1.328    90 C    1.245    92 N    1.139
    92   7 N    3.518 --    93 C    1.152    91 C    1.139   101 C    0.973
    93   6 C    3.934 --    75 C    1.288    94 C    1.224    92 N    1.152
    94   6 C    3.938 --    69 C    1.277    93 C    1.224    95 N    1.168
    95   7 N    3.556 --    94 C    1.168    96 C    1.157    99 C    0.980
    96   6 C    3.939 --    68 C    1.321    97 C    1.235    95 N    1.157
    97   6 C    3.932 --    66 C    1.367    96 C    1.235    98 S    1.113
    98  16 S    2.548 --    97 C    1.113    56 C    1.070
    99   6 C    3.960 --   100 C    1.009    95 N    0.980   209 H    0.963
                           210 H    0.958
   100   6 C    3.988 --    99 C    1.009   211 H    0.983   213 H    0.982
                           212 H    0.981
   101   6 C    3.960 --   102 C    1.006    92 N    0.973   214 H    0.965
                           215 H    0.964
   102   6 C    3.989 --   101 C    1.006   218 H    0.987   217 H    0.985
                           216 H    0.983
   103   6 C    3.914 --   104 C    1.431    88 C    1.163   140 S    1.100
   104   6 C    3.949 --   103 C    1.431   120 C    1.241   105 N    1.017
   105   7 N    3.414 --   106 C    1.076   113 C    1.028   104 C    1.017
   106   6 C    3.962 --   112 C    1.363   107 C    1.348   105 N    1.076
   107   6 C    3.987 --   108 C    1.469   106 C    1.348   219 H    0.965
                           111 C    0.104
   108   6 C    3.990 --   107 C    1.469   109 C    1.392   220 H    0.969
                           112 C    0.102
   109   6 C    3.980 --   111 C    1.411   108 C    1.392   110 C    1.025
   110   6 C    3.996 --   109 C    1.025   222 H    0.985   223 H    0.978
                           221 H    0.970
   111   6 C    3.991 --   112 C    1.448   109 C    1.411   224 H    0.969
                           107 C    0.104
   112   6 C    3.983 --   111 C    1.448   106 C    1.363   225 H    0.964
                           108 C    0.102
   113   6 C    3.964 --   114 C    1.379   119 C    1.370   105 N    1.028
   114   6 C    3.986 --   115 C    1.452   113 C    1.379   226 H    0.967
                           118 C    0.104
   115   6 C    3.991 --   114 C    1.452   116 C    1.407   227 H    0.967
                           119 C    0.104
   116   6 C    3.980 --   115 C    1.407   118 C    1.398   117 C    1.027
   117   6 C    3.995 --   116 C    1.027   230 H    0.982   229 H    0.978
                           228 H    0.967
   118   6 C    3.990 --   119 C    1.461   116 C    1.398   231 H    0.969
                           114 C    0.104
   119   6 C    3.988 --   118 C    1.461   113 C    1.370   232 H    0.966
                           115 C    0.104
   120   6 C    3.933 --   139 C    1.359   104 C    1.241   121 S    1.118
   121  16 S    2.547 --   120 C    1.118   122 C    1.087
   122   6 C    3.917 --   123 C    1.332   141 C    1.253   121 S    1.087
   123   6 C    3.946 --   122 C    1.332   139 C    1.235   124 N    1.138
   124   7 N    3.493 --   123 C    1.138   132 C    1.049   125 C    1.017
   125   6 C    3.960 --   126 C    1.381   131 C    1.374   124 N    1.017
   126   6 C    3.978 --   127 C    1.455   125 C    1.381   233 H    0.968
                           130 C    0.104
   127   6 C    3.989 --   126 C    1.455   128 C    1.404   234 H    0.968
                           131 C    0.105
   128   6 C    3.976 --   127 C    1.404   130 C    1.403   129 C    1.027
   129   6 C    3.995 --   128 C    1.027   236 H    0.981   235 H    0.981
                           237 H    0.965
   130   6 C    3.990 --   131 C    1.457   128 C    1.403   238 H    0.967
                           126 C    0.104
   131   6 C    3.985 --   130 C    1.457   125 C    1.374   239 H    0.966
                           127 C    0.105
   132   6 C    3.960 --   138 C    1.368   133 C    1.351   124 N    1.049
   133   6 C    3.983 --   134 C    1.469   132 C    1.351   240 H    0.967
   134   6 C    3.989 --   133 C    1.469   135 C    1.388   241 H    0.968
                           138 C    0.103
   135   6 C    3.975 --   137 C    1.404   134 C    1.388   136 C    1.031
   136   6 C    3.993 --   135 C    1.031   244 H    0.985   242 H    0.972
                           243 H    0.962
   137   6 C    3.990 --   138 C    1.455   135 C    1.404   245 H    0.968
   138   6 C    3.981 --   137 C    1.455   132 C    1.368   246 H    0.967
                           134 C    0.103
   139   6 C    3.925 --   120 C    1.359   123 C    1.235   140 S    1.090
   140  16 S    2.530 --   103 C    1.100   139 C    1.090
   141   6 C    3.935 --   142 C    1.485   122 C    1.253   247 H    0.935
   142   6 C    3.958 --   141 C    1.485   153 C    1.167   143 C    1.050
   143   6 C    3.915 --   144 O    1.714   142 C    1.050   145 C    1.021
   144   8 O    2.016 --   143 C    1.714
   145   6 C    3.974 --   151 C    1.386   146 C    1.286   143 C    1.021
   146   6 C    3.982 --   147 C    1.407   145 C    1.286   153 C    1.077
   147   6 C    3.971 --   148 C    1.413   146 C    1.407   248 H    0.959
   148   6 C    3.973 --   149 C    1.419   147 C    1.413   249 H    0.957
   149   6 C    3.932 --   148 C    1.419   151 C    1.323   150 Br   1.011
   150  35 Br   1.193 --   149 C    1.011
   151   6 C    3.922 --   145 C    1.386   149 C    1.323   152 Cl   1.027
   152  17 Cl   1.217 --   151 C    1.027
   153   6 C    3.959 --   154 C    1.450   142 C    1.167   146 C    1.077
   154   6 C    3.942 --   153 C    1.450   155 C    1.107   157 C    1.106
   155   6 C    3.942 --   156 N    2.744   154 C    1.107
   156   7 N    2.953 --   155 C    2.744
   157   6 C    3.940 --   158 N    2.746   154 C    1.106
   158   7 N    2.950 --   157 C    2.746
   159   1 H    0.994 --     1 C    0.932
   160   1 H    0.994 --     6 C    0.963
   161   1 H    0.994 --     7 C    0.965
   162   1 H    0.994 --    10 C    0.957
   163   1 H    0.999 --    22 C    0.968
   164   1 H    0.999 --    23 C    0.967
   165   1 H    0.997 --    25 C    0.983
   166   1 H    0.997 --    25 C    0.978
   167   1 H    0.995 --    25 C    0.964
   168   1 H    0.997 --    26 C    0.967
   169   1 H    0.996 --    27 C    0.964
   170   1 H    0.998 --    29 C    0.966
   171   1 H    0.997 --    30 C    0.968
   172   1 H    0.996 --    32 C    0.978
   173   1 H    0.995 --    32 C    0.965
   174   1 H    0.997 --    32 C    0.983
   175   1 H    0.997 --    33 C    0.968
   176   1 H    0.998 --    34 C    0.967
   177   1 H    0.997 --    41 C    0.958
   178   1 H    0.998 --    42 C    0.969
   179   1 H    0.997 --    44 C    0.979
   180   1 H    0.998 --    44 C    0.984
   181   1 H    0.996 --    44 C    0.968
   182   1 H    0.998 --    45 C    0.969
   183   1 H    0.999 --    46 C    0.962
   184   1 H    0.999 --    48 C    0.967
   185   1 H    0.999 --    49 C    0.968
   186   1 H    0.997 --    51 C    0.974
   187   1 H    0.999 --    51 C    0.985
   188   1 H    0.996 --    51 C    0.968
   189   1 H    0.998 --    52 C    0.969
   190   1 H    0.998 --    53 C    0.963
   191   1 H    0.998 --    59 C    0.959
   192   1 H    0.997 --    60 C    0.970
   193   1 H    0.998 --    61 C    0.971
   194   1 H    0.998 --    62 C    0.966
   195   1 H    0.998 --    64 C    0.964
   196   1 H    0.998 --    64 C    0.970
   197   1 H    0.998 --    65 C    0.986
   198   1 H    0.998 --    65 C    0.985
   199   1 H    0.999 --    65 C    0.981
   200   1 H    0.999 --    82 C    0.971
   201   1 H    0.997 --    82 C    0.969
   202   1 H    0.999 --    83 C    0.979
   203   1 H    0.998 --    83 C    0.986
   204   1 H    0.998 --    83 C    0.986
   205   1 H    0.998 --    84 C    0.967
   206   1 H    0.998 --    85 C    0.970
   207   1 H    0.997 --    86 C    0.970
   208   1 H    0.998 --    87 C    0.966
   209   1 H    0.995 --    99 C    0.963
   210   1 H    0.994 --    99 C    0.958
   211   1 H    0.996 --   100 C    0.983
   212   1 H    0.998 --   100 C    0.981
   213   1 H    0.997 --   100 C    0.982
   214   1 H    0.994 --   101 C    0.965
   215   1 H    0.994 --   101 C    0.964
   216   1 H    0.996 --   102 C    0.983
   217   1 H    0.997 --   102 C    0.985
   218   1 H    0.998 --   102 C    0.987
   219   1 H    0.999 --   107 C    0.965
   220   1 H    0.998 --   108 C    0.969
   221   1 H    0.996 --   110 C    0.970
   222   1 H    0.998 --   110 C    0.985
   223   1 H    0.997 --   110 C    0.978
   224   1 H    0.999 --   111 C    0.969
   225   1 H    0.999 --   112 C    0.964
   226   1 H    0.999 --   114 C    0.967
   227   1 H    0.999 --   115 C    0.967
   228   1 H    0.996 --   117 C    0.967
   229   1 H    0.997 --   117 C    0.978
   230   1 H    0.998 --   117 C    0.982
   231   1 H    0.998 --   118 C    0.969
   232   1 H    0.998 --   119 C    0.966
   233   1 H    0.998 --   126 C    0.968
   234   1 H    0.997 --   127 C    0.968
   235   1 H    0.997 --   129 C    0.981
   236   1 H    0.997 --   129 C    0.981
   237   1 H    0.995 --   129 C    0.965
   238   1 H    0.998 --   130 C    0.967
   239   1 H    0.998 --   131 C    0.966
   240   1 H    0.998 --   133 C    0.967
   241   1 H    0.997 --   134 C    0.968
   242   1 H    0.995 --   136 C    0.972
   243   1 H    0.993 --   136 C    0.962
   244   1 H    0.998 --   136 C    0.985
   245   1 H    0.998 --   137 C    0.968
   246   1 H    0.999 --   138 C    0.967
   247   1 H    0.991 --   141 C    0.935
   248   1 H    0.994 --   147 C    0.959
   249   1 H    0.992 --   148 C    0.957
 ---------------------------------------------------------------------------

Topologies differ in bond orders
Writing corrected topology to xtbtopo.mol

molecular dipole:
                 x           y           z       tot (Debye)
 q only:        0.317       5.274      -2.353
   full:        0.845       5.452      -2.411      15.305
molecular quadrupole (traceless):
                xx          xy          yy          xz          yz          zz
 q only:       12.769    -103.049     -93.685      -7.137     -23.593      80.917
  q+dip:       22.235    -124.273    -114.049     -19.308     -29.940      91.814
   full:       20.954    -123.008    -105.611     -20.388     -30.383      84.658


           -------------------------------------------------
          | TOTAL ENERGY             -414.429415638596 Eh   |
          | GRADIENT NORM               0.022102037942 Eh/α |
          | HOMO-LUMO GAP               0.428629187122 eV   |
           -------------------------------------------------

------------------------------------------------------------------------
 * finished run on 2022/02/07 at 12:16:19.919     
------------------------------------------------------------------------
 total:
 * wall-time:     0 d,  0 h,  0 min,  1.538 sec
 *  cpu-time:     0 d,  0 h,  0 min, 12.184 sec
 * ratio c/w:     7.921 speedup
 SCF:
 * wall-time:     0 d,  0 h,  0 min,  1.404 sec
 *  cpu-time:     0 d,  0 h,  0 min, 11.210 sec
 * ratio c/w:     7.985 speedup

