      -----------------------------------------------------------      
     |                   =====================                   |     
     |                           x T B                           |     
     |                   =====================                   |     
     |                         S. Grimme                         |     
     |          Mulliken Center for Theoretical Chemistry        |     
     |                    University of Bonn                     |     
      -----------------------------------------------------------      

   * xtb version 6.4.1 (unknown) compiled by 'oda6@login1.crc.pitt.edu' on 2021-06-25

   xtb is free software: you can redistribute it and/or modify it under
   the terms of the GNU Lesser General Public License as published by
   the Free Software Foundation, either version 3 of the License, or
   (at your option) any later version.
   
   xtb is distributed in the hope that it will be useful,
   but WITHOUT ANY WARRANTY; without even the implied warranty of
   MERCHANTABILITY or FITNESS FOR A PARTICULAR PURPOSE.  See the
   GNU Lesser General Public License for more details.
   
   Cite this work as:
   * C. Bannwarth, E. Caldeweyher, S. Ehlert, A. Hansen, P. Pracht,
     J. Seibert, S. Spicher, S. Grimme, WIREs Comput. Mol. Sci., 2020, 11,
     e01493. DOI: 10.1002/wcms.1493
   
   for GFN2-xTB:
   * C. Bannwarth, S. Ehlert and S. Grimme., J. Chem. Theory Comput., 2019,
     15, 1652-1671. DOI: 10.1021/acs.jctc.8b01176
   for GFN1-xTB:
   * S. Grimme, C. Bannwarth, P. Shushkov, J. Chem. Theory Comput., 2017,
     13, 1989-2009. DOI: 10.1021/acs.jctc.7b00118
   for GFN0-xTB:
   * P. Pracht, E. Caldeweyher, S. Ehlert, S. Grimme, ChemRxiv, 2019, preprint.
     DOI: 10.26434/chemrxiv.8326202.v1
   for GFN-FF:
   * S. Spicher and S. Grimme, Angew. Chem. Int. Ed., 2020, 59, 15665-15673.
     DOI: 10.1002/anie.202004239
   
   for DFT-D4:
   * E. Caldeweyher, C. Bannwarth and S. Grimme, J. Chem. Phys., 2017,
     147, 034112. DOI: 10.1063/1.4993215
   * E. Caldeweyher, S. Ehlert, A. Hansen, H. Neugebauer, S. Spicher,
     C. Bannwarth and S. Grimme, J. Chem. Phys., 2019, 150, 154122.
     DOI: 10.1063/1.5090222
   * E. Caldeweyher, J.-M. Mewes, S. Ehlert and S. Grimme, Phys. Chem. Chem. Phys.
     2020, 22, 8499-8512. DOI: 10.1039/D0CP00502A
   
   for sTDA-xTB:
   * S. Grimme and C. Bannwarth, J. Chem. Phys., 2016, 145, 054103.
     DOI: 10.1063/1.4959605
   
   in the mass-spec context:
   * V. Asgeirsson, C. Bauer and S. Grimme, Chem. Sci., 2017, 8, 4879.
     DOI: 10.1039/c7sc00601b
   * J. Koopman and S. Grimme, ACS Omega 2019, 4, 12, 15120-15133.
     DOI: 10.1021/acsomega.9b02011
   
   for metadynamics refer to:
   * S. Grimme, J. Chem. Theory Comput., 2019, 155, 2847-2862
     DOI: 10.1021/acs.jctc.9b00143
   
   for SPH calculations refer to:
   * S. Spicher and S. Grimme, J. Chem. Theory Comput., 2021, 17, 1701-1714
     DOI: 10.1021/acs.jctc.0c01306
   
   with help from (in alphabetical order)
   P. Atkinson, C. Bannwarth, F. Bohle, G. Brandenburg, E. Caldeweyher
   M. Checinski, S. Dohm, S. Ehlert, S. Ehrlich, I. Gerasimov, J. Koopman
   C. Lavigne, S. Lehtola, F. März, M. Müller, F. Musil, H. Neugebauer
   J. Pisarek, C. Plett, P. Pracht, J. Seibert, P. Shushkov, S. Spicher
   M. Stahn, M. Steiner, T. Strunk, J. Stückrath, T. Rose, and J. Unsleber
   
 * started run on 2022/02/03 at 14:11:24.372     

           -------------------------------------------------
          |                Calculation Setup                |
           -------------------------------------------------

          program call               : /ihome/ghutchison/oda6/xtb/xtb-641/bin/xtb ../../GFN2_output/4_151_96_29_4.mol --sp --alpb hexane
          hostname                   : smp-n80
          coordinate file            : ../../GFN2_output/4_151_96_29_4.mol
          omp threads                :                     8
          number of atoms            :                   171
          number of electrons        :                   534
          charge                     :                     0
          spin                       :                   0.0
          first test random number   :      0.00313023303918

   ID    Z sym.   atoms
    1    6 C      1-3, 5-7, 10-13, 15, 17, 19-21, 24-26, 28, 29, 31-57,
                  59-82, 84-87, 89-97, 99-101, 104-107, 109
    2    8 O      4, 22, 27, 98
    3   17 Cl     8, 102
    4   16 S      9, 18, 30, 58, 83, 88, 103
    5    7 N      14, 16, 23, 108, 110
    6    1 H      111-171

           -------------------------------------------------
          |                 G F N 2 - x T B                 |
           -------------------------------------------------

        Reference                      10.1021/acs.jctc.8b01176
      * Hamiltonian:
        H0-scaling (s, p, d)           1.850000    2.230000    2.230000
        zeta-weighting                 0.500000
      * Dispersion:
        s8                             2.700000
        a1                             0.520000
        a2                             5.000000
        s9                             5.000000
      * Repulsion:
        kExp                           1.500000    1.000000
        rExp                           1.000000
      * Coulomb:
        alpha                          2.000000
        third order                    shell-resolved
        anisotropic                    true
        a3                             3.000000
        a5                             4.000000
        cn-shift                       1.200000
        cn-exp                         4.000000
        max-rad                        5.000000

      * Solvation model:               ALPB
        Solvent                        hexane
        Parameter file                 internal GFN2-xTB/ALPB
        Dielectric constant                1.8800E+00
        Reference state                gsolv [1 M gas/solution]
        Free energy shift                  4.8134E-03 Eh       3.0204E+00 kcal/mol
        Temperature                        2.9815E+02 K
        Density                            6.6000E-01 kg/L
        Solvent mass                       8.6180E+01 g/mol
        Interaction kernel             P16
        Born radius scaling (c1)           1.1040E+00
        Born radii integrator          GBOBC
        Born offset                        0.0000E+00 a0       0.0000E+00 AA
        H-bond correction              false
        Ion screening                  false
        Surface tension                    1.0000E-05 Eh       1.5569E+01 dyn/cm
        Grid points                               230 per atom

          ...................................................
          :                      SETUP                      :
          :.................................................:
          :  # basis functions                 555          :
          :  # atomic orbitals                 546          :
          :  # shells                          290          :
          :  # electrons                       534          :
          :  max. iterations                   250          :
          :  Hamiltonian                  GFN2-xTB          :
          :  restarted?                      false          :
          :  GBSA solvation                   true          :
          :  PC potential                    false          :
          :  electronic temp.          300.0000000     K    :
          :  accuracy                    1.0000000          :
          :  -> integral cutoff          0.2500000E+02      :
          :  -> integral neglect         0.1000000E-07      :
          :  -> SCF convergence          0.1000000E-05 Eh   :
          :  -> wf. convergence          0.1000000E-03 e    :
          :  Broyden damping             0.4000000          :
          ...................................................

 iter      E             dE          RMSdq      gap      omega  full diag
   1   -295.2653409 -0.295265E+03  0.459E+00    0.99       0.0  T
   2   -295.4538456 -0.188505E+00  0.267E+00    0.68       1.0  T
   3   -295.3002165  0.153629E+00  0.139E+00    0.57       1.0  T
   4   -295.5049869 -0.204770E+00  0.464E-01    0.49       1.0  T
   5   -295.5239328 -0.189459E-01  0.157E-01    0.45       1.0  T
   6   -295.5252045 -0.127171E-02  0.803E-02    0.52       1.0  T
   7   -295.5256071 -0.402578E-03  0.423E-02    0.49       1.0  T
   8   -295.5256984 -0.913212E-04  0.306E-02    0.51       1.0  T
   9   -295.5257393 -0.408598E-04  0.235E-02    0.50       1.0  T
  10   -295.5257735 -0.342462E-04  0.165E-02    0.51       1.0  T
  11   -295.5257955 -0.219733E-04  0.914E-03    0.51       1.0  T
  12   -295.5258011 -0.556846E-05  0.512E-03    0.51       1.5  T
  13   -295.5258032 -0.215335E-05  0.210E-03    0.51       3.6  T
  14   -295.5258034 -0.150115E-06  0.123E-03    0.51       6.2  T
  15   -295.5258035 -0.847962E-07  0.605E-04    0.51      12.6  T
  16   -295.5258035 -0.130194E-07  0.259E-04    0.51      29.5  T

   *** convergence criteria satisfied after 16 iterations ***

         #    Occupation            Energy/Eh            Energy/eV
      -------------------------------------------------------------
         1        2.0000           -1.0897876             -29.6546
       ...           ...                  ...                  ...
       261        2.0000           -0.3999632             -10.8836
       262        2.0000           -0.3996822             -10.8759
       263        2.0000           -0.3949302             -10.7466
       264        2.0000           -0.3942992             -10.7294
       265        2.0000           -0.3823489             -10.4042
       266        2.0000           -0.3799128             -10.3380
       267        1.9999           -0.3617566              -9.8439 (HOMO)
       268        0.0001           -0.3430509              -9.3349 (LUMO)
       269        0.0000           -0.3383409              -9.2067
       270                         -0.3344302              -9.1003
       271                         -0.3208453              -8.7306
       272                         -0.3129159              -8.5149
       ...                                ...                  ...
       546                          1.1556144              31.4459
      -------------------------------------------------------------
                  HL-Gap            0.0187057 Eh            0.5090 eV
             Fermi-level           -0.3524071 Eh           -9.5895 eV

 SCC (total)                   0 d,  0 h,  0 min,  4.578 sec
 SCC setup                      ...        0 min,  0.007 sec (  0.158%)
 Dispersion                     ...        0 min,  0.017 sec (  0.367%)
 classical contributions        ...        0 min,  0.001 sec (  0.015%)
 integral evaluation            ...        0 min,  0.058 sec (  1.266%)
 iterations                     ...        0 min,  4.379 sec ( 95.661%)
 molecular gradient             ...        0 min,  0.112 sec (  2.452%)
 printout                       ...        0 min,  0.004 sec (  0.080%)

         :::::::::::::::::::::::::::::::::::::::::::::::::::::
         ::                     SUMMARY                     ::
         :::::::::::::::::::::::::::::::::::::::::::::::::::::
         :: total energy            -290.864142623161 Eh    ::
         :: total w/o Gsasa/hb      -290.761969858148 Eh    ::
         :: gradient norm              0.024405122079 Eh/a0 ::
         :: HOMO-LUMO gap              0.509007988665 eV    ::
         ::.................................................::
         :: SCC energy              -295.525803470795 Eh    ::
         :: -> isotropic ES            0.182537475410 Eh    ::
         :: -> anisotropic ES          0.023920643708 Eh    ::
         :: -> anisotropic XC          0.165794748419 Eh    ::
         :: -> dispersion             -0.280864349788 Eh    ::
         :: -> Gsolv                  -0.126710887142 Eh    ::
         ::    -> Gelec               -0.024538122129 Eh    ::
         ::    -> Gsasa               -0.106986120833 Eh    ::
         ::    -> Ghb                  0.000000000000 Eh    ::
         ::    -> Gshift               0.004813355820 Eh    ::
         :: repulsion energy           4.658544549713 Eh    ::
         :: add. restraining           0.000000000000 Eh    ::
         :: total charge              -0.000000000003 e     ::
         :::::::::::::::::::::::::::::::::::::::::::::::::::::

           -------------------------------------------------
          |                Property Printout                |
           -------------------------------------------------

    * Orbital Energies and Occupations

         #    Occupation            Energy/Eh            Energy/eV
      -------------------------------------------------------------
         1        2.0000           -1.0897876             -29.6546
       ...           ...                  ...                  ...
       255        2.0000           -0.4105223             -11.1709
       256        2.0000           -0.4104547             -11.1690
       257        2.0000           -0.4088960             -11.1266
       258        2.0000           -0.4080536             -11.1037
       259        2.0000           -0.4059328             -11.0460
       260        2.0000           -0.4029162             -10.9639
       261        2.0000           -0.3999632             -10.8836
       262        2.0000           -0.3996822             -10.8759
       263        2.0000           -0.3949302             -10.7466
       264        2.0000           -0.3942992             -10.7294
       265        2.0000           -0.3823489             -10.4042
       266        2.0000           -0.3799128             -10.3380
       267        1.9999           -0.3617566              -9.8439 (HOMO)
       268        0.0001           -0.3430509              -9.3349 (LUMO)
       269        0.0000           -0.3383409              -9.2067
       270                         -0.3344302              -9.1003
       271                         -0.3208453              -8.7306
       272                         -0.3129159              -8.5149
       273                         -0.2897484              -7.8845
       274                         -0.2765306              -7.5248
       275                         -0.2669927              -7.2652
       276                         -0.2624266              -7.1410
       277                         -0.2600231              -7.0756
       278                         -0.2495318              -6.7901
       ...                                ...                  ...
       546                          1.1556144              31.4459
      -------------------------------------------------------------
                  HL-Gap            0.0187057 Eh            0.5090 eV
             Fermi-level           -0.3524071 Eh           -9.5895 eV

     #   Z          covCN         q      C6AA      α(0)
     1   6 C        2.912    -0.008    28.219     8.711
     2   6 C        3.025    -0.029    28.692     8.786
     3   6 C        2.877     0.239    23.016     7.865
     4   8 O        0.934    -0.376    21.165     6.170
     5   6 C        3.232    -0.026    27.785     8.557
     6   6 C        3.066    -0.043    28.995     8.830
     7   6 C        2.924     0.101    25.753     8.322
     8  17 Cl       1.017    -0.119   102.876    15.517
     9  16 S        2.328     0.100   137.047    19.703
    10   6 C        3.077     0.012    27.660     8.623
    11   6 C        3.026     0.038    27.124     8.543
    12   6 C        2.947     0.019    27.592     8.615
    13   6 C        1.924     0.131    27.899     8.530
    14   7 N        0.911    -0.237    26.200     7.403
    15   6 C        1.933     0.131    27.887     8.528
    16   7 N        0.911    -0.243    26.334     7.422
    17   6 C        2.970     0.037    27.172     8.550
    18  16 S        2.406     0.061   138.573    19.813
    19   6 C        3.012     0.030    27.306     8.572
    20   6 C        3.211    -0.052    28.613     8.707
    21   6 C        2.828     0.288    22.134     7.709
    22   8 O        0.859    -0.415    21.982     6.286
    23   7 N        2.805    -0.103    23.250     7.161
    24   6 C        3.739     0.010    20.487     6.458
    25   6 C        3.752    -0.111    22.689     6.793
    26   6 C        2.826     0.289    22.106     7.704
    27   8 O        0.857    -0.410    21.878     6.271
    28   6 C        3.235    -0.038    28.052     8.594
    29   6 C        3.036     0.013    27.700     8.633
    30  16 S        2.235     0.041   139.374    19.870
    31   6 C        3.075     0.016    27.579     8.610
    32   6 C        3.077     0.023    27.400     8.582
    33   6 C        3.182    -0.013    27.882     8.619
    34   6 C        3.951     0.021    20.154     6.379
    35   6 C        3.238    -0.008    27.299     8.474
    36   6 C        3.055    -0.044    29.032     8.836
    37   6 C        2.977     0.009    27.819     8.652
    38   6 C        2.922    -0.040    29.003     8.831
    39   6 C        2.925    -0.041    29.016     8.834
    40   6 C        2.970     0.012    27.738     8.639
    41   6 C        3.806    -0.060    21.651     6.624
    42   6 C        3.754    -0.100    22.471     6.760
    43   6 C        2.925    -0.041    29.011     8.833
    44   6 C        2.924    -0.039    28.979     8.828
    45   6 C        2.977     0.013    27.726     8.637
    46   6 C        2.925    -0.038    28.939     8.822
    47   6 C        2.925    -0.040    28.995     8.830
    48   6 C        2.971     0.013    27.724     8.637
    49   6 C        3.806    -0.060    21.653     6.624
    50   6 C        3.754    -0.100    22.473     6.760
    51   6 C        2.926    -0.039    28.963     8.826
    52   6 C        2.921    -0.037    28.914     8.818
    53   6 C        3.095    -0.009    28.126     8.692
    54   6 C        2.998    -0.000    28.020     8.683
    55   6 C        3.808    -0.059    21.637     6.622
    56   6 C        3.754    -0.100    22.468     6.759
    57   6 C        3.017     0.017    27.603     8.618
    58  16 S        2.198    -0.072   144.053    20.201
    59   6 C        3.077     0.023    27.417     8.585
    60   6 C        3.076     0.014    27.615     8.616
    61   6 C        3.248    -0.013    27.302     8.462
    62   6 C        3.954     0.021    20.157     6.380
    63   6 C        2.977     0.008    27.826     8.653
    64   6 C        2.922    -0.040    28.992     8.830
    65   6 C        2.926    -0.040    29.003     8.832
    66   6 C        2.971     0.012    27.741     8.639
    67   6 C        3.806    -0.060    21.649     6.624
    68   6 C        3.754    -0.100    22.467     6.759
    69   6 C        2.925    -0.041    29.028     8.836
    70   6 C        2.924    -0.039    28.968     8.826
    71   6 C        2.976     0.012    27.744     8.640
    72   6 C        2.921    -0.037    28.927     8.820
    73   6 C        2.926    -0.039    28.974     8.827
    74   6 C        2.971     0.012    27.735     8.639
    75   6 C        3.806    -0.060    21.650     6.624
    76   6 C        3.754    -0.100    22.470     6.759
    77   6 C        2.925    -0.040    29.002     8.832
    78   6 C        2.925    -0.038    28.939     8.822
    79   6 C        3.184    -0.019    28.018     8.638
    80   6 C        3.096    -0.008    28.106     8.689
    81   6 C        2.998    -0.001    28.048     8.687
    82   6 C        3.016     0.018    27.595     8.617
    83  16 S        2.197    -0.063   143.653    20.172
    84   6 C        3.808    -0.060    21.644     6.623
    85   6 C        3.754    -0.099    22.445     6.755
    86   6 C        3.070    -0.049    29.137     8.851
    87   6 C        3.002     0.018    27.587     8.616
    88  16 S        2.268    -0.025   142.100    20.063
    89   6 C        3.001     0.021    27.516     8.605
    90   6 C        2.924    -0.031    28.773     8.797
    91   6 C        2.918    -0.016    28.414     8.741
    92   6 C        2.969     0.021    27.537     8.608
    93   6 C        2.927    -0.027    28.676     8.782
    94   6 C        2.920    -0.034    28.850     8.808
    95   6 C        2.905    -0.004    28.124     8.696
    96   6 C        3.014    -0.034    28.818     8.806
    97   6 C        2.869     0.242    22.971     7.856
    98   8 O        0.856    -0.391    21.501     6.217
    99   6 C        3.230    -0.027    27.827     8.566
   100   6 C        3.067    -0.043    28.996     8.830
   101   6 C        2.924     0.102    25.733     8.319
   102  17 Cl       1.018    -0.122   102.968    15.524
   103  16 S        2.328     0.089   137.489    19.735
   104   6 C        3.070     0.012    27.667     8.625
   105   6 C        3.025     0.038    27.126     8.543
   106   6 C        2.948     0.011    27.766     8.642
   107   6 C        1.935     0.129    27.918     8.533
   108   7 N        0.911    -0.249    26.482     7.443
   109   6 C        1.926     0.133    27.849     8.522
   110   7 N        0.911    -0.260    26.752     7.481
   111   1 H        0.925     0.096     1.824     2.112
   112   1 H        0.926     0.094     1.841     2.122
   113   1 H        0.924     0.071     2.080     2.255
   114   1 H        0.924     0.070     2.082     2.256
   115   1 H        0.925     0.053     2.283     2.363
   116   1 H        0.925     0.057     2.232     2.336
   117   1 H        0.925     0.050     2.321     2.382
   118   1 H        0.926     0.067     2.124     2.279
   119   1 H        0.926     0.034     2.528     2.486
   120   1 H        0.926     0.035     2.520     2.482
   121   1 H        0.924     0.040     2.452     2.449
   122   1 H        0.924     0.039     2.466     2.456
   123   1 H        0.925     0.037     2.484     2.465
   124   1 H        0.925     0.039     2.464     2.455
   125   1 H        0.925     0.037     2.488     2.467
   126   1 H        0.926     0.037     2.496     2.470
   127   1 H        0.926     0.042     2.427     2.436
   128   1 H        0.926     0.026     2.647     2.544
   129   1 H        0.926     0.034     2.528     2.487
   130   1 H        0.924     0.039     2.461     2.453
   131   1 H        0.924     0.040     2.447     2.446
   132   1 H        0.925     0.037     2.495     2.470
   133   1 H        0.925     0.039     2.463     2.454
   134   1 H        0.925     0.037     2.483     2.464
   135   1 H        0.926     0.036     2.498     2.472
   136   1 H        0.926     0.040     2.454     2.450
   137   1 H        0.925     0.055     2.258     2.350
   138   1 H        0.924     0.048     2.342     2.393
   139   1 H        0.925     0.042     2.421     2.433
   140   1 H        0.925     0.041     2.433     2.439
   141   1 H        0.925     0.036     2.498     2.472
   142   1 H        0.926     0.033     2.541     2.493
   143   1 H        0.926     0.035     2.519     2.482
   144   1 H        0.924     0.040     2.455     2.450
   145   1 H        0.924     0.040     2.454     2.450
   146   1 H        0.925     0.037     2.494     2.469
   147   1 H        0.925     0.037     2.495     2.470
   148   1 H        0.925     0.039     2.460     2.453
   149   1 H        0.926     0.035     2.521     2.483
   150   1 H        0.926     0.038     2.480     2.463
   151   1 H        0.926     0.038     2.469     2.457
   152   1 H        0.926     0.036     2.508     2.477
   153   1 H        0.924     0.039     2.456     2.451
   154   1 H        0.924     0.039     2.461     2.453
   155   1 H        0.925     0.038     2.479     2.462
   156   1 H        0.925     0.039     2.460     2.453
   157   1 H        0.925     0.036     2.496     2.471
   158   1 H        0.926     0.034     2.533     2.489
   159   1 H        0.926     0.025     2.656     2.549
   160   1 H        0.924     0.048     2.341     2.393
   161   1 H        0.925     0.055     2.263     2.353
   162   1 H        0.925     0.037     2.493     2.469
   163   1 H        0.925     0.041     2.432     2.439
   164   1 H        0.925     0.041     2.436     2.441
   165   1 H        0.926     0.050     2.325     2.385
   166   1 H        0.926     0.056     2.248     2.345
   167   1 H        0.926     0.065     2.143     2.289
   168   1 H        0.926     0.050     2.320     2.382
   169   1 H        0.926     0.046     2.365     2.405
   170   1 H        0.925     0.074     2.044     2.236
   171   1 H        0.926     0.092     1.857     2.131

 Mol. C6AA /au·bohr⁶  :     512186.998418
 Mol. C8AA /au·bohr⁸  :   14382475.595605
 Mol. α(0) /au        :       1142.005101


Wiberg/Mayer (AO) data.
largest (>0.10) Wiberg bond orders for each atom

 ---------------------------------------------------------------------------
     #   Z sym  total        # sym  WBO       # sym  WBO       # sym  WBO
 ---------------------------------------------------------------------------
     1   6 C    3.936 --     2 C    1.541    17 C    1.265   111 H    0.937
     2   6 C    3.946 --     1 C    1.541    11 C    1.108     3 C    1.043
     3   6 C    3.914 --     4 O    1.706     2 C    1.043     5 C    1.036
     4   8 O    2.103 --     3 C    1.706    18 S    0.114
     5   6 C    3.959 --    10 C    1.378     6 C    1.285     3 C    1.036
     6   6 C    3.973 --     7 C    1.536     5 C    1.285   112 H    0.955
     7   6 C    3.868 --     6 C    1.536     9 S    1.160     8 Cl   1.024
     8  17 Cl   1.174 --     7 C    1.024
     9  16 S    2.687 --    10 C    1.191     7 C    1.160
    10   6 C    3.938 --     5 C    1.378     9 S    1.191    11 C    1.142
    11   6 C    3.970 --    12 C    1.469    10 C    1.142     2 C    1.108
    12   6 C    3.950 --    11 C    1.469    13 C    1.101    15 C    1.098
    13   6 C    3.947 --    14 N    2.765    12 C    1.101
    14   7 N    2.959 --    13 C    2.765
    15   6 C    3.945 --    16 N    2.766    12 C    1.098
    16   7 N    2.973 --    15 C    2.766
    17   6 C    3.947 --    28 C    1.378     1 C    1.265    18 S    1.107
    18  16 S    2.710 --    19 C    1.142    17 C    1.107     4 O    0.114
    19   6 C    3.949 --    20 C    1.359    29 C    1.247    18 S    1.142
    20   6 C    3.951 --    19 C    1.359    28 C    1.294    21 C    1.026
    21   6 C    3.933 --    22 O    1.690    23 N    1.110    20 C    1.026
    22   8 O    2.040 --    21 C    1.690    23 N    0.122
    23   7 N    3.556 --    26 C    1.121    21 C    1.110    24 C    0.970
                            27 O    0.134    22 O    0.122
    24   6 C    3.953 --    25 C    1.008    23 N    0.970   113 H    0.968
                           114 H    0.968
    25   6 C    3.989 --    24 C    1.008   117 H    0.987   115 H    0.986
                           116 H    0.983
    26   6 C    3.941 --    27 O    1.713    23 N    1.121    28 C    1.004
    27   8 O    2.045 --    26 C    1.713    23 N    0.134
    28   6 C    3.959 --    17 C    1.378    20 C    1.294    26 C    1.004
    29   6 C    3.919 --    36 C    1.384    19 C    1.247    30 S    1.108
    30  16 S    2.657 --    31 C    1.195    29 C    1.108
    31   6 C    3.931 --    35 C    1.335    32 C    1.196    30 S    1.195
    32   6 C    3.930 --    33 C    1.437    31 C    1.196    83 S    1.116
    33   6 C    3.928 --    32 C    1.437    53 C    1.227    34 C    0.976
    34   6 C    3.985 --    33 C    0.976    35 C    0.959    37 C    0.956
                            45 C    0.949
    35   6 C    3.954 --    36 C    1.406    31 C    1.335    34 C    0.959
    36   6 C    3.967 --    35 C    1.406    29 C    1.384   118 H    0.953
    37   6 C    3.983 --    38 C    1.416    44 C    1.395    34 C    0.956
                            40 C    0.105
    38   6 C    3.989 --    39 C    1.439    37 C    1.416   119 H    0.964
                            43 C    0.107
    39   6 C    3.990 --    38 C    1.439    40 C    1.417   120 H    0.969
                            44 C    0.108
    40   6 C    3.986 --    39 C    1.417    43 C    1.402    41 C    1.013
                            37 C    0.105
    41   6 C    3.997 --    40 C    1.013    42 C    1.000   122 H    0.975
                           121 H    0.973
    42   6 C    3.995 --    41 C    1.000   125 H    0.988   123 H    0.988
                           124 H    0.986
    43   6 C    3.989 --    44 C    1.456    40 C    1.402   126 H    0.969
                            38 C    0.107
    44   6 C    3.988 --    43 C    1.456    37 C    1.395   127 H    0.965
                            39 C    0.108
    45   6 C    3.983 --    52 C    1.415    46 C    1.400    34 C    0.949
                            48 C    0.106
    46   6 C    3.991 --    47 C    1.456    45 C    1.400   128 H    0.969
                            51 C    0.109
    47   6 C    3.990 --    46 C    1.456    48 C    1.402   129 H    0.969
                            52 C    0.106
    48   6 C    3.986 --    51 C    1.415    47 C    1.402    49 C    1.013
                            45 C    0.106
    49   6 C    3.997 --    48 C    1.013    50 C    1.000   130 H    0.974
                           131 H    0.973
    50   6 C    3.995 --    49 C    1.000   132 H    0.988   134 H    0.988
                           133 H    0.986
    51   6 C    3.989 --    52 C    1.439    48 C    1.415   135 H    0.969
                            46 C    0.109
    52   6 C    3.988 --    51 C    1.439    45 C    1.415   136 H    0.962
                            47 C    0.106
    53   6 C    3.967 --    54 C    1.293    82 C    1.229    33 C    1.227
    54   6 C    3.962 --    57 C    1.423    53 C    1.293    55 C    1.014
    55   6 C    3.993 --    54 C    1.014    56 C    0.997   137 H    0.964
                           138 H    0.962
    56   6 C    3.992 --    55 C    0.997   141 H    0.986   139 H    0.985
                           140 H    0.984
    57   6 C    3.937 --    54 C    1.423    80 C    1.230    58 S    1.077
    58  16 S    2.508 --    59 C    1.116    57 C    1.077
    59   6 C    3.928 --    79 C    1.451    60 C    1.183    58 S    1.116
    60   6 C    3.924 --    61 C    1.382    59 C    1.183    88 S    1.164
    61   6 C    3.953 --    60 C    1.382    86 C    1.353    62 C    0.958
    62   6 C    3.986 --    79 C    0.974    63 C    0.958    61 C    0.958
                            71 C    0.949
    63   6 C    3.983 --    64 C    1.413    70 C    1.396    62 C    0.958
                            66 C    0.105
    64   6 C    3.989 --    65 C    1.441    63 C    1.413   142 H    0.964
                            69 C    0.106
    65   6 C    3.991 --    64 C    1.441    66 C    1.415   143 H    0.969
                            70 C    0.108
    66   6 C    3.986 --    65 C    1.415    69 C    1.403    67 C    1.013
                            63 C    0.105
    67   6 C    3.997 --    66 C    1.013    68 C    1.000   145 H    0.974
                           144 H    0.974
    68   6 C    3.995 --    67 C    1.000   146 H    0.988   147 H    0.988
                           148 H    0.986
    69   6 C    3.990 --    70 C    1.455    66 C    1.403   149 H    0.969
                            64 C    0.106
    70   6 C    3.989 --    69 C    1.455    63 C    1.396   150 H    0.965
                            65 C    0.108
    71   6 C    3.983 --    72 C    1.415    78 C    1.400    62 C    0.949
                            74 C    0.106
    72   6 C    3.988 --    73 C    1.438    71 C    1.415   151 H    0.962
                            77 C    0.106
    73   6 C    3.989 --    72 C    1.438    74 C    1.416   152 H    0.969
                            78 C    0.109
    74   6 C    3.986 --    73 C    1.416    77 C    1.401    75 C    1.013
                            71 C    0.106
    75   6 C    3.997 --    74 C    1.013    76 C    1.000   154 H    0.974
                           153 H    0.974
    76   6 C    3.995 --    75 C    1.000   157 H    0.988   155 H    0.988
                           156 H    0.986
    77   6 C    3.990 --    78 C    1.457    74 C    1.401   158 H    0.969
                            72 C    0.106
    78   6 C    3.991 --    77 C    1.457    71 C    1.400   159 H    0.969
                            73 C    0.109
    79   6 C    3.939 --    59 C    1.451    80 C    1.222    62 C    0.974
    80   6 C    3.965 --    81 C    1.296    57 C    1.230    79 C    1.222
    81   6 C    3.967 --    82 C    1.419    80 C    1.296    84 C    1.014
    82   6 C    3.936 --    81 C    1.419    53 C    1.229    83 S    1.080
    83  16 S    2.511 --    32 C    1.116    82 C    1.080
    84   6 C    3.993 --    81 C    1.014    85 C    0.997   161 H    0.963
                           160 H    0.962
    85   6 C    3.992 --    84 C    0.997   162 H    0.986   163 H    0.986
                           164 H    0.984
    86   6 C    3.971 --    87 C    1.459    61 C    1.353   165 H    0.955
    87   6 C    3.913 --    86 C    1.459    89 C    1.151    88 S    1.117
    88  16 S    2.589 --    60 C    1.164    87 C    1.117
    89   6 C    3.970 --    90 C    1.332    94 C    1.318    87 C    1.151
    90   6 C    3.978 --    91 C    1.504    89 C    1.332   166 H    0.959
    91   6 C    3.969 --    90 C    1.504    92 C    1.322   167 H    0.963
    92   6 C    3.962 --    91 C    1.322    93 C    1.313    95 C    1.171
    93   6 C    3.978 --    94 C    1.515    92 C    1.313   168 H    0.967
    94   6 C    3.978 --    93 C    1.515    89 C    1.318   169 H    0.965
    95   6 C    3.934 --    96 C    1.602    92 C    1.171   170 H    0.942
    96   6 C    3.958 --    95 C    1.602   105 C    1.103    97 C    1.017
    97   6 C    3.918 --    98 O    1.754    99 C    1.027    96 C    1.017
    98   8 O    2.044 --    97 C    1.754
    99   6 C    3.963 --   104 C    1.382   100 C    1.288    97 C    1.027
   100   6 C    3.974 --   101 C    1.533    99 C    1.288   171 H    0.955
   101   6 C    3.868 --   100 C    1.533   103 S    1.162   102 Cl   1.022
   102  17 Cl   1.172 --   101 C    1.022
   103  16 S    2.683 --   104 C    1.181   101 C    1.162
   104   6 C    3.943 --    99 C    1.382   103 S    1.181   105 C    1.150
   105   6 C    3.969 --   106 C    1.462   104 C    1.150    96 C    1.103
   106   6 C    3.959 --   105 C    1.462   109 C    1.107   107 C    1.097
   107   6 C    3.945 --   108 N    2.764   106 C    1.097
   108   7 N    2.974 --   107 C    2.764
   109   6 C    3.944 --   110 N    2.749   106 C    1.107
   110   7 N    2.951 --   109 C    2.749
   111   1 H    0.990 --     1 C    0.937
   112   1 H    0.991 --     6 C    0.955
   113   1 H    0.994 --    24 C    0.968
   114   1 H    0.994 --    24 C    0.968
   115   1 H    0.997 --    25 C    0.986
   116   1 H    0.996 --    25 C    0.983
   117   1 H    0.997 --    25 C    0.987
   118   1 H    0.995 --    36 C    0.953
   119   1 H    0.999 --    38 C    0.964
   120   1 H    0.998 --    39 C    0.969
   121   1 H    0.998 --    41 C    0.973
   122   1 H    0.998 --    41 C    0.975
   123   1 H    0.999 --    42 C    0.988
   124   1 H    0.998 --    42 C    0.986
   125   1 H    0.999 --    42 C    0.988
   126   1 H    0.998 --    43 C    0.969
   127   1 H    0.998 --    44 C    0.965
   128   1 H    0.999 --    46 C    0.969
   129   1 H    0.998 --    47 C    0.969
   130   1 H    0.998 --    49 C    0.974
   131   1 H    0.998 --    49 C    0.973
   132   1 H    0.999 --    50 C    0.988
   133   1 H    0.998 --    50 C    0.986
   134   1 H    0.999 --    50 C    0.988
   135   1 H    0.998 --    51 C    0.969
   136   1 H    0.998 --    52 C    0.962
   137   1 H    0.996 --    55 C    0.964
   138   1 H    0.995 --    55 C    0.962
   139   1 H    0.998 --    56 C    0.985
   140   1 H    0.997 --    56 C    0.984
   141   1 H    0.999 --    56 C    0.986
   142   1 H    0.999 --    64 C    0.964
   143   1 H    0.998 --    65 C    0.969
   144   1 H    0.998 --    67 C    0.974
   145   1 H    0.998 --    67 C    0.974
   146   1 H    0.999 --    68 C    0.988
   147   1 H    0.999 --    68 C    0.988
   148   1 H    0.998 --    68 C    0.986
   149   1 H    0.998 --    69 C    0.969
   150   1 H    0.998 --    70 C    0.965
   151   1 H    0.998 --    72 C    0.962
   152   1 H    0.998 --    73 C    0.969
   153   1 H    0.998 --    75 C    0.974
   154   1 H    0.998 --    75 C    0.974
   155   1 H    0.999 --    76 C    0.988
   156   1 H    0.998 --    76 C    0.986
   157   1 H    0.999 --    76 C    0.988
   158   1 H    0.998 --    77 C    0.969
   159   1 H    0.999 --    78 C    0.969
   160   1 H    0.996 --    84 C    0.962
   161   1 H    0.996 --    84 C    0.963
   162   1 H    0.999 --    85 C    0.986
   163   1 H    0.998 --    85 C    0.986
   164   1 H    0.997 --    85 C    0.984
   165   1 H    0.997 --    86 C    0.955
   166   1 H    0.996 --    90 C    0.959
   167   1 H    0.995 --    91 C    0.963
   168   1 H    0.997 --    93 C    0.967
   169   1 H    0.997 --    94 C    0.965
   170   1 H    0.993 --    95 C    0.942
   171   1 H    0.991 --   100 C    0.955
 ---------------------------------------------------------------------------

Topologies differ in bond orders
Writing corrected topology to xtbtopo.mol

molecular dipole:
                 x           y           z       tot (Debye)
 q only:       -0.471      -0.349       1.418
   full:       -0.108      -1.147       1.614       5.041
molecular quadrupole (traceless):
                xx          xy          yy          xz          yz          zz
 q only:      116.707      21.540     123.111      55.473     -81.771    -239.818
  q+dip:      111.919      30.887     143.896      94.421     -84.113    -255.815
   full:      122.077      33.230     136.225      98.516     -86.073    -258.302


           -------------------------------------------------
          | TOTAL ENERGY             -290.864142623161 Eh   |
          | GRADIENT NORM               0.024405122079 Eh/α |
          | HOMO-LUMO GAP               0.509007988665 eV   |
           -------------------------------------------------

------------------------------------------------------------------------
 * finished run on 2022/02/03 at 14:11:29.082     
------------------------------------------------------------------------
 total:
 * wall-time:     0 d,  0 h,  0 min,  4.710 sec
 *  cpu-time:     0 d,  0 h,  0 min, 24.028 sec
 * ratio c/w:     5.102 speedup
 SCF:
 * wall-time:     0 d,  0 h,  0 min,  4.580 sec
 *  cpu-time:     0 d,  0 h,  0 min, 23.417 sec
 * ratio c/w:     5.112 speedup

