      -----------------------------------------------------------      
     |                   =====================                   |     
     |                           x T B                           |     
     |                   =====================                   |     
     |                         S. Grimme                         |     
     |          Mulliken Center for Theoretical Chemistry        |     
     |                    University of Bonn                     |     
      -----------------------------------------------------------      

   * xtb version 6.4.1 (unknown) compiled by 'oda6@login1.crc.pitt.edu' on 2021-06-25

   xtb is free software: you can redistribute it and/or modify it under
   the terms of the GNU Lesser General Public License as published by
   the Free Software Foundation, either version 3 of the License, or
   (at your option) any later version.
   
   xtb is distributed in the hope that it will be useful,
   but WITHOUT ANY WARRANTY; without even the implied warranty of
   MERCHANTABILITY or FITNESS FOR A PARTICULAR PURPOSE.  See the
   GNU Lesser General Public License for more details.
   
   Cite this work as:
   * C. Bannwarth, E. Caldeweyher, S. Ehlert, A. Hansen, P. Pracht,
     J. Seibert, S. Spicher, S. Grimme, WIREs Comput. Mol. Sci., 2020, 11,
     e01493. DOI: 10.1002/wcms.1493
   
   for GFN2-xTB:
   * C. Bannwarth, S. Ehlert and S. Grimme., J. Chem. Theory Comput., 2019,
     15, 1652-1671. DOI: 10.1021/acs.jctc.8b01176
   for GFN1-xTB:
   * S. Grimme, C. Bannwarth, P. Shushkov, J. Chem. Theory Comput., 2017,
     13, 1989-2009. DOI: 10.1021/acs.jctc.7b00118
   for GFN0-xTB:
   * P. Pracht, E. Caldeweyher, S. Ehlert, S. Grimme, ChemRxiv, 2019, preprint.
     DOI: 10.26434/chemrxiv.8326202.v1
   for GFN-FF:
   * S. Spicher and S. Grimme, Angew. Chem. Int. Ed., 2020, 59, 15665-15673.
     DOI: 10.1002/anie.202004239
   
   for DFT-D4:
   * E. Caldeweyher, C. Bannwarth and S. Grimme, J. Chem. Phys., 2017,
     147, 034112. DOI: 10.1063/1.4993215
   * E. Caldeweyher, S. Ehlert, A. Hansen, H. Neugebauer, S. Spicher,
     C. Bannwarth and S. Grimme, J. Chem. Phys., 2019, 150, 154122.
     DOI: 10.1063/1.5090222
   * E. Caldeweyher, J.-M. Mewes, S. Ehlert and S. Grimme, Phys. Chem. Chem. Phys.
     2020, 22, 8499-8512. DOI: 10.1039/D0CP00502A
   
   for sTDA-xTB:
   * S. Grimme and C. Bannwarth, J. Chem. Phys., 2016, 145, 054103.
     DOI: 10.1063/1.4959605
   
   in the mass-spec context:
   * V. Asgeirsson, C. Bauer and S. Grimme, Chem. Sci., 2017, 8, 4879.
     DOI: 10.1039/c7sc00601b
   * J. Koopman and S. Grimme, ACS Omega 2019, 4, 12, 15120-15133.
     DOI: 10.1021/acsomega.9b02011
   
   for metadynamics refer to:
   * S. Grimme, J. Chem. Theory Comput., 2019, 155, 2847-2862
     DOI: 10.1021/acs.jctc.9b00143
   
   for SPH calculations refer to:
   * S. Spicher and S. Grimme, J. Chem. Theory Comput., 2021, 17, 1701-1714
     DOI: 10.1021/acs.jctc.0c01306
   
   with help from (in alphabetical order)
   P. Atkinson, C. Bannwarth, F. Bohle, G. Brandenburg, E. Caldeweyher
   M. Checinski, S. Dohm, S. Ehlert, S. Ehrlich, I. Gerasimov, J. Koopman
   C. Lavigne, S. Lehtola, F. März, M. Müller, F. Musil, H. Neugebauer
   J. Pisarek, C. Plett, P. Pracht, J. Seibert, P. Shushkov, S. Spicher
   M. Stahn, M. Steiner, T. Strunk, J. Stückrath, T. Rose, and J. Unsleber
   
 * started run on 2022/02/07 at 06:42:22.251     

           -------------------------------------------------
          |                Calculation Setup                |
           -------------------------------------------------

          program call               : /ihome/ghutchison/oda6/xtb/xtb-641/bin/xtb ../../GFN2_output/55_28_133_28_55.mol --sp --alpb hexane
          hostname                   : smp-n26
          coordinate file            : ../../GFN2_output/55_28_133_28_55.mol
          omp threads                :                     8
          number of atoms            :                   223
          number of electrons        :                   696
          charge                     :                     0
          spin                       :                   0.0
          first test random number   :      0.81593431828283

   ID    Z sym.   atoms
    1    6 C      1-3, 5-7, 9, 11-13, 15, 17, 18, 20-34, 36, 37, 39-53,
                  55-59, 61-64, 68, 69, 71-75, 77, 78, 80, 81, 83, 84, 86-91,
                  93-107, 109, 110, 112-126, 128-130, 132-134, 136, 138-140,
                  142
    2    8 O      4, 131
    3   16 S      8, 35, 54, 60, 70, 76, 85, 108, 127, 135
    4   17 Cl     10, 137
    5    7 N      14, 16, 19, 38, 65, 67, 79, 82, 92, 111, 141, 143
    6   34 Se     66
    7    1 H      144-223

molecular fragmentation (1/2 indicates fragments):
111111111111111111111111111111111111111111111111111111111111111111211111
111111111111111111111111111111111111111111111111111111111111111111111111
111111111111111111111111111111111111111111111111111111111111111111111111
1111111
# atoms in fragment 1/2:   222     1
 fragment masses (1/2) :     2130.47       14.01
CMA distance (Bohr)    :  13.946
constraining FC (au)   :  0.0500

           -------------------------------------------------
          |                 G F N 2 - x T B                 |
           -------------------------------------------------

        Reference                      10.1021/acs.jctc.8b01176
      * Hamiltonian:
        H0-scaling (s, p, d)           1.850000    2.230000    2.230000
        zeta-weighting                 0.500000
      * Dispersion:
        s8                             2.700000
        a1                             0.520000
        a2                             5.000000
        s9                             5.000000
      * Repulsion:
        kExp                           1.500000    1.000000
        rExp                           1.000000
      * Coulomb:
        alpha                          2.000000
        third order                    shell-resolved
        anisotropic                    true
        a3                             3.000000
        a5                             4.000000
        cn-shift                       1.200000
        cn-exp                         4.000000
        max-rad                        5.000000

      * Solvation model:               ALPB
        Solvent                        hexane
        Parameter file                 internal GFN2-xTB/ALPB
        Dielectric constant                1.8800E+00
        Reference state                gsolv [1 M gas/solution]
        Free energy shift                  4.8134E-03 Eh       3.0204E+00 kcal/mol
        Temperature                        2.9815E+02 K
        Density                            6.6000E-01 kg/L
        Solvent mass                       8.6180E+01 g/mol
        Interaction kernel             P16
        Born radius scaling (c1)           1.1040E+00
        Born radii integrator          GBOBC
        Born offset                        0.0000E+00 a0       0.0000E+00 AA
        H-bond correction              false
        Ion screening                  false
        Surface tension                    1.0000E-05 Eh       1.5569E+01 dyn/cm
        Grid points                               230 per atom

          ...................................................
          :                      SETUP                      :
          :.................................................:
          :  # basis functions                 730          :
          :  # atomic orbitals                 717          :
          :  # shells                          379          :
          :  # electrons                       696          :
          :  max. iterations                   250          :
          :  Hamiltonian                  GFN2-xTB          :
          :  restarted?                      false          :
          :  GBSA solvation                   true          :
          :  PC potential                    false          :
          :  electronic temp.          300.0000000     K    :
          :  accuracy                    1.0000000          :
          :  -> integral cutoff          0.2500000E+02      :
          :  -> integral neglect         0.1000000E-07      :
          :  -> SCF convergence          0.1000000E-05 Eh   :
          :  -> wf. convergence          0.1000000E-03 e    :
          :  Broyden damping             0.4000000          :
          ...................................................

 iter      E             dE          RMSdq      gap      omega  full diag
   1   -383.0111620 -0.383011E+03  0.437E+00    0.95       0.0  T
   2   -383.2763405 -0.265178E+00  0.262E+00    0.82       1.0  T
   3   -383.0962322  0.180108E+00  0.140E+00    0.61       1.0  T
   4   -383.3577116 -0.261479E+00  0.518E-01    0.76       1.0  T
   5   -383.3957044 -0.379928E-01  0.178E-01    0.65       1.0  T
   6   -383.3984952 -0.279081E-02  0.946E-02    0.70       1.0  T
   7   -383.3991043 -0.609048E-03  0.449E-02    0.69       1.0  T
   8   -383.3991811 -0.768437E-04  0.320E-02    0.70       1.0  T
   9   -383.3992463 -0.651490E-04  0.227E-02    0.70       1.0  T
  10   -383.3992806 -0.343066E-04  0.167E-02    0.70       1.0  T
  11   -383.3993066 -0.260369E-04  0.107E-02    0.70       1.0  T
  12   -383.3993177 -0.111138E-04  0.603E-03    0.70       1.1  T
  13   -383.3993214 -0.366967E-05  0.308E-03    0.70       2.2  T
  14   -383.3993219 -0.562412E-06  0.181E-03    0.70       3.7  T
  15   -383.3993221 -0.167146E-06  0.987E-04    0.70       6.8  T
  16   -383.3993222 -0.638326E-07  0.518E-04    0.70      12.9  T

   *** convergence criteria satisfied after 16 iterations ***

         #    Occupation            Energy/Eh            Energy/eV
      -------------------------------------------------------------
         1        2.0000           -1.0816959             -29.4344
       ...           ...                  ...                  ...
       342        2.0000           -0.3793478             -10.3226
       343        2.0000           -0.3725999             -10.1390
       344        2.0000           -0.3667863              -9.9808
       345        2.0000           -0.3640858              -9.9073
       346        2.0000           -0.3625459              -9.8654
       347        2.0000           -0.3555571              -9.6752
       348        2.0000           -0.3506354              -9.5413 (HOMO)
       349        0.0000           -0.3248108              -8.8386 (LUMO)
       350        0.0000           -0.3229091              -8.7868
       351                         -0.3079711              -8.3803
       352                         -0.3052711              -8.3069
       353                         -0.3023505              -8.2274
       ...                                ...                  ...
       717                          1.1639425              31.6725
      -------------------------------------------------------------
                  HL-Gap            0.0258246 Eh            0.7027 eV
             Fermi-level           -0.3377806 Eh           -9.1915 eV

 SCC (total)                   0 d,  0 h,  0 min,  1.054 sec
 SCC setup                      ...        0 min,  0.010 sec (  0.992%)
 Dispersion                     ...        0 min,  0.014 sec (  1.360%)
 classical contributions        ...        0 min,  0.000 sec (  0.039%)
 integral evaluation            ...        0 min,  0.050 sec (  4.703%)
 iterations                     ...        0 min,  0.826 sec ( 78.337%)
 molecular gradient             ...        0 min,  0.148 sec ( 14.045%)
 printout                       ...        0 min,  0.005 sec (  0.513%)

         :::::::::::::::::::::::::::::::::::::::::::::::::::::
         ::                     SUMMARY                     ::
         :::::::::::::::::::::::::::::::::::::::::::::::::::::
         :: total energy            -377.381279741695 Eh    ::
         :: total w/o Gsasa/hb      -377.254044553312 Eh    ::
         :: gradient norm              0.024924646785 Eh/a0 ::
         :: HOMO-LUMO gap              0.702724106703 eV    ::
         ::.................................................::
         :: SCC energy              -383.399322180599 Eh    ::
         :: -> isotropic ES            0.170453559730 Eh    ::
         :: -> anisotropic ES          0.017331534300 Eh    ::
         :: -> anisotropic XC          0.209039443613 Eh    ::
         :: -> dispersion             -0.412110584891 Eh    ::
         :: -> Gsolv                  -0.153308327346 Eh    ::
         ::    -> Gelec               -0.026073138963 Eh    ::
         ::    -> Gsasa               -0.132048544203 Eh    ::
         ::    -> Ghb                  0.000000000000 Eh    ::
         ::    -> Gshift               0.004813355820 Eh    ::
         :: repulsion energy           6.007895021524 Eh    ::
         :: add. restraining           0.000000000000 Eh    ::
         :: total charge              -0.000000000394 e     ::
         :::::::::::::::::::::::::::::::::::::::::::::::::::::

           -------------------------------------------------
          |                Property Printout                |
           -------------------------------------------------

    * Orbital Energies and Occupations

         #    Occupation            Energy/Eh            Energy/eV
      -------------------------------------------------------------
         1        2.0000           -1.0816959             -29.4344
       ...           ...                  ...                  ...
       336        2.0000           -0.3971533             -10.8071
       337        2.0000           -0.3946693             -10.7395
       338        2.0000           -0.3940114             -10.7216
       339        2.0000           -0.3925538             -10.6819
       340        2.0000           -0.3888773             -10.5819
       341        2.0000           -0.3795552             -10.3282
       342        2.0000           -0.3793478             -10.3226
       343        2.0000           -0.3725999             -10.1390
       344        2.0000           -0.3667863              -9.9808
       345        2.0000           -0.3640858              -9.9073
       346        2.0000           -0.3625459              -9.8654
       347        2.0000           -0.3555571              -9.6752
       348        2.0000           -0.3506354              -9.5413 (HOMO)
       349        0.0000           -0.3248108              -8.8386 (LUMO)
       350        0.0000           -0.3229091              -8.7868
       351                         -0.3079711              -8.3803
       352                         -0.3052711              -8.3069
       353                         -0.3023505              -8.2274
       354                         -0.2862478              -7.7892
       355                         -0.2832141              -7.7066
       356                         -0.2725501              -7.4165
       357                         -0.2682899              -7.3005
       358                         -0.2523149              -6.8658
       359                         -0.2458173              -6.6890
       ...                                ...                  ...
       717                          1.1639425              31.6725
      -------------------------------------------------------------
                  HL-Gap            0.0258246 Eh            0.7027 eV
             Fermi-level           -0.3377806 Eh           -9.1915 eV

     #   Z          covCN         q      C6AA      α(0)
     1   6 C        2.921    -0.016    28.410     8.741
     2   6 C        3.021    -0.042    29.016     8.836
     3   6 C        2.861     0.238    23.033     7.867
     4   8 O        0.943    -0.408    21.797     6.262
     5   6 C        3.243    -0.045    28.107     8.592
     6   6 C        3.232    -0.008    27.353     8.490
     7   6 C        2.924    -0.025    28.626     8.774
     8  16 S        2.396     0.063   138.498    19.807
     9   6 C        2.890     0.107    25.632     8.300
    10  17 Cl       1.005    -0.112   102.662    15.501
    11   6 C        3.016     0.036    27.185     8.553
    12   6 C        2.947    -0.005    28.137     8.700
    13   6 C        1.931     0.127    27.966     8.540
    14   7 N        0.911    -0.286    27.366     7.566
    15   6 C        1.937     0.128    27.957     8.539
    16   7 N        0.911    -0.279    27.194     7.542
    17   6 C        2.985     0.009    27.815     8.651
    18   6 C        3.043     0.061    26.602     8.459
    19   7 N        2.748    -0.042    22.055     6.975
    20   6 C        2.924     0.057    26.728     8.478
    21   6 C        2.920    -0.050    29.243     8.868
    22   6 C        2.925    -0.041    29.025     8.835
    23   6 C        2.966     0.014    27.688     8.631
    24   6 C        3.758    -0.113    22.714     6.795
    25   6 C        2.926    -0.035    28.883     8.813
    26   6 C        2.920    -0.038    28.950     8.823
    27   6 C        2.938     0.060    26.660     8.468
    28   6 C        2.922    -0.041    29.009     8.832
    29   6 C        2.925    -0.037    28.925     8.820
    30   6 C        2.966     0.020    27.569     8.612
    31   6 C        3.758    -0.115    22.749     6.800
    32   6 C        2.926    -0.039    28.961     8.825
    33   6 C        2.920    -0.041    29.028     8.835
    34   6 C        3.155     0.000    27.724     8.610
    35  16 S        2.252    -0.071   143.990    20.196
    36   6 C        3.027     0.005    27.878     8.661
    37   6 C        3.059     0.049    26.846     8.497
    38   7 N        2.749    -0.070    22.590     7.059
    39   6 C        2.936     0.059    26.686     8.472
    40   6 C        2.920    -0.044    29.081     8.843
    41   6 C        2.926    -0.036    28.908     8.817
    42   6 C        2.966     0.020    27.549     8.609
    43   6 C        3.758    -0.108    22.621     6.781
    44   6 C        2.926    -0.036    28.896     8.815
    45   6 C        2.922    -0.044    29.105     8.847
    46   6 C        2.924     0.062    26.619     8.461
    47   6 C        2.921    -0.052    29.297     8.876
    48   6 C        2.926    -0.041    29.027     8.835
    49   6 C        2.965     0.007    27.860     8.658
    50   6 C        3.757    -0.111    22.683     6.790
    51   6 C        2.925    -0.042    29.032     8.836
    52   6 C        2.922    -0.050    29.245     8.868
    53   6 C        3.163    -0.000    27.702     8.603
    54  16 S        2.299    -0.018   141.785    20.041
    55   6 C        3.032     0.011    27.731     8.638
    56   6 C        3.096    -0.007    28.075     8.684
    57   6 C        3.804    -0.056    21.585     6.614
    58   6 C        3.753    -0.099    22.449     6.756
    59   6 C        3.207     0.006    27.273     8.504
    60  16 S        2.186    -0.052   143.194    20.140
    61   6 C        3.102     0.003    27.835     8.646
    62   6 C        3.082    -0.040    28.899     8.813
    63   6 C        3.305     0.078    24.509     7.916
    64   6 C        3.305     0.078    24.515     7.917
    65   7 N        1.839    -0.267    27.787     7.812
    66  34 Se       2.625     0.215   228.680    26.350
    67   7 N        1.839    -0.267    27.773     7.810
    68   6 C        3.086    -0.042    28.931     8.817
    69   6 C        3.102    -0.000    27.908     8.657
    70  16 S        2.186    -0.046   142.947    20.123
    71   6 C        3.208     0.006    27.255     8.500
    72   6 C        3.104    -0.006    28.034     8.676
    73   6 C        3.804    -0.052    21.506     6.602
    74   6 C        3.754    -0.103    22.525     6.768
    75   6 C        3.032     0.009    27.777     8.645
    76  16 S        2.272    -0.076   144.198    20.211
    77   6 C        3.124     0.000    27.837     8.640
    78   6 C        3.256     0.025    26.339     8.298
    79   7 N        2.798    -0.033    21.874     6.946
    80   6 C        3.077     0.030    27.250     8.558
    81   6 C        3.080     0.031    27.227     8.554
    82   7 N        2.797    -0.043    22.067     6.977
    83   6 C        3.257     0.028    26.286     8.289
    84   6 C        3.120     0.002    27.802     8.636
    85  16 S        2.272    -0.067   143.856    20.187
    86   6 C        3.746    -0.002    20.680     6.487
    87   6 C        3.752    -0.112    22.700     6.794
    88   6 C        3.743     0.001    20.643     6.482
    89   6 C        3.752    -0.117    22.792     6.808
    90   6 C        3.034    -0.002    28.045     8.686
    91   6 C        3.054     0.051    26.807     8.491
    92   7 N        2.748    -0.072    22.635     7.066
    93   6 C        2.930     0.059    26.687     8.472
    94   6 C        2.920    -0.047    29.159     8.855
    95   6 C        2.926    -0.040    29.000     8.831
    96   6 C        2.966     0.014    27.705     8.634
    97   6 C        3.758    -0.117    22.788     6.806
    98   6 C        2.925    -0.041    29.029     8.836
    99   6 C        2.920    -0.047    29.179     8.858
   100   6 C        2.924     0.060    26.662     8.468
   101   6 C        2.921    -0.049    29.206     8.862
   102   6 C        2.925    -0.042    29.037     8.837
   103   6 C        2.965     0.009    27.807     8.649
   104   6 C        3.758    -0.109    22.629     6.782
   105   6 C        2.926    -0.041    29.016     8.834
   106   6 C        2.921    -0.051    29.267     8.872
   107   6 C        3.175     0.014    27.312     8.535
   108  16 S        2.256    -0.066   143.774    20.181
   109   6 C        2.988     0.008    27.843     8.656
   110   6 C        3.046     0.066    26.488     8.441
   111   7 N        2.749    -0.042    22.047     6.974
   112   6 C        2.926     0.058    26.707     8.475
   113   6 C        2.920    -0.043    29.079     8.843
   114   6 C        2.925    -0.038    28.934     8.821
   115   6 C        2.966     0.021    27.525     8.606
   116   6 C        3.758    -0.114    22.742     6.799
   117   6 C        2.925    -0.036    28.904     8.817
   118   6 C        2.920    -0.045    29.117     8.849
   119   6 C        2.935     0.058    26.710     8.476
   120   6 C        2.919    -0.044    29.082     8.843
   121   6 C        2.925    -0.040    28.990     8.830
   122   6 C        2.966     0.018    27.602     8.618
   123   6 C        3.758    -0.114    22.740     6.799
   124   6 C        2.926    -0.037    28.922     8.819
   125   6 C        2.919    -0.044    29.105     8.847
   126   6 C        3.173     0.004    27.558     8.575
   127  16 S        2.254    -0.040   142.690    20.105
   128   6 C        2.934    -0.015    28.391     8.738
   129   6 C        3.025    -0.039    28.949     8.826
   130   6 C        2.862     0.239    23.018     7.864
   131   8 O        0.856    -0.423    22.144     6.309
   132   6 C        3.238    -0.045    28.180     8.609
   133   6 C        3.236    -0.006    27.287     8.475
   134   6 C        2.923    -0.025    28.629     8.775
   135  16 S        2.396     0.067   138.363    19.798
   136   6 C        2.890     0.109    25.601     8.296
   137  17 Cl       1.005    -0.113   102.695    15.504
   138   6 C        3.013     0.042    27.048     8.531
   139   6 C        2.948    -0.002    28.079     8.691
   140   6 C        1.929     0.136    27.762     8.509
   141   7 N        0.911    -0.298    27.662     7.607
   142   6 C        1.929     0.131    27.876     8.527
   143   7 N        0.911    -0.282    27.273     7.553
   144   1 H        0.925     0.069     2.094     2.263
   145   1 H        0.926     0.088     1.897     2.154
   146   1 H        0.926     0.032     2.564     2.504
   147   1 H        0.926     0.038     2.474     2.460
   148   1 H        0.925     0.046     2.371     2.408
   149   1 H        0.925     0.053     2.285     2.364
   150   1 H        0.925     0.053     2.285     2.364
   151   1 H        0.926     0.049     2.336     2.390
   152   1 H        0.926     0.054     2.269     2.356
   153   1 H        0.926     0.038     2.480     2.463
   154   1 H        0.926     0.045     2.385     2.415
   155   1 H        0.925     0.050     2.321     2.382
   156   1 H        0.924     0.057     2.239     2.340
   157   1 H        0.925     0.050     2.316     2.380
   158   1 H        0.926     0.045     2.387     2.416
   159   1 H        0.926     0.042     2.420     2.433
   160   1 H        0.926     0.037     2.495     2.470
   161   1 H        0.926     0.039     2.468     2.457
   162   1 H        0.925     0.044     2.401     2.423
   163   1 H        0.925     0.045     2.387     2.416
   164   1 H        0.925     0.056     2.252     2.347
   165   1 H        0.926     0.038     2.477     2.461
   166   1 H        0.926     0.032     2.557     2.501
   167   1 H        0.926     0.027     2.627     2.535
   168   1 H        0.926     0.035     2.523     2.484
   169   1 H        0.925     0.043     2.409     2.427
   170   1 H        0.925     0.047     2.358     2.402
   171   1 H        0.925     0.049     2.338     2.391
   172   1 H        0.926     0.035     2.516     2.480
   173   1 H        0.926     0.037     2.491     2.468
   174   1 H        0.924     0.055     2.253     2.347
   175   1 H        0.924     0.056     2.247     2.344
   176   1 H        0.925     0.038     2.481     2.463
   177   1 H        0.925     0.042     2.427     2.436
   178   1 H        0.925     0.046     2.376     2.411
   179   1 H        0.924     0.053     2.277     2.360
   180   1 H        0.924     0.043     2.412     2.429
   181   1 H        0.925     0.046     2.368     2.406
   182   1 H        0.925     0.042     2.421     2.433
   183   1 H        0.925     0.045     2.379     2.412
   184   1 H        0.925     0.070     2.083     2.257
   185   1 H        0.924     0.065     2.141     2.288
   186   1 H        0.925     0.045     2.379     2.412
   187   1 H        0.925     0.054     2.270     2.356
   188   1 H        0.925     0.051     2.308     2.376
   189   1 H        0.924     0.057     2.236     2.339
   190   1 H        0.924     0.076     2.024     2.225
   191   1 H        0.925     0.050     2.317     2.380
   192   1 H        0.925     0.058     2.225     2.333
   193   1 H        0.925     0.054     2.265     2.353
   194   1 H        0.926     0.031     2.565     2.505
   195   1 H        0.926     0.037     2.483     2.464
   196   1 H        0.925     0.061     2.189     2.314
   197   1 H        0.924     0.053     2.277     2.360
   198   1 H        0.925     0.045     2.390     2.417
   199   1 H        0.926     0.039     2.464     2.455
   200   1 H        0.926     0.036     2.496     2.471
   201   1 H        0.926     0.037     2.490     2.467
   202   1 H        0.926     0.033     2.538     2.491
   203   1 H        0.925     0.049     2.333     2.389
   204   1 H        0.924     0.047     2.355     2.400
   205   1 H        0.925     0.042     2.422     2.434
   206   1 H        0.926     0.037     2.486     2.465
   207   1 H        0.926     0.028     2.618     2.530
   208   1 H        0.926     0.042     2.417     2.431
   209   1 H        0.926     0.044     2.394     2.420
   210   1 H        0.925     0.049     2.337     2.390
   211   1 H        0.924     0.061     2.192     2.315
   212   1 H        0.925     0.051     2.310     2.377
   213   1 H        0.926     0.045     2.380     2.412
   214   1 H        0.926     0.037     2.490     2.468
   215   1 H        0.926     0.040     2.448     2.447
   216   1 H        0.926     0.042     2.421     2.433
   217   1 H        0.925     0.047     2.352     2.398
   218   1 H        0.924     0.055     2.259     2.350
   219   1 H        0.925     0.051     2.301     2.372
   220   1 H        0.926     0.046     2.369     2.407
   221   1 H        0.926     0.058     2.224     2.332
   222   1 H        0.925     0.080     1.978     2.199
   223   1 H        0.926     0.088     1.894     2.152

 Mol. C6AA /au·bohr⁶  :     899632.157129
 Mol. C8AA /au·bohr⁸  :   25808150.509746
 Mol. α(0) /au        :       1521.697203


Wiberg/Mayer (AO) data.
largest (>0.10) Wiberg bond orders for each atom

 ---------------------------------------------------------------------------
     #   Z sym  total        # sym  WBO       # sym  WBO       # sym  WBO
 ---------------------------------------------------------------------------
     1   6 C    3.944 --     2 C    1.415    17 C    1.382   144 H    0.932
     2   6 C    3.953 --     1 C    1.415    11 C    1.172     3 C    1.079
     3   6 C    3.916 --     4 O    1.672     2 C    1.079     5 C    1.030
     4   8 O    2.074 --     3 C    1.672    54 S    0.115
     5   6 C    3.970 --     9 C    1.532     6 C    1.151     3 C    1.030
     6   6 C    3.980 --     7 C    1.576     5 C    1.151    11 C    1.087
     7   6 C    3.924 --     6 C    1.576     8 S    1.184   145 H    0.960
     8  16 S    2.619 --     7 C    1.184     9 C    1.146
     9   6 C    3.883 --     5 C    1.532     8 S    1.146    10 Cl   1.030
    10  17 Cl   1.205 --     9 C    1.030
    11   6 C    3.973 --    12 C    1.434     2 C    1.172     6 C    1.087
    12   6 C    3.945 --    11 C    1.434    13 C    1.117    15 C    1.107
    13   6 C    3.943 --    14 N    2.725    12 C    1.117
    14   7 N    2.953 --    13 C    2.725
    15   6 C    3.941 --    16 N    2.749    12 C    1.107
    16   7 N    2.956 --    15 C    2.749
    17   6 C    3.923 --     1 C    1.382    18 C    1.242    54 S    1.072
    18   6 C    3.946 --    34 C    1.276    17 C    1.242    19 N    1.170
    19   7 N    3.533 --    18 C    1.170    20 C    1.035    27 C    1.024
    20   6 C    3.959 --    26 C    1.367    21 C    1.366    19 N    1.035
    21   6 C    3.984 --    22 C    1.460    20 C    1.366   146 H    0.968
                            25 C    0.106
    22   6 C    3.989 --    21 C    1.460    23 C    1.398   147 H    0.968
    23   6 C    3.978 --    25 C    1.404    22 C    1.398    24 C    1.028
    24   6 C    3.995 --    23 C    1.028   148 H    0.985   149 H    0.975
                           150 H    0.968
    25   6 C    3.990 --    26 C    1.455    23 C    1.404   151 H    0.968
                            21 C    0.106
    26   6 C    3.979 --    25 C    1.455    20 C    1.367   152 H    0.966
    27   6 C    3.959 --    33 C    1.374    28 C    1.368    19 N    1.024
    28   6 C    3.982 --    29 C    1.457    27 C    1.368   153 H    0.968
                            32 C    0.104
    29   6 C    3.989 --    28 C    1.457    30 C    1.401   154 H    0.968
                            33 C    0.103
    30   6 C    3.972 --    29 C    1.401    32 C    1.401    31 C    1.029
    31   6 C    3.995 --    30 C    1.029   155 H    0.981   157 H    0.981
                           156 H    0.964
    32   6 C    3.989 --    33 C    1.458    30 C    1.401   158 H    0.968
                            28 C    0.104
    33   6 C    3.975 --    32 C    1.458    27 C    1.374   159 H    0.967
                            29 C    0.103
    34   6 C    3.932 --    53 C    1.338    18 C    1.276    35 S    1.090
    35  16 S    2.533 --    34 C    1.090    36 C    1.083
    36   6 C    3.897 --    37 C    1.393    55 C    1.176    35 S    1.083
    37   6 C    3.951 --    36 C    1.393    53 C    1.228    38 N    1.094
    38   7 N    3.494 --    37 C    1.094    46 C    1.064    39 C    1.024
    39   6 C    3.962 --    40 C    1.376    45 C    1.372    38 N    1.024
    40   6 C    3.986 --    41 C    1.457    39 C    1.376   160 H    0.968
                            44 C    0.105
    41   6 C    3.990 --    40 C    1.457    42 C    1.402   161 H    0.969
                            45 C    0.104
    42   6 C    3.977 --    44 C    1.404    41 C    1.402    43 C    1.028
    43   6 C    3.996 --    42 C    1.028   162 H    0.983   163 H    0.981
                           164 H    0.964
    44   6 C    3.990 --    45 C    1.454    42 C    1.404   165 H    0.969
                            40 C    0.105
    45   6 C    3.985 --    44 C    1.454    39 C    1.372   166 H    0.968
                            41 C    0.104
    46   6 C    3.964 --    52 C    1.361    47 C    1.357    38 N    1.064
    47   6 C    3.986 --    48 C    1.466    46 C    1.357   167 H    0.966
                            51 C    0.101
    48   6 C    3.990 --    47 C    1.466    49 C    1.395   168 H    0.969
                            52 C    0.103
    49   6 C    3.981 --    51 C    1.405    48 C    1.395    50 C    1.026
    50   6 C    3.996 --    49 C    1.026   169 H    0.986   171 H    0.973
                           170 H    0.972
    51   6 C    3.990 --    52 C    1.456    49 C    1.405   172 H    0.968
                            47 C    0.101
    52   6 C    3.984 --    51 C    1.456    46 C    1.361   173 H    0.967
                            48 C    0.103
    53   6 C    3.941 --    34 C    1.338    37 C    1.228    54 S    1.136
    54  16 S    2.675 --    53 C    1.136    17 C    1.072     4 O    0.115
    55   6 C    3.913 --    56 C    1.458    36 C    1.176    85 S    1.072
    56   6 C    3.956 --    55 C    1.458    59 C    1.280    57 C    1.010
    57   6 C    3.994 --    56 C    1.010    58 C    1.001   174 H    0.970
                           175 H    0.955
    58   6 C    3.993 --    57 C    1.001   177 H    0.988   178 H    0.985
                           176 H    0.985
    59   6 C    3.925 --    84 C    1.347    56 C    1.280    60 S    1.088
    60  16 S    2.501 --    61 C    1.108    59 C    1.088
    61   6 C    3.924 --    83 C    1.326    62 C    1.255    60 S    1.108
    62   6 C    3.959 --    81 C    1.286    61 C    1.255    63 C    1.171
    63   6 C    3.973 --    67 N    1.460    62 C    1.171    64 C    1.128
                            66 Se   0.118
    64   6 C    3.973 --    65 N    1.460    68 C    1.170    63 C    1.128
                            66 Se   0.118
    65   7 N    3.132 --    64 C    1.460    66 Se   1.432    67 N    0.127
    66  34 Se   3.229 --    67 N    1.433    65 N    1.432    63 C    0.118
                            64 C    0.118
    67   7 N    3.132 --    63 C    1.460    66 Se   1.433    65 N    0.127
    68   6 C    3.957 --    80 C    1.280    69 C    1.260    64 C    1.170
    69   6 C    3.930 --    78 C    1.322    68 C    1.260    70 S    1.107
    70  16 S    2.504 --    69 C    1.107    71 C    1.092
    71   6 C    3.925 --    77 C    1.366    72 C    1.255    70 S    1.092
    72   6 C    3.968 --    75 C    1.501    71 C    1.255    73 C    1.011
    73   6 C    3.995 --    72 C    1.011    74 C    0.998   180 H    0.971
                           179 H    0.967
    74   6 C    3.992 --    73 C    0.998   183 H    0.987   182 H    0.985
                           181 H    0.985
    75   6 C    3.914 --    72 C    1.501    90 C    1.125    76 S    1.072
    76  16 S    2.536 --    77 C    1.113    75 C    1.072
    77   6 C    3.933 --    71 C    1.366    78 C    1.231    76 S    1.113
    78   6 C    3.939 --    69 C    1.322    77 C    1.231    79 N    1.159
    79   7 N    3.555 --    80 C    1.170    78 C    1.159    88 C    0.979
    80   6 C    3.938 --    68 C    1.280    81 C    1.216    79 N    1.170
    81   6 C    3.934 --    62 C    1.286    80 C    1.216    82 N    1.161
    82   7 N    3.532 --    81 C    1.161    83 C    1.146    86 C    0.976
    83   6 C    3.941 --    61 C    1.326    84 C    1.240    82 N    1.146
    84   6 C    3.927 --    59 C    1.347    83 C    1.240    85 S    1.119
    85  16 S    2.543 --    84 C    1.119    55 C    1.072
    86   6 C    3.960 --    87 C    1.005    82 N    0.976   185 H    0.967
                           184 H    0.955
    87   6 C    3.988 --    86 C    1.005   186 H    0.987   188 H    0.983
                           187 H    0.982
    88   6 C    3.960 --    89 C    1.010    79 N    0.979   190 H    0.961
                           189 H    0.949
    89   6 C    3.987 --    88 C    1.010   191 H    0.986   192 H    0.982
                           193 H    0.981
    90   6 C    3.897 --    91 C    1.411    75 C    1.125   127 S    1.098
    91   6 C    3.956 --    90 C    1.411   107 C    1.220    92 N    1.102
    92   7 N    3.493 --    91 C    1.102   100 C    1.051    93 C    1.033
    93   6 C    3.962 --    99 C    1.372    94 C    1.372    92 N    1.033
    94   6 C    3.986 --    95 C    1.454    93 C    1.372   194 H    0.968
                            98 C    0.103
    95   6 C    3.990 --    94 C    1.454    96 C    1.404   195 H    0.968
                            99 C    0.105
    96   6 C    3.978 --    95 C    1.404    98 C    1.400    97 C    1.028
    97   6 C    3.993 --    96 C    1.028   198 H    0.982   196 H    0.973
                           197 H    0.965
    98   6 C    3.990 --    99 C    1.459    96 C    1.400   199 H    0.969
                            94 C    0.103
    99   6 C    3.985 --    98 C    1.459    93 C    1.372   200 H    0.968
                            95 C    0.105
   100   6 C    3.964 --   101 C    1.367   106 C    1.365    92 N    1.051
   101   6 C    3.986 --   102 C    1.457   100 C    1.367   201 H    0.967
                           105 C    0.104
   102   6 C    3.990 --   101 C    1.457   103 C    1.403   202 H    0.969
                           106 C    0.101
   103   6 C    3.982 --   102 C    1.403   105 C    1.400   104 C    1.027
   104   6 C    3.996 --   103 C    1.027   205 H    0.984   203 H    0.978
                           204 H    0.967
   105   6 C    3.990 --   106 C    1.460   103 C    1.400   206 H    0.969
                           101 C    0.104
   106   6 C    3.987 --   105 C    1.460   100 C    1.365   207 H    0.968
                           102 C    0.101
   107   6 C    3.936 --   126 C    1.373    91 C    1.220   108 S    1.111
   108  16 S    2.527 --   107 C    1.111   109 C    1.063
   109   6 C    3.919 --   128 C    1.316   110 C    1.301   108 S    1.063
   110   6 C    3.957 --   109 C    1.301   126 C    1.228   111 N    1.170
   111   7 N    3.518 --   110 C    1.170   112 C    1.040   119 C    1.021
   112   6 C    3.960 --   113 C    1.370   118 C    1.359   111 N    1.040
   113   6 C    3.979 --   114 C    1.458   112 C    1.370   208 H    0.967
                           117 C    0.103
   114   6 C    3.990 --   113 C    1.458   115 C    1.402   209 H    0.968
                           118 C    0.102
   115   6 C    3.974 --   114 C    1.402   117 C    1.396   116 C    1.030
   116   6 C    3.994 --   115 C    1.030   210 H    0.983   212 H    0.978
                           211 H    0.963
   117   6 C    3.990 --   118 C    1.462   115 C    1.396   213 H    0.968
                           113 C    0.103
   118   6 C    3.982 --   117 C    1.462   112 C    1.359   214 H    0.968
                           114 C    0.102
   119   6 C    3.957 --   120 C    1.379   125 C    1.366   111 N    1.021
   120   6 C    3.974 --   121 C    1.452   119 C    1.379   215 H    0.967
                           124 C    0.104
   121   6 C    3.989 --   120 C    1.452   122 C    1.406   216 H    0.968
                           125 C    0.103
   122   6 C    3.972 --   121 C    1.406   124 C    1.397   123 C    1.028
   123   6 C    3.995 --   122 C    1.028   217 H    0.984   219 H    0.977
                           218 H    0.966
   124   6 C    3.989 --   125 C    1.463   122 C    1.397   220 H    0.968
                           120 C    0.104
   125   6 C    3.980 --   124 C    1.463   119 C    1.366   221 H    0.963
                           121 C    0.103
   126   6 C    3.937 --   107 C    1.373   110 C    1.228   127 S    1.108
   127  16 S    2.555 --   126 C    1.108    90 C    1.098
   128   6 C    3.944 --   129 C    1.464   109 C    1.316   222 H    0.934
   129   6 C    3.955 --   128 C    1.464   138 C    1.168   130 C    1.037
   130   6 C    3.921 --   131 O    1.723   129 C    1.037   132 C    1.026
   131   8 O    2.013 --   130 C    1.723
   132   6 C    3.969 --   136 C    1.532   133 C    1.148   130 C    1.026
   133   6 C    3.980 --   134 C    1.579   132 C    1.148   138 C    1.083
   134   6 C    3.926 --   133 C    1.579   135 S    1.183   223 H    0.961
   135  16 S    2.620 --   134 C    1.183   136 C    1.147
   136   6 C    3.885 --   132 C    1.532   135 S    1.147   137 Cl   1.031
   137  17 Cl   1.206 --   136 C    1.031
   138   6 C    3.964 --   139 C    1.432   129 C    1.168   133 C    1.083
   139   6 C    3.954 --   138 C    1.432   140 C    1.115   142 C    1.113
   140   6 C    3.941 --   141 N    2.734   139 C    1.115
   141   7 N    2.962 --   140 C    2.734
   142   6 C    3.943 --   143 N    2.741   139 C    1.113
   143   7 N    2.957 --   142 C    2.741
   144   1 H    0.994 --     1 C    0.932
   145   1 H    0.992 --     7 C    0.960
   146   1 H    0.999 --    21 C    0.968
   147   1 H    0.998 --    22 C    0.968
   148   1 H    0.998 --    24 C    0.985
   149   1 H    0.996 --    24 C    0.975
   150   1 H    0.996 --    24 C    0.968
   151   1 H    0.997 --    25 C    0.968
   152   1 H    0.997 --    26 C    0.966
   153   1 H    0.998 --    28 C    0.968
   154   1 H    0.997 --    29 C    0.968
   155   1 H    0.997 --    31 C    0.981
   156   1 H    0.995 --    31 C    0.964
   157   1 H    0.997 --    31 C    0.981
   158   1 H    0.997 --    32 C    0.968
   159   1 H    0.998 --    33 C    0.967
   160   1 H    0.998 --    40 C    0.968
   161   1 H    0.998 --    41 C    0.969
   162   1 H    0.998 --    43 C    0.983
   163   1 H    0.997 --    43 C    0.981
   164   1 H    0.995 --    43 C    0.964
   165   1 H    0.998 --    44 C    0.969
   166   1 H    0.999 --    45 C    0.968
   167   1 H    0.999 --    47 C    0.966
   168   1 H    0.998 --    48 C    0.969
   169   1 H    0.998 --    50 C    0.986
   170   1 H    0.996 --    50 C    0.972
   171   1 H    0.996 --    50 C    0.973
   172   1 H    0.998 --    51 C    0.968
   173   1 H    0.998 --    52 C    0.967
   174   1 H    0.996 --    57 C    0.970
   175   1 H    0.995 --    57 C    0.955
   176   1 H    0.999 --    58 C    0.985
   177   1 H    0.998 --    58 C    0.988
   178   1 H    0.997 --    58 C    0.985
   179   1 H    0.997 --    73 C    0.967
   180   1 H    0.998 --    73 C    0.971
   181   1 H    0.996 --    74 C    0.985
   182   1 H    0.998 --    74 C    0.985
   183   1 H    0.998 --    74 C    0.987
   184   1 H    0.994 --    86 C    0.955
   185   1 H    0.994 --    86 C    0.967
   186   1 H    0.998 --    87 C    0.987
   187   1 H    0.996 --    87 C    0.982
   188   1 H    0.997 --    87 C    0.983
   189   1 H    0.994 --    88 C    0.949
   190   1 H    0.994 --    88 C    0.961
   191   1 H    0.997 --    89 C    0.986
   192   1 H    0.996 --    89 C    0.982
   193   1 H    0.997 --    89 C    0.981
   194   1 H    0.999 --    94 C    0.968
   195   1 H    0.998 --    95 C    0.968
   196   1 H    0.996 --    97 C    0.973
   197   1 H    0.996 --    97 C    0.965
   198   1 H    0.997 --    97 C    0.982
   199   1 H    0.998 --    98 C    0.969
   200   1 H    0.998 --    99 C    0.968
   201   1 H    0.998 --   101 C    0.967
   202   1 H    0.998 --   102 C    0.969
   203   1 H    0.997 --   104 C    0.978
   204   1 H    0.996 --   104 C    0.967
   205   1 H    0.998 --   104 C    0.984
   206   1 H    0.998 --   105 C    0.969
   207   1 H    0.999 --   106 C    0.968
   208   1 H    0.998 --   113 C    0.967
   209   1 H    0.997 --   114 C    0.968
   210   1 H    0.997 --   116 C    0.983
   211   1 H    0.994 --   116 C    0.963
   212   1 H    0.996 --   116 C    0.978
   213   1 H    0.997 --   117 C    0.968
   214   1 H    0.998 --   118 C    0.968
   215   1 H    0.998 --   120 C    0.967
   216   1 H    0.998 --   121 C    0.968
   217   1 H    0.997 --   123 C    0.984
   218   1 H    0.995 --   123 C    0.966
   219   1 H    0.996 --   123 C    0.977
   220   1 H    0.997 --   124 C    0.968
   221   1 H    0.996 --   125 C    0.963
   222   1 H    0.990 --   128 C    0.934
   223   1 H    0.992 --   134 C    0.961
 ---------------------------------------------------------------------------

Topologies differ in bond orders
Writing corrected topology to xtbtopo.mol

molecular dipole:
                 x           y           z       tot (Debye)
 q only:        0.905      -2.416       0.515
   full:       -0.152      -2.875      -0.206       7.337
molecular quadrupole (traceless):
                xx          xy          yy          xz          yz          zz
 q only:      -73.493     -68.325     -20.064     -25.396     -45.076      93.556
  q+dip:      -68.097     -53.586     -30.042     -30.856     -42.603      98.139
   full:      -67.066     -47.922     -36.451     -34.623     -44.346     103.518


           -------------------------------------------------
          | TOTAL ENERGY             -377.381279741695 Eh   |
          | GRADIENT NORM               0.024924646785 Eh/α |
          | HOMO-LUMO GAP               0.702724106703 eV   |
           -------------------------------------------------

------------------------------------------------------------------------
 * finished run on 2022/02/07 at 06:42:23.434     
------------------------------------------------------------------------
 total:
 * wall-time:     0 d,  0 h,  0 min,  1.182 sec
 *  cpu-time:     0 d,  0 h,  0 min,  9.337 sec
 * ratio c/w:     7.896 speedup
 SCF:
 * wall-time:     0 d,  0 h,  0 min,  1.058 sec
 *  cpu-time:     0 d,  0 h,  0 min,  8.444 sec
 * ratio c/w:     7.982 speedup

