      -----------------------------------------------------------      
     |                   =====================                   |     
     |                           x T B                           |     
     |                   =====================                   |     
     |                         S. Grimme                         |     
     |          Mulliken Center for Theoretical Chemistry        |     
     |                    University of Bonn                     |     
      -----------------------------------------------------------      

   * xtb version 6.4.1 (unknown) compiled by 'oda6@login1.crc.pitt.edu' on 2021-06-25

   xtb is free software: you can redistribute it and/or modify it under
   the terms of the GNU Lesser General Public License as published by
   the Free Software Foundation, either version 3 of the License, or
   (at your option) any later version.
   
   xtb is distributed in the hope that it will be useful,
   but WITHOUT ANY WARRANTY; without even the implied warranty of
   MERCHANTABILITY or FITNESS FOR A PARTICULAR PURPOSE.  See the
   GNU Lesser General Public License for more details.
   
   Cite this work as:
   * C. Bannwarth, E. Caldeweyher, S. Ehlert, A. Hansen, P. Pracht,
     J. Seibert, S. Spicher, S. Grimme, WIREs Comput. Mol. Sci., 2020, 11,
     e01493. DOI: 10.1002/wcms.1493
   
   for GFN2-xTB:
   * C. Bannwarth, S. Ehlert and S. Grimme., J. Chem. Theory Comput., 2019,
     15, 1652-1671. DOI: 10.1021/acs.jctc.8b01176
   for GFN1-xTB:
   * S. Grimme, C. Bannwarth, P. Shushkov, J. Chem. Theory Comput., 2017,
     13, 1989-2009. DOI: 10.1021/acs.jctc.7b00118
   for GFN0-xTB:
   * P. Pracht, E. Caldeweyher, S. Ehlert, S. Grimme, ChemRxiv, 2019, preprint.
     DOI: 10.26434/chemrxiv.8326202.v1
   for GFN-FF:
   * S. Spicher and S. Grimme, Angew. Chem. Int. Ed., 2020, 59, 15665-15673.
     DOI: 10.1002/anie.202004239
   
   for DFT-D4:
   * E. Caldeweyher, C. Bannwarth and S. Grimme, J. Chem. Phys., 2017,
     147, 034112. DOI: 10.1063/1.4993215
   * E. Caldeweyher, S. Ehlert, A. Hansen, H. Neugebauer, S. Spicher,
     C. Bannwarth and S. Grimme, J. Chem. Phys., 2019, 150, 154122.
     DOI: 10.1063/1.5090222
   * E. Caldeweyher, J.-M. Mewes, S. Ehlert and S. Grimme, Phys. Chem. Chem. Phys.
     2020, 22, 8499-8512. DOI: 10.1039/D0CP00502A
   
   for sTDA-xTB:
   * S. Grimme and C. Bannwarth, J. Chem. Phys., 2016, 145, 054103.
     DOI: 10.1063/1.4959605
   
   in the mass-spec context:
   * V. Asgeirsson, C. Bauer and S. Grimme, Chem. Sci., 2017, 8, 4879.
     DOI: 10.1039/c7sc00601b
   * J. Koopman and S. Grimme, ACS Omega 2019, 4, 12, 15120-15133.
     DOI: 10.1021/acsomega.9b02011
   
   for metadynamics refer to:
   * S. Grimme, J. Chem. Theory Comput., 2019, 155, 2847-2862
     DOI: 10.1021/acs.jctc.9b00143
   
   for SPH calculations refer to:
   * S. Spicher and S. Grimme, J. Chem. Theory Comput., 2021, 17, 1701-1714
     DOI: 10.1021/acs.jctc.0c01306
   
   with help from (in alphabetical order)
   P. Atkinson, C. Bannwarth, F. Bohle, G. Brandenburg, E. Caldeweyher
   M. Checinski, S. Dohm, S. Ehlert, S. Ehrlich, I. Gerasimov, J. Koopman
   C. Lavigne, S. Lehtola, F. März, M. Müller, F. Musil, H. Neugebauer
   J. Pisarek, C. Plett, P. Pracht, J. Seibert, P. Shushkov, S. Spicher
   M. Stahn, M. Steiner, T. Strunk, J. Stückrath, T. Rose, and J. Unsleber
   
 * started run on 2022/02/27 at 11:55:00.895     

           -------------------------------------------------
          |                Calculation Setup                |
           -------------------------------------------------

          program call               : /ihome/ghutchison/oda6/xtb/xtb-641/bin/xtb ../../GFN2_output/56_100_86_28_56.mol --sp --alpb hexane
          hostname                   : smp-n24
          coordinate file            : ../../GFN2_output/56_100_86_28_56.mol
          omp threads                :                     8
          number of atoms            :                   233
          number of electrons        :                   750
          charge                     :                     0
          spin                       :                   0.0
          first test random number   :      0.12131836186725

   ID    Z sym.   atoms
    1    6 C      1-3, 5-8, 12-17, 19, 21-28, 30, 31, 33-39, 41, 42, 44, 46,
                  47, 49-59, 61-64, 68, 69, 71-81, 83, 84, 86, 87, 89, 90,
                  92-97, 99-113, 115, 116, 118-132, 134-136, 138-141,
                  145-150, 152
    2    8 O      4, 137
    3    9 F      9-11, 142-144
    4    7 N      18, 20, 65, 67, 85, 88, 98, 117, 151, 153
    5   16 S      29, 40, 45, 48, 60, 66, 70, 82, 91, 114, 133
    6   34 Se     32, 43
    7    1 H      154-233

           -------------------------------------------------
          |                 G F N 2 - x T B                 |
           -------------------------------------------------

        Reference                      10.1021/acs.jctc.8b01176
      * Hamiltonian:
        H0-scaling (s, p, d)           1.850000    2.230000    2.230000
        zeta-weighting                 0.500000
      * Dispersion:
        s8                             2.700000
        a1                             0.520000
        a2                             5.000000
        s9                             5.000000
      * Repulsion:
        kExp                           1.500000    1.000000
        rExp                           1.000000
      * Coulomb:
        alpha                          2.000000
        third order                    shell-resolved
        anisotropic                    true
        a3                             3.000000
        a5                             4.000000
        cn-shift                       1.200000
        cn-exp                         4.000000
        max-rad                        5.000000

      * Solvation model:               ALPB
        Solvent                        hexane
        Parameter file                 internal GFN2-xTB/ALPB
        Dielectric constant                1.8800E+00
        Reference state                gsolv [1 M gas/solution]
        Free energy shift                  4.8134E-03 Eh       3.0204E+00 kcal/mol
        Temperature                        2.9815E+02 K
        Density                            6.6000E-01 kg/L
        Solvent mass                       8.6180E+01 g/mol
        Interaction kernel             P16
        Born radius scaling (c1)           1.1040E+00
        Born radii integrator          GBOBC
        Born offset                        0.0000E+00 a0       0.0000E+00 AA
        H-bond correction              false
        Ion screening                  false
        Surface tension                    1.0000E-05 Eh       1.5569E+01 dyn/cm
        Grid points                               230 per atom

          ...................................................
          :                      SETUP                      :
          :.................................................:
          :  # basis functions                 770          :
          :  # atomic orbitals                 757          :
          :  # shells                          399          :
          :  # electrons                       750          :
          :  max. iterations                   250          :
          :  Hamiltonian                  GFN2-xTB          :
          :  restarted?                      false          :
          :  GBSA solvation                   true          :
          :  PC potential                    false          :
          :  electronic temp.          300.0000000     K    :
          :  accuracy                    1.0000000          :
          :  -> integral cutoff          0.2500000E+02      :
          :  -> integral neglect         0.1000000E-07      :
          :  -> SCF convergence          0.1000000E-05 Eh   :
          :  -> wf. convergence          0.1000000E-03 e    :
          :  Broyden damping             0.4000000          :
          ...................................................

 iter      E             dE          RMSdq      gap      omega  full diag
   1   -415.8294446 -0.415829E+03  0.445E+00    0.99       0.0  T
   2   -416.1960649 -0.366620E+00  0.259E+00    0.75       1.0  T
   3   -416.0769336  0.119131E+00  0.124E+00    0.43       1.0  T
   4   -416.2472133 -0.170280E+00  0.519E-01    0.52       1.0  T
   5   -416.2818170 -0.346037E-01  0.169E-01    0.38       1.0  T
   6   -416.2830099 -0.119291E-02  0.873E-02    0.43       1.0  T
   7   -416.2837976 -0.787668E-03  0.324E-02    0.41       1.0  T
   8   -416.2838522 -0.546226E-04  0.195E-02    0.42       1.0  T
   9   -416.2838749 -0.227455E-04  0.104E-02    0.42       1.0  T
  10   -416.2838786 -0.364412E-05  0.649E-03    0.42       1.0  T
  11   -416.2838803 -0.173798E-05  0.373E-03    0.42       1.8  T
  12   -416.2838806 -0.280354E-06  0.225E-03    0.42       2.9  T
  13   -416.2838809 -0.274636E-06  0.104E-03    0.42       6.3  T
  14   -416.2838809 -0.582464E-07  0.533E-04    0.42      12.3  T
  15   -416.2838810 -0.109193E-07  0.278E-04    0.42      23.5  T

   *** convergence criteria satisfied after 15 iterations ***

         #    Occupation            Energy/Eh            Energy/eV
      -------------------------------------------------------------
         1        2.0000           -0.8911511             -24.2495
       ...           ...                  ...                  ...
       369        2.0000           -0.3801261             -10.3438
       370        2.0000           -0.3768216             -10.2538
       371        2.0000           -0.3734039             -10.1608
       372        2.0000           -0.3716372             -10.1128
       373        2.0000           -0.3659444              -9.9579
       374        2.0000           -0.3601674              -9.8007
       375        1.9994           -0.3551679              -9.6646 (HOMO)
       376        0.0006           -0.3398398              -9.2475 (LUMO)
       377        0.0000           -0.3319574              -9.0330
       378                         -0.3306153              -8.9965
       379                         -0.3198670              -8.7040
       380                         -0.3043237              -8.2811
       ...                                ...                  ...
       757                          1.1577727              31.5046
      -------------------------------------------------------------
                  HL-Gap            0.0153281 Eh            0.4171 eV
             Fermi-level           -0.3475016 Eh           -9.4560 eV

 SCC (total)                   0 d,  0 h,  0 min,  7.567 sec
 SCC setup                      ...        0 min,  0.045 sec (  0.592%)
 Dispersion                     ...        0 min,  0.036 sec (  0.477%)
 classical contributions        ...        0 min,  0.002 sec (  0.022%)
 integral evaluation            ...        0 min,  0.123 sec (  1.630%)
 iterations                     ...        0 min,  7.007 sec ( 92.599%)
 molecular gradient             ...        0 min,  0.346 sec (  4.570%)
 printout                       ...        0 min,  0.008 sec (  0.109%)

         :::::::::::::::::::::::::::::::::::::::::::::::::::::
         ::                     SUMMARY                     ::
         :::::::::::::::::::::::::::::::::::::::::::::::::::::
         :: total energy            -410.069513688696 Eh    ::
         :: total w/o Gsasa/hb      -409.937284686868 Eh    ::
         :: gradient norm              0.022219344805 Eh/a0 ::
         :: HOMO-LUMO gap              0.417098100063 eV    ::
         ::.................................................::
         :: SCC energy              -416.283880953284 Eh    ::
         :: -> isotropic ES            0.247785578517 Eh    ::
         :: -> anisotropic ES          0.018861237293 Eh    ::
         :: -> anisotropic XC          0.187072490708 Eh    ::
         :: -> dispersion             -0.416939622800 Eh    ::
         :: -> Gsolv                  -0.163281758071 Eh    ::
         ::    -> Gelec               -0.031052756243 Eh    ::
         ::    -> Gsasa               -0.137042357648 Eh    ::
         ::    -> Ghb                  0.000000000000 Eh    ::
         ::    -> Gshift               0.004813355820 Eh    ::
         :: repulsion energy           6.208704326698 Eh    ::
         :: add. restraining           0.000000000000 Eh    ::
         :: total charge               0.000000000006 e     ::
         :::::::::::::::::::::::::::::::::::::::::::::::::::::

           -------------------------------------------------
          |                Property Printout                |
           -------------------------------------------------

    * Orbital Energies and Occupations

         #    Occupation            Energy/Eh            Energy/eV
      -------------------------------------------------------------
         1        2.0000           -0.8911511             -24.2495
       ...           ...                  ...                  ...
       363        2.0000           -0.3967584             -10.7963
       364        2.0000           -0.3954186             -10.7599
       365        2.0000           -0.3950449             -10.7497
       366        2.0000           -0.3922998             -10.6750
       367        2.0000           -0.3850213             -10.4770
       368        2.0000           -0.3840019             -10.4492
       369        2.0000           -0.3801261             -10.3438
       370        2.0000           -0.3768216             -10.2538
       371        2.0000           -0.3734039             -10.1608
       372        2.0000           -0.3716372             -10.1128
       373        2.0000           -0.3659444              -9.9579
       374        2.0000           -0.3601674              -9.8007
       375        1.9994           -0.3551679              -9.6646 (HOMO)
       376        0.0006           -0.3398398              -9.2475 (LUMO)
       377        0.0000           -0.3319574              -9.0330
       378                         -0.3306153              -8.9965
       379                         -0.3198670              -8.7040
       380                         -0.3043237              -8.2811
       381                         -0.2963215              -8.0633
       382                         -0.2894425              -7.8761
       383                         -0.2833961              -7.7116
       384                         -0.2753895              -7.4937
       385                         -0.2706021              -7.3635
       386                         -0.2613373              -7.1113
       ...                                ...                  ...
       757                          1.1577727              31.5046
      -------------------------------------------------------------
                  HL-Gap            0.0153281 Eh            0.4171 eV
             Fermi-level           -0.3475016 Eh           -9.4560 eV

     #   Z          covCN         q      C6AA      α(0)
     1   6 C        2.950    -0.007    28.190     8.708
     2   6 C        3.002    -0.035    28.858     8.812
     3   6 C        2.866     0.236    23.077     7.874
     4   8 O        0.856    -0.413    21.933     6.279
     5   6 C        3.048    -0.009    28.205     8.710
     6   6 C        2.914    -0.010    28.262     8.718
     7   6 C        2.979    -0.016    28.409     8.743
     8   6 C        3.336     0.496    17.152     6.559
     9   9 F        0.791    -0.211    11.346     3.979
    10   9 F        0.791    -0.216    11.400     3.988
    11   9 F        0.791    -0.211    11.345     3.979
    12   6 C        2.922    -0.014    28.360     8.733
    13   6 C        2.914    -0.022    28.543     8.761
    14   6 C        3.029     0.020    27.534     8.607
    15   6 C        3.023     0.036    27.160     8.548
    16   6 C        2.947     0.015    27.670     8.627
    17   6 C        1.941     0.131    27.869     8.525
    18   7 N        0.911    -0.255    26.622     7.462
    19   6 C        1.943     0.134    27.820     8.518
    20   7 N        0.911    -0.256    26.656     7.467
    21   6 C        2.977     0.040    27.103     8.540
    22   6 C        3.059    -0.033    28.766     8.795
    23   6 C        3.132    -0.001    27.832     8.637
    24   6 C        3.012     0.006    27.880     8.661
    25   6 C        2.972     0.005    27.914     8.666
    26   6 C        3.082    -0.039    28.863     8.807
    27   6 C        3.086    -0.053    29.212     8.860
    28   6 C        2.967     0.048    26.915     8.510
    29  16 S        2.135    -0.146   147.222    20.422
    30   6 C        3.793    -0.002    20.627     6.468
    31   6 C        3.778    -0.106    22.555     6.766
    32  34 Se       2.659    -0.053   237.515    26.854
    33   6 C        3.010     0.023    27.478     8.599
    34   6 C        3.132     0.003    27.745     8.623
    35   6 C        3.009    -0.004    28.100     8.695
    36   6 C        2.972     0.004    27.925     8.668
    37   6 C        3.085    -0.044    28.982     8.825
    38   6 C        3.084    -0.060    29.391     8.887
    39   6 C        2.968     0.045    26.990     8.522
    40  16 S        2.139    -0.160   147.820    20.463
    41   6 C        3.792     0.000    20.585     6.461
    42   6 C        3.794    -0.107    22.557     6.763
    43  34 Se       2.500    -0.037   236.972    26.823
    44   6 C        3.005     0.029    27.328     8.575
    45  16 S        2.382    -0.046   142.945    20.123
    46   6 C        3.073    -0.058    29.364     8.885
    47   6 C        3.024     0.036    27.166     8.549
    48  16 S        2.517    -0.053   143.260    20.145
    49   6 C        3.029     0.012    27.727     8.637
    50   6 C        3.106    -0.004    27.991     8.669
    51   6 C        2.976     0.011    27.760     8.642
    52   6 C        2.925    -0.035    28.859     8.810
    53   6 C        2.918    -0.029    28.728     8.789
    54   6 C        2.925    -0.035    28.862     8.810
    55   6 C        2.970     0.021    27.545     8.609
    56   6 C        3.806    -0.058    21.603     6.617
    57   6 C        3.753    -0.100    22.470     6.760
    58   6 C        2.936    -0.038    28.937     8.822
    59   6 C        3.193     0.010    27.281     8.517
    60  16 S        2.182    -0.040   142.713    20.106
    61   6 C        3.101     0.003    27.838     8.646
    62   6 C        3.079    -0.037    28.843     8.805
    63   6 C        3.338     0.069    24.073     7.764
    64   6 C        3.338     0.070    24.060     7.762
    65   7 N        1.853    -0.296    28.516     7.915
    66  16 S        2.683     0.336   128.116    19.050
    67   7 N        1.853    -0.296    28.514     7.914
    68   6 C        3.082    -0.039    28.878     8.810
    69   6 C        3.103     0.002    27.852     8.648
    70  16 S        2.178    -0.038   142.641    20.101
    71   6 C        3.202     0.010    27.224     8.501
    72   6 C        3.106    -0.002    27.936     8.660
    73   6 C        2.975     0.012    27.733     8.638
    74   6 C        2.925    -0.034    28.856     8.809
    75   6 C        2.919    -0.029    28.730     8.790
    76   6 C        2.926    -0.037    28.914     8.818
    77   6 C        2.971     0.017    27.627     8.622
    78   6 C        3.807    -0.059    21.623     6.620
    79   6 C        3.754    -0.100    22.467     6.759
    80   6 C        2.931    -0.040    28.997     8.831
    81   6 C        3.045     0.015    27.643     8.623
    82  16 S        2.329    -0.060   143.562    20.166
    83   6 C        3.117     0.005    27.754     8.629
    84   6 C        3.249     0.026    26.424     8.323
    85   7 N        2.798    -0.032    21.867     6.945
    86   6 C        3.082     0.027    27.302     8.566
    87   6 C        3.085     0.029    27.267     8.560
    88   7 N        2.794    -0.044    22.082     6.979
    89   6 C        3.256     0.028    26.269     8.287
    90   6 C        3.121     0.006    27.712     8.621
    91  16 S        2.266    -0.065   143.738    20.178
    92   6 C        3.744    -0.006    20.753     6.499
    93   6 C        3.752    -0.114    22.745     6.801
    94   6 C        3.741    -0.002    20.689     6.489
    95   6 C        3.751    -0.119    22.841     6.816
    96   6 C        3.045     0.016    27.623     8.620
    97   6 C        3.070     0.053    26.732     8.478
    98   7 N        2.745    -0.119    23.589     7.213
    99   6 C        2.939     0.062    26.600     8.459
   100   6 C        2.921    -0.044    29.097     8.846
   101   6 C        2.926    -0.041    29.014     8.833
   102   6 C        2.966     0.014    27.695     8.632
   103   6 C        3.758    -0.113    22.714     6.795
   104   6 C        2.925    -0.042    29.033     8.836
   105   6 C        2.921    -0.049    29.227     8.865
   106   6 C        2.923     0.064    26.574     8.454
   107   6 C        2.922    -0.057    29.427     8.896
   108   6 C        2.926    -0.042    29.049     8.839
   109   6 C        2.965     0.003    27.947     8.671
   110   6 C        3.757    -0.109    22.638     6.784
   111   6 C        2.926    -0.042    29.053     8.839
   112   6 C        2.923    -0.055    29.355     8.885
   113   6 C        3.184     0.017    27.183     8.509
   114  16 S        2.262    -0.041   142.732    20.108
   115   6 C        2.989     0.012    27.743     8.640
   116   6 C        3.028     0.077    26.249     8.404
   117   7 N        2.749    -0.023    21.683     6.916
   118   6 C        2.938     0.060    26.663     8.469
   119   6 C        2.920    -0.042    29.046     8.838
   120   6 C        2.925    -0.039    28.970     8.827
   121   6 C        2.966     0.021    27.542     8.608
   122   6 C        3.758    -0.115    22.762     6.802
   123   6 C        2.926    -0.037    28.927     8.820
   124   6 C        2.921    -0.036    28.905     8.816
   125   6 C        2.926     0.061    26.631     8.463
   126   6 C        2.921    -0.041    29.031     8.836
   127   6 C        2.924    -0.042    29.032     8.836
   128   6 C        2.965     0.018    27.612     8.619
   129   6 C        3.758    -0.114    22.736     6.798
   130   6 C        2.925    -0.039    28.960     8.825
   131   6 C        2.919    -0.044    29.099     8.846
   132   6 C        3.164    -0.002    27.731     8.607
   133  16 S        2.344    -0.038   142.643    20.101
   134   6 C        2.955    -0.012    28.310     8.727
   135   6 C        3.017    -0.049    29.206     8.865
   136   6 C        2.873     0.229    23.206     7.897
   137   8 O        0.856    -0.440    22.492     6.359
   138   6 C        3.050    -0.012    28.254     8.718
   139   6 C        2.915    -0.013    28.332     8.728
   140   6 C        2.979    -0.020    28.489     8.755
   141   6 C        3.336     0.496    17.154     6.559
   142   9 F        0.791    -0.211    11.351     3.980
   143   9 F        0.791    -0.211    11.354     3.980
   144   9 F        0.791    -0.219    11.435     3.994
   145   6 C        2.922    -0.018    28.455     8.748
   146   6 C        2.915    -0.023    28.571     8.765
   147   6 C        3.036     0.016    27.619     8.620
   148   6 C        3.026     0.033    27.238     8.561
   149   6 C        2.948     0.003    27.950     8.671
   150   6 C        1.936     0.130    27.915     8.532
   151   7 N        0.911    -0.272    27.035     7.520
   152   6 C        1.936     0.131    27.882     8.527
   153   7 N        0.911    -0.275    27.104     7.530
   154   1 H        0.925     0.078     2.004     2.214
   155   1 H        0.926     0.082     1.958     2.188
   156   1 H        0.926     0.079     1.991     2.207
   157   1 H        0.926     0.079     1.992     2.207
   158   1 H        0.926     0.095     1.833     2.117
   159   1 H        0.926     0.068     2.106     2.270
   160   1 H        0.926     0.050     2.317     2.380
   161   1 H        0.925     0.065     2.136     2.286
   162   1 H        0.925     0.057     2.233     2.337
   163   1 H        0.925     0.054     2.272     2.357
   164   1 H        0.925     0.050     2.318     2.381
   165   1 H        0.925     0.053     2.288     2.366
   166   1 H        0.926     0.051     2.304     2.373
   167   1 H        0.926     0.045     2.385     2.415
   168   1 H        0.925     0.053     2.283     2.363
   169   1 H        0.925     0.057     2.237     2.339
   170   1 H        0.925     0.054     2.273     2.357
   171   1 H        0.925     0.054     2.272     2.357
   172   1 H        0.925     0.055     2.253     2.347
   173   1 H        0.926     0.059     2.205     2.322
   174   1 H        0.926     0.037     2.493     2.469
   175   1 H        0.926     0.040     2.449     2.447
   176   1 H        0.926     0.043     2.412     2.429
   177   1 H        0.924     0.051     2.306     2.375
   178   1 H        0.924     0.045     2.383     2.414
   179   1 H        0.925     0.041     2.433     2.439
   180   1 H        0.925     0.038     2.471     2.458
   181   1 H        0.925     0.040     2.445     2.445
   182   1 H        0.925     0.036     2.504     2.475
   183   1 H        0.926     0.038     2.474     2.460
   184   1 H        0.926     0.039     2.466     2.456
   185   1 H        0.926     0.038     2.480     2.463
   186   1 H        0.924     0.043     2.406     2.426
   187   1 H        0.924     0.039     2.469     2.457
   188   1 H        0.925     0.038     2.472     2.459
   189   1 H        0.925     0.040     2.449     2.447
   190   1 H        0.925     0.036     2.503     2.474
   191   1 H        0.925     0.029     2.601     2.522
   192   1 H        0.925     0.078     1.996     2.209
   193   1 H        0.924     0.063     2.168     2.302
   194   1 H        0.925     0.055     2.264     2.353
   195   1 H        0.925     0.051     2.307     2.375
   196   1 H        0.925     0.046     2.368     2.407
   197   1 H        0.924     0.067     2.121     2.278
   198   1 H        0.924     0.063     2.161     2.299
   199   1 H        0.925     0.050     2.320     2.382
   200   1 H        0.925     0.062     2.171     2.304
   201   1 H        0.925     0.058     2.224     2.332
   202   1 H        0.926     0.040     2.443     2.444
   203   1 H        0.926     0.042     2.427     2.436
   204   1 H        0.925     0.051     2.310     2.377
   205   1 H        0.925     0.045     2.387     2.416
   206   1 H        0.925     0.052     2.291     2.367
   207   1 H        0.926     0.037     2.494     2.470
   208   1 H        0.926     0.033     2.538     2.491
   209   1 H        0.926     0.019     2.741     2.589
   210   1 H        0.926     0.031     2.570     2.507
   211   1 H        0.925     0.044     2.397     2.421
   212   1 H        0.925     0.041     2.440     2.443
   213   1 H        0.925     0.046     2.365     2.405
   214   1 H        0.926     0.033     2.540     2.492
   215   1 H        0.926     0.030     2.588     2.515
   216   1 H        0.926     0.040     2.447     2.446
   217   1 H        0.926     0.045     2.387     2.416
   218   1 H        0.925     0.048     2.339     2.392
   219   1 H        0.925     0.054     2.270     2.356
   220   1 H        0.925     0.057     2.238     2.339
   221   1 H        0.926     0.048     2.342     2.393
   222   1 H        0.926     0.059     2.207     2.323
   223   1 H        0.926     0.045     2.381     2.413
   224   1 H        0.926     0.043     2.412     2.429
   225   1 H        0.925     0.055     2.260     2.351
   226   1 H        0.925     0.050     2.324     2.384
   227   1 H        0.925     0.061     2.193     2.316
   228   1 H        0.926     0.048     2.343     2.394
   229   1 H        0.926     0.042     2.422     2.433
   230   1 H        0.925     0.067     2.120     2.277
   231   1 H        0.926     0.077     2.015     2.220
   232   1 H        0.926     0.075     2.027     2.227
   233   1 H        0.926     0.075     2.035     2.231

 Mol. C6AA /au·bohr⁶  :     988910.338939
 Mol. C8AA /au·bohr⁸  :   28692416.565866
 Mol. α(0) /au        :       1594.847258


Wiberg/Mayer (AO) data.
largest (>0.10) Wiberg bond orders for each atom

 ---------------------------------------------------------------------------
     #   Z sym  total        # sym  WBO       # sym  WBO       # sym  WBO
 ---------------------------------------------------------------------------
     1   6 C    3.930 --     2 C    1.493    21 C    1.281   154 H    0.944
     2   6 C    3.944 --     1 C    1.493    15 C    1.146     3 C    1.054
     3   6 C    3.913 --     4 O    1.727     2 C    1.054     5 C    1.012
     4   8 O    2.023 --     3 C    1.727
     5   6 C    3.977 --     6 C    1.425    14 C    1.302     3 C    1.012
     6   6 C    3.976 --     5 C    1.425     7 C    1.396   155 H    0.962
     7   6 C    3.957 --    12 C    1.413     6 C    1.396     8 C    0.949
     8   6 C    3.816 --     7 C    0.949    11 F    0.948     9 F    0.947
                            10 F    0.935
     9   9 F    1.070 --     8 C    0.947
    10   9 F    1.063 --     8 C    0.935
    11   9 F    1.070 --     8 C    0.948
    12   6 C    3.977 --    13 C    1.428     7 C    1.413   156 H    0.965
    13   6 C    3.972 --    12 C    1.428    14 C    1.405   157 H    0.958
    14   6 C    3.982 --    13 C    1.405     5 C    1.302    15 C    1.076
    15   6 C    3.967 --    16 C    1.484     2 C    1.146    14 C    1.076
    16   6 C    3.945 --    15 C    1.484    19 C    1.098    17 C    1.096
    17   6 C    3.944 --    18 N    2.755    16 C    1.096
    18   7 N    2.958 --    17 C    2.755
    19   6 C    3.943 --    20 N    2.759    16 C    1.098
    20   7 N    2.963 --    19 C    2.759
    21   6 C    3.929 --    22 C    1.433     1 C    1.281    45 S    1.053
    22   6 C    3.934 --    21 C    1.433    23 C    1.309   158 H    0.940
    23   6 C    3.964 --    22 C    1.309    44 C    1.223    24 C    1.216
    24   6 C    3.943 --    33 C    1.365    23 C    1.216    25 C    1.130
    25   6 C    3.946 --    26 C    1.514    24 C    1.130    32 Se   1.108
    26   6 C    3.956 --    25 C    1.514    27 C    1.290   159 H    0.952
    27   6 C    3.970 --    28 C    1.520    26 C    1.290   160 H    0.957
    28   6 C    3.918 --    27 C    1.520    32 Se   1.163    29 S    1.087
    29  16 S    2.293 --    28 C    1.087    30 C    0.968
    30   6 C    3.969 --    31 C    1.026   162 H    0.970   161 H    0.969
                            29 S    0.968
    31   6 C    3.991 --    30 C    1.026   163 H    0.986   164 H    0.983
                           165 H    0.977
    32  34 Se   2.779 --    28 C    1.163    25 C    1.108
    33   6 C    3.937 --    24 C    1.365    34 C    1.246    48 S    1.097
    34   6 C    3.958 --    46 C    1.256    33 C    1.246    35 C    1.241
    35   6 C    3.934 --    44 C    1.373    34 C    1.241    36 C    1.098
    36   6 C    3.954 --    37 C    1.538    43 Se   1.120    35 C    1.098
    37   6 C    3.975 --    36 C    1.538    38 C    1.272   166 H    0.957
                            43 Se   0.103
    38   6 C    3.976 --    39 C    1.536    37 C    1.272   167 H    0.960
    39   6 C    3.926 --    38 C    1.536    43 Se   1.157    40 S    1.085
    40  16 S    2.285 --    39 C    1.085    41 C    0.964
    41   6 C    3.970 --    42 C    1.026   168 H    0.975   169 H    0.974
                            40 S    0.964
    42   6 C    3.990 --    41 C    1.026   172 H    0.985   171 H    0.985
                           170 H    0.978
    43  34 Se   2.695 --    39 C    1.157    36 C    1.120    37 C    0.103
    44   6 C    3.940 --    35 C    1.373    23 C    1.223    45 S    1.121
    45  16 S    2.526 --    44 C    1.121    21 C    1.053
    46   6 C    3.937 --    47 C    1.505    34 C    1.256   173 H    0.953
    47   6 C    3.917 --    46 C    1.505    49 C    1.183    48 S    1.076
    48  16 S    2.586 --    33 C    1.097    47 C    1.076
    49   6 C    3.913 --    50 C    1.438    47 C    1.183    91 S    1.075
    50   6 C    3.955 --    49 C    1.438    59 C    1.267    51 C    1.026
    51   6 C    3.987 --    52 C    1.390    58 C    1.384    50 C    1.026
                            54 C    0.103
    52   6 C    3.984 --    53 C    1.441    51 C    1.390   174 H    0.970
                            55 C    0.104
    53   6 C    3.989 --    54 C    1.443    52 C    1.441   175 H    0.969
                            58 C    0.105
    54   6 C    3.985 --    53 C    1.443    55 C    1.402   176 H    0.968
                            51 C    0.103
    55   6 C    3.986 --    58 C    1.415    54 C    1.402    56 C    1.011
                            52 C    0.104
    56   6 C    3.995 --    55 C    1.011    57 C    1.000   178 H    0.966
                           177 H    0.959
    57   6 C    3.995 --    56 C    1.000   181 H    0.988   180 H    0.987
                           179 H    0.986
    58   6 C    3.988 --    55 C    1.415    51 C    1.384   182 H    0.967
                            53 C    0.105
    59   6 C    3.925 --    90 C    1.345    50 C    1.267    60 S    1.096
    60  16 S    2.512 --    61 C    1.112    59 C    1.096
    61   6 C    3.922 --    89 C    1.320    62 C    1.257    60 S    1.112
    62   6 C    3.958 --    87 C    1.283    61 C    1.257    63 C    1.175
    63   6 C    3.972 --    67 N    1.424    62 C    1.175    64 C    1.162
                            66 S    0.104
    64   6 C    3.972 --    65 N    1.425    68 C    1.174    63 C    1.162
                            66 S    0.104
    65   7 N    3.063 --    64 C    1.425    66 S    1.386    67 N    0.145
    66  16 S    3.100 --    67 N    1.387    65 N    1.386    63 C    0.104
                            64 C    0.104
    67   7 N    3.063 --    63 C    1.424    66 S    1.387    65 N    0.145
    68   6 C    3.956 --    86 C    1.276    69 C    1.263    64 C    1.174
    69   6 C    3.925 --    84 C    1.316    68 C    1.263    70 S    1.111
    70  16 S    2.519 --    69 C    1.111    71 C    1.097
    71   6 C    3.925 --    83 C    1.351    72 C    1.256    70 S    1.097
    72   6 C    3.963 --    81 C    1.444    71 C    1.256    73 C    1.032
    73   6 C    3.986 --    80 C    1.391    74 C    1.387    72 C    1.032
                            76 C    0.102
    74   6 C    3.987 --    75 C    1.445    73 C    1.387   183 H    0.969
                            77 C    0.105
    75   6 C    3.990 --    74 C    1.445    76 C    1.440   184 H    0.970
                            80 C    0.106
    76   6 C    3.985 --    75 C    1.440    77 C    1.406   185 H    0.969
                            73 C    0.102
    77   6 C    3.987 --    80 C    1.418    76 C    1.406    78 C    1.012
                            74 C    0.105
    78   6 C    3.996 --    77 C    1.012    79 C    1.000   187 H    0.974
                           186 H    0.972
    79   6 C    3.996 --    78 C    1.000   190 H    0.988   188 H    0.988
                           189 H    0.986
    80   6 C    3.988 --    77 C    1.418    73 C    1.391   191 H    0.968
                            75 C    0.106
    81   6 C    3.913 --    72 C    1.444    96 C    1.164    82 S    1.078
    82  16 S    2.543 --    83 C    1.114    81 C    1.078
    83   6 C    3.926 --    71 C    1.351    84 C    1.238    82 S    1.114
    84   6 C    3.938 --    69 C    1.316    83 C    1.238    85 N    1.156
    85   7 N    3.555 --    86 C    1.170    84 C    1.156    94 C    0.979
    86   6 C    3.935 --    68 C    1.276    87 C    1.222    85 N    1.170
    87   6 C    3.934 --    62 C    1.283    86 C    1.222    88 N    1.160
    88   7 N    3.532 --    87 C    1.160    89 C    1.148    92 C    0.975
    89   6 C    3.940 --    61 C    1.320    90 C    1.245    88 N    1.148
    90   6 C    3.927 --    59 C    1.345    89 C    1.245    91 S    1.114
    91  16 S    2.524 --    90 C    1.114    49 C    1.075
    92   6 C    3.959 --    93 C    1.005    88 N    0.975   193 H    0.967
                           192 H    0.958
    93   6 C    3.989 --    92 C    1.005   196 H    0.987   195 H    0.984
                           194 H    0.983
    94   6 C    3.961 --    95 C    1.008    85 N    0.979   197 H    0.966
                           198 H    0.964
    95   6 C    3.987 --    94 C    1.008   201 H    0.983   199 H    0.978
                           200 H    0.978
    96   6 C    3.913 --    97 C    1.437    81 C    1.164   133 S    1.111
    97   6 C    3.953 --    96 C    1.437   113 C    1.247    98 N    1.012
    98   7 N    3.372 --   106 C    1.081    97 C    1.012    99 C    0.993
    99   6 C    3.963 --   105 C    1.399   100 C    1.378    98 N    0.993
                           102 C    0.100
   100   6 C    3.989 --   101 C    1.463    99 C    1.378   202 H    0.966
                           104 C    0.106
   101   6 C    3.989 --   100 C    1.463   102 C    1.396   203 H    0.969
                           105 C    0.106
   102   6 C    3.984 --   104 C    1.416   101 C    1.396   103 C    1.027
                            99 C    0.100
   103   6 C    3.995 --   102 C    1.027   205 H    0.985   204 H    0.974
                           206 H    0.969
   104   6 C    3.990 --   105 C    1.442   102 C    1.416   207 H    0.968
                           100 C    0.106
   105   6 C    3.988 --   104 C    1.442    99 C    1.399   208 H    0.964
                           101 C    0.106
   106   6 C    3.965 --   107 C    1.364   112 C    1.347    98 N    1.081
   107   6 C    3.985 --   108 C    1.446   106 C    1.364   209 H    0.965
                           111 C    0.103
   108   6 C    3.990 --   107 C    1.446   109 C    1.413   210 H    0.969
                           112 C    0.103
   109   6 C    3.982 --   108 C    1.413   111 C    1.391   110 C    1.024
   110   6 C    3.996 --   109 C    1.024   212 H    0.986   211 H    0.977
                           213 H    0.971
   111   6 C    3.990 --   112 C    1.470   109 C    1.391   214 H    0.970
                           107 C    0.103
   112   6 C    3.986 --   111 C    1.470   106 C    1.347   215 H    0.966
                           108 C    0.103
   113   6 C    3.934 --   132 C    1.348    97 C    1.247   114 S    1.124
   114  16 S    2.492 --   113 C    1.124   115 C    1.050
   115   6 C    3.921 --   134 C    1.389   116 C    1.255   114 S    1.050
   116   6 C    3.955 --   115 C    1.255   132 C    1.246   117 N    1.198
   117   7 N    3.572 --   116 C    1.198   125 C    1.046   118 C    1.008
   118   6 C    3.956 --   119 C    1.384   124 C    1.368   117 N    1.008
   119   6 C    3.977 --   120 C    1.450   118 C    1.384   216 H    0.968
                           123 C    0.105
   120   6 C    3.989 --   119 C    1.450   121 C    1.407   217 H    0.968
                           124 C    0.103
   121   6 C    3.974 --   120 C    1.407   123 C    1.397   122 C    1.029
   122   6 C    3.994 --   121 C    1.029   218 H    0.985   219 H    0.973
                           220 H    0.967
   123   6 C    3.989 --   124 C    1.460   121 C    1.397   221 H    0.968
                           119 C    0.105
   124   6 C    3.982 --   123 C    1.460   118 C    1.368   222 H    0.964
                           120 C    0.103
   125   6 C    3.961 --   126 C    1.365   131 C    1.355   117 N    1.046
   126   6 C    3.981 --   127 C    1.444   125 C    1.365   223 H    0.966
   127   6 C    3.990 --   126 C    1.444   128 C    1.413   224 H    0.968
                           131 C    0.102
   128   6 C    3.979 --   127 C    1.413   130 C    1.382   129 C    1.031
   129   6 C    3.994 --   128 C    1.031   226 H    0.985   227 H    0.968
                           225 H    0.967
   130   6 C    3.988 --   131 C    1.475   128 C    1.382   228 H    0.968
   131   6 C    3.986 --   130 C    1.475   125 C    1.355   229 H    0.967
                           127 C    0.102
   132   6 C    3.927 --   113 C    1.348   116 C    1.246   133 S    1.099
   133  16 S    2.563 --    96 C    1.111   132 C    1.099
   134   6 C    3.950 --   115 C    1.389   135 C    1.387   230 H    0.948
   135   6 C    3.955 --   134 C    1.387   148 C    1.197   136 C    1.074
   136   6 C    3.930 --   137 O    1.690   135 C    1.074   138 C    1.000
   137   8 O    1.996 --   136 C    1.690
   138   6 C    3.978 --   139 C    1.438   147 C    1.302   136 C    1.000
   139   6 C    3.977 --   138 C    1.438   140 C    1.384   231 H    0.963
   140   6 C    3.957 --   145 C    1.424   139 C    1.384   141 C    0.950
   141   6 C    3.814 --   140 C    0.950   142 F    0.948   143 F    0.947
                           144 F    0.932
   142   9 F    1.070 --   141 C    0.948
   143   9 F    1.069 --   141 C    0.947
   144   9 F    1.059 --   141 C    0.932
   145   6 C    3.977 --   140 C    1.424   146 C    1.417   232 H    0.965
   146   6 C    3.973 --   147 C    1.418   145 C    1.417   233 H    0.959
   147   6 C    3.985 --   146 C    1.418   138 C    1.302   148 C    1.066
   148   6 C    3.973 --   149 C    1.441   135 C    1.197   147 C    1.066
   149   6 C    3.958 --   148 C    1.441   152 C    1.111   150 C    1.105
   150   6 C    3.944 --   151 N    2.748   149 C    1.105
   151   7 N    2.959 --   150 C    2.748
   152   6 C    3.942 --   153 N    2.743   149 C    1.111
   153   7 N    2.950 --   152 C    2.743
   154   1 H    0.992 --     1 C    0.944
   155   1 H    0.993 --     6 C    0.962
   156   1 H    0.993 --    12 C    0.965
   157   1 H    0.993 --    13 C    0.958
   158   1 H    0.990 --    22 C    0.940
   159   1 H    0.995 --    26 C    0.952
   160   1 H    0.997 --    27 C    0.957
   161   1 H    0.994 --    30 C    0.969
   162   1 H    0.996 --    30 C    0.970
   163   1 H    0.997 --    31 C    0.986
   164   1 H    0.997 --    31 C    0.983
   165   1 H    0.997 --    31 C    0.977
   166   1 H    0.997 --    37 C    0.957
   167   1 H    0.997 --    38 C    0.960
   168   1 H    0.997 --    41 C    0.975
   169   1 H    0.997 --    41 C    0.974
   170   1 H    0.996 --    42 C    0.978
   171   1 H    0.997 --    42 C    0.985
   172   1 H    0.997 --    42 C    0.985
   173   1 H    0.995 --    46 C    0.953
   174   1 H    0.998 --    52 C    0.970
   175   1 H    0.997 --    53 C    0.969
   176   1 H    0.998 --    54 C    0.968
   177   1 H    0.997 --    56 C    0.959
   178   1 H    0.998 --    56 C    0.966
   179   1 H    0.997 --    57 C    0.986
   180   1 H    0.998 --    57 C    0.987
   181   1 H    0.998 --    57 C    0.988
   182   1 H    0.999 --    58 C    0.967
   183   1 H    0.998 --    74 C    0.969
   184   1 H    0.997 --    75 C    0.970
   185   1 H    0.998 --    76 C    0.969
   186   1 H    0.998 --    78 C    0.972
   187   1 H    0.998 --    78 C    0.974
   188   1 H    0.999 --    79 C    0.988
   189   1 H    0.997 --    79 C    0.986
   190   1 H    0.999 --    79 C    0.988
   191   1 H    0.999 --    80 C    0.968
   192   1 H    0.993 --    92 C    0.958
   193   1 H    0.994 --    92 C    0.967
   194   1 H    0.996 --    93 C    0.983
   195   1 H    0.997 --    93 C    0.984
   196   1 H    0.998 --    93 C    0.987
   197   1 H    0.995 --    94 C    0.966
   198   1 H    0.994 --    94 C    0.964
   199   1 H    0.997 --    95 C    0.978
   200   1 H    0.996 --    95 C    0.978
   201   1 H    0.996 --    95 C    0.983
   202   1 H    0.998 --   100 C    0.966
   203   1 H    0.998 --   101 C    0.969
   204   1 H    0.997 --   103 C    0.974
   205   1 H    0.998 --   103 C    0.985
   206   1 H    0.996 --   103 C    0.969
   207   1 H    0.998 --   104 C    0.968
   208   1 H    0.999 --   105 C    0.964
   209   1 H    0.999 --   107 C    0.965
   210   1 H    0.999 --   108 C    0.969
   211   1 H    0.997 --   110 C    0.977
   212   1 H    0.998 --   110 C    0.986
   213   1 H    0.996 --   110 C    0.971
   214   1 H    0.998 --   111 C    0.970
   215   1 H    0.999 --   112 C    0.966
   216   1 H    0.998 --   119 C    0.968
   217   1 H    0.997 --   120 C    0.968
   218   1 H    0.997 --   122 C    0.985
   219   1 H    0.996 --   122 C    0.973
   220   1 H    0.995 --   122 C    0.967
   221   1 H    0.997 --   123 C    0.968
   222   1 H    0.996 --   124 C    0.964
   223   1 H    0.998 --   126 C    0.966
   224   1 H    0.998 --   127 C    0.968
   225   1 H    0.995 --   129 C    0.967
   226   1 H    0.997 --   129 C    0.985
   227   1 H    0.994 --   129 C    0.968
   228   1 H    0.997 --   130 C    0.968
   229   1 H    0.998 --   131 C    0.967
   230   1 H    0.992 --   134 C    0.948
   231   1 H    0.994 --   139 C    0.963
   232   1 H    0.994 --   145 C    0.965
   233   1 H    0.994 --   146 C    0.959
 ---------------------------------------------------------------------------

Topologies differ in bond orders
Writing corrected topology to xtbtopo.mol

molecular dipole:
                 x           y           z       tot (Debye)
 q only:        1.041      -1.532       3.657
   full:        0.813      -0.637       3.214       8.581
molecular quadrupole (traceless):
                xx          xy          yy          xz          yz          zz
 q only:     -189.033     -82.750     118.539      49.695      27.351      70.494
  q+dip:     -167.394     -67.859     127.422      55.103      -1.165      39.972
   full:     -165.172     -72.713     124.204      58.625      -0.210      40.969


           -------------------------------------------------
          | TOTAL ENERGY             -410.069513688696 Eh   |
          | GRADIENT NORM               0.022219344805 Eh/α |
          | HOMO-LUMO GAP               0.417098100063 eV   |
           -------------------------------------------------

------------------------------------------------------------------------
 * finished run on 2022/02/27 at 11:55:08.929     
------------------------------------------------------------------------
 total:
 * wall-time:     0 d,  0 h,  0 min,  8.033 sec
 *  cpu-time:     0 d,  0 h,  0 min, 31.936 sec
 * ratio c/w:     3.975 speedup
 SCF:
 * wall-time:     0 d,  0 h,  0 min,  7.570 sec
 *  cpu-time:     0 d,  0 h,  0 min, 30.476 sec
 * ratio c/w:     4.026 speedup

