      -----------------------------------------------------------      
     |                   =====================                   |     
     |                           x T B                           |     
     |                   =====================                   |     
     |                         S. Grimme                         |     
     |          Mulliken Center for Theoretical Chemistry        |     
     |                    University of Bonn                     |     
      -----------------------------------------------------------      

   * xtb version 6.4.1 (unknown) compiled by 'oda6@login1.crc.pitt.edu' on 2021-06-25

   xtb is free software: you can redistribute it and/or modify it under
   the terms of the GNU Lesser General Public License as published by
   the Free Software Foundation, either version 3 of the License, or
   (at your option) any later version.
   
   xtb is distributed in the hope that it will be useful,
   but WITHOUT ANY WARRANTY; without even the implied warranty of
   MERCHANTABILITY or FITNESS FOR A PARTICULAR PURPOSE.  See the
   GNU Lesser General Public License for more details.
   
   Cite this work as:
   * C. Bannwarth, E. Caldeweyher, S. Ehlert, A. Hansen, P. Pracht,
     J. Seibert, S. Spicher, S. Grimme, WIREs Comput. Mol. Sci., 2020, 11,
     e01493. DOI: 10.1002/wcms.1493
   
   for GFN2-xTB:
   * C. Bannwarth, S. Ehlert and S. Grimme., J. Chem. Theory Comput., 2019,
     15, 1652-1671. DOI: 10.1021/acs.jctc.8b01176
   for GFN1-xTB:
   * S. Grimme, C. Bannwarth, P. Shushkov, J. Chem. Theory Comput., 2017,
     13, 1989-2009. DOI: 10.1021/acs.jctc.7b00118
   for GFN0-xTB:
   * P. Pracht, E. Caldeweyher, S. Ehlert, S. Grimme, ChemRxiv, 2019, preprint.
     DOI: 10.26434/chemrxiv.8326202.v1
   for GFN-FF:
   * S. Spicher and S. Grimme, Angew. Chem. Int. Ed., 2020, 59, 15665-15673.
     DOI: 10.1002/anie.202004239
   
   for DFT-D4:
   * E. Caldeweyher, C. Bannwarth and S. Grimme, J. Chem. Phys., 2017,
     147, 034112. DOI: 10.1063/1.4993215
   * E. Caldeweyher, S. Ehlert, A. Hansen, H. Neugebauer, S. Spicher,
     C. Bannwarth and S. Grimme, J. Chem. Phys., 2019, 150, 154122.
     DOI: 10.1063/1.5090222
   * E. Caldeweyher, J.-M. Mewes, S. Ehlert and S. Grimme, Phys. Chem. Chem. Phys.
     2020, 22, 8499-8512. DOI: 10.1039/D0CP00502A
   
   for sTDA-xTB:
   * S. Grimme and C. Bannwarth, J. Chem. Phys., 2016, 145, 054103.
     DOI: 10.1063/1.4959605
   
   in the mass-spec context:
   * V. Asgeirsson, C. Bauer and S. Grimme, Chem. Sci., 2017, 8, 4879.
     DOI: 10.1039/c7sc00601b
   * J. Koopman and S. Grimme, ACS Omega 2019, 4, 12, 15120-15133.
     DOI: 10.1021/acsomega.9b02011
   
   for metadynamics refer to:
   * S. Grimme, J. Chem. Theory Comput., 2019, 155, 2847-2862
     DOI: 10.1021/acs.jctc.9b00143
   
   for SPH calculations refer to:
   * S. Spicher and S. Grimme, J. Chem. Theory Comput., 2021, 17, 1701-1714
     DOI: 10.1021/acs.jctc.0c01306
   
   with help from (in alphabetical order)
   P. Atkinson, C. Bannwarth, F. Bohle, G. Brandenburg, E. Caldeweyher
   M. Checinski, S. Dohm, S. Ehlert, S. Ehrlich, I. Gerasimov, J. Koopman
   C. Lavigne, S. Lehtola, F. März, M. Müller, F. Musil, H. Neugebauer
   J. Pisarek, C. Plett, P. Pracht, J. Seibert, P. Shushkov, S. Spicher
   M. Stahn, M. Steiner, T. Strunk, J. Stückrath, T. Rose, and J. Unsleber
   
 * started run on 2022/02/05 at 15:57:34.406     

           -------------------------------------------------
          |                Calculation Setup                |
           -------------------------------------------------

          program call               : /ihome/ghutchison/oda6/xtb/xtb-641/bin/xtb ../../GFN2_output/62_50_86_41_49.mol --sp --alpb hexane
          hostname                   : smp-n29
          coordinate file            : ../../GFN2_output/62_50_86_41_49.mol
          omp threads                :                     8
          number of atoms            :                   141
          number of electrons        :                   488
          charge                     :                     0
          spin                       :                   0.0
          first test random number   :      0.56776993547587

   ID    Z sym.   atoms
    1    6 C      1-3, 5-9, 11, 13-15, 17, 19-21, 23-25, 27-37, 39-42, 46,
                  47, 49-59, 61, 62, 64, 65, 67, 68, 70-75, 77, 79, 80, 82,
                  84-86, 88-91, 93-97, 99
    2    8 O      4, 87
    3   35 Br     10, 92
    4   17 Cl     12
    5    7 N      16, 18, 43, 45, 63, 66, 98, 100
    6   16 S      22, 26, 38, 44, 48, 60, 69
    7    9 F      76, 78, 81, 83
    8    1 H      101-141

           -------------------------------------------------
          |                 G F N 2 - x T B                 |
           -------------------------------------------------

        Reference                      10.1021/acs.jctc.8b01176
      * Hamiltonian:
        H0-scaling (s, p, d)           1.850000    2.230000    2.230000
        zeta-weighting                 0.500000
      * Dispersion:
        s8                             2.700000
        a1                             0.520000
        a2                             5.000000
        s9                             5.000000
      * Repulsion:
        kExp                           1.500000    1.000000
        rExp                           1.000000
      * Coulomb:
        alpha                          2.000000
        third order                    shell-resolved
        anisotropic                    true
        a3                             3.000000
        a5                             4.000000
        cn-shift                       1.200000
        cn-exp                         4.000000
        max-rad                        5.000000

      * Solvation model:               ALPB
        Solvent                        hexane
        Parameter file                 internal GFN2-xTB/ALPB
        Dielectric constant                1.8800E+00
        Reference state                gsolv [1 M gas/solution]
        Free energy shift                  4.8134E-03 Eh       3.0204E+00 kcal/mol
        Temperature                        2.9815E+02 K
        Density                            6.6000E-01 kg/L
        Solvent mass                       8.6180E+01 g/mol
        Interaction kernel             P16
        Born radius scaling (c1)           1.1040E+00
        Born radii integrator          GBOBC
        Born offset                        0.0000E+00 a0       0.0000E+00 AA
        H-bond correction              false
        Ion screening                  false
        Surface tension                    1.0000E-05 Eh       1.5569E+01 dyn/cm
        Grid points                               230 per atom

          ...................................................
          :                      SETUP                      :
          :.................................................:
          :  # basis functions                 501          :
          :  # atomic orbitals                 491          :
          :  # shells                          251          :
          :  # electrons                       488          :
          :  max. iterations                   250          :
          :  Hamiltonian                  GFN2-xTB          :
          :  restarted?                      false          :
          :  GBSA solvation                   true          :
          :  PC potential                    false          :
          :  electronic temp.          300.0000000     K    :
          :  accuracy                    1.0000000          :
          :  -> integral cutoff          0.2500000E+02      :
          :  -> integral neglect         0.1000000E-07      :
          :  -> SCF convergence          0.1000000E-05 Eh   :
          :  -> wf. convergence          0.1000000E-03 e    :
          :  Broyden damping             0.4000000          :
          ...................................................

 iter      E             dE          RMSdq      gap      omega  full diag
   1   -273.1909309 -0.273191E+03  0.483E+00    1.15       0.0  T
   2   -273.4252746 -0.234344E+00  0.287E+00    0.65       1.0  T
   3   -273.3315735  0.937011E-01  0.146E+00    0.46       1.0  T
   4   -273.4905305 -0.158957E+00  0.526E-01    0.45       1.0  T
   5   -273.5103555 -0.198250E-01  0.209E-01    0.37       1.0  T
   6   -273.5113874 -0.103192E-02  0.131E-01    0.46       1.0  T
   7   -273.5122403 -0.852913E-03  0.789E-02    0.44       1.0  T
   8   -273.5124973 -0.256969E-03  0.590E-02    0.44       1.0  T
   9   -273.5125856 -0.882947E-04  0.428E-02    0.43       1.0  T
  10   -273.5126641 -0.785678E-04  0.253E-02    0.43       1.0  T
  11   -273.5126963 -0.321815E-04  0.130E-02    0.43       1.0  T
  12   -273.5127032 -0.686681E-05  0.693E-03    0.43       1.2  T
  13   -273.5127052 -0.196187E-05  0.412E-03    0.44       2.0  T
  14   -273.5127057 -0.557454E-06  0.270E-03    0.43       3.1  T
  15   -273.5127059 -0.202969E-06  0.192E-03    0.43       4.4  T
  16   -273.5127060 -0.128531E-06  0.114E-03    0.43       7.4  T
  17   -273.5127061 -0.594213E-07  0.656E-04    0.43      12.8  T
  18   -273.5127061 -0.124388E-07  0.382E-04    0.43      22.0  T

   *** convergence criteria satisfied after 18 iterations ***

         #    Occupation            Energy/Eh            Energy/eV
      -------------------------------------------------------------
         1        2.0000           -1.0799425             -29.3867
       ...           ...                  ...                  ...
       238        2.0000           -0.4026521             -10.9567
       239        2.0000           -0.4006385             -10.9019
       240        2.0000           -0.3907123             -10.6318
       241        2.0000           -0.3857447             -10.4966
       242        2.0000           -0.3786555             -10.3037
       243        2.0000           -0.3780277             -10.2867
       244        1.9996           -0.3681462             -10.0178 (HOMO)
       245        0.0004           -0.3521704              -9.5830 (LUMO)
       246                         -0.3408206              -9.2742
       247                         -0.3402435              -9.2585
       248                         -0.3302497              -8.9866
       249                         -0.3049754              -8.2988
       ...                                ...                  ...
       491                          1.1508096              31.3151
      -------------------------------------------------------------
                  HL-Gap            0.0159758 Eh            0.4347 eV
             Fermi-level           -0.3601583 Eh           -9.8004 eV

 SCC (total)                   0 d,  0 h,  0 min,  0.498 sec
 SCC setup                      ...        0 min,  0.004 sec (  0.756%)
 Dispersion                     ...        0 min,  0.005 sec (  0.993%)
 classical contributions        ...        0 min,  0.000 sec (  0.036%)
 integral evaluation            ...        0 min,  0.022 sec (  4.431%)
 iterations                     ...        0 min,  0.410 sec ( 82.337%)
 molecular gradient             ...        0 min,  0.055 sec ( 11.052%)
 printout                       ...        0 min,  0.002 sec (  0.380%)

         :::::::::::::::::::::::::::::::::::::::::::::::::::::
         ::                     SUMMARY                     ::
         :::::::::::::::::::::::::::::::::::::::::::::::::::::
         :: total energy            -269.592799830963 Eh    ::
         :: total w/o Gsasa/hb      -269.501971522741 Eh    ::
         :: gradient norm              0.020842326486 Eh/a0 ::
         :: HOMO-LUMO gap              0.434722958398 eV    ::
         ::.................................................::
         :: SCC energy              -273.512706112594 Eh    ::
         :: -> isotropic ES            0.192838800954 Eh    ::
         :: -> anisotropic ES          0.009827001691 Eh    ::
         :: -> anisotropic XC          0.130003674246 Eh    ::
         :: -> dispersion             -0.241365851802 Eh    ::
         :: -> Gsolv                  -0.119163376372 Eh    ::
         ::    -> Gelec               -0.028335068149 Eh    ::
         ::    -> Gsasa               -0.095641664042 Eh    ::
         ::    -> Ghb                  0.000000000000 Eh    ::
         ::    -> Gshift               0.004813355820 Eh    ::
         :: repulsion energy           3.920354663281 Eh    ::
         :: add. restraining           0.000000000000 Eh    ::
         :: total charge               0.000000000000 e     ::
         :::::::::::::::::::::::::::::::::::::::::::::::::::::

           -------------------------------------------------
          |                Property Printout                |
           -------------------------------------------------

    * Orbital Energies and Occupations

         #    Occupation            Energy/Eh            Energy/eV
      -------------------------------------------------------------
         1        2.0000           -1.0799425             -29.3867
       ...           ...                  ...                  ...
       232        2.0000           -0.4152822             -11.3004
       233        2.0000           -0.4149564             -11.2915
       234        2.0000           -0.4134272             -11.2499
       235        2.0000           -0.4106540             -11.1745
       236        2.0000           -0.4063285             -11.0568
       237        2.0000           -0.4049752             -11.0199
       238        2.0000           -0.4026521             -10.9567
       239        2.0000           -0.4006385             -10.9019
       240        2.0000           -0.3907123             -10.6318
       241        2.0000           -0.3857447             -10.4966
       242        2.0000           -0.3786555             -10.3037
       243        2.0000           -0.3780277             -10.2867
       244        1.9996           -0.3681462             -10.0178 (HOMO)
       245        0.0004           -0.3521704              -9.5830 (LUMO)
       246                         -0.3408206              -9.2742
       247                         -0.3402435              -9.2585
       248                         -0.3302497              -8.9866
       249                         -0.3049754              -8.2988
       250                         -0.2970592              -8.0834
       251                         -0.2897636              -7.8849
       252                         -0.2790936              -7.5945
       253                         -0.2770672              -7.5394
       254                         -0.2727549              -7.4220
       255                         -0.2632334              -7.1629
       ...                                ...                  ...
       491                          1.1508096              31.3151
      -------------------------------------------------------------
                  HL-Gap            0.0159758 Eh            0.4347 eV
             Fermi-level           -0.3601583 Eh           -9.8004 eV

     #   Z          covCN         q      C6AA      α(0)
     1   6 C        2.919    -0.014    28.359     8.733
     2   6 C        3.009    -0.039    28.945     8.825
     3   6 C        2.873     0.236    23.079     7.875
     4   8 O        0.970    -0.387    21.360     6.199
     5   6 C        3.079    -0.026    28.567     8.763
     6   6 C        3.035     0.012    27.712     8.635
     7   6 C        2.914    -0.030    28.747     8.792
     8   6 C        3.003    -0.025    28.618     8.775
     9   6 C        2.945     0.082    26.180     8.392
    10  35 Br       1.144    -0.126   188.527    22.139
    11   6 C        2.947     0.106    25.648     8.306
    12  17 Cl       1.027    -0.109   102.553    15.493
    13   6 C        3.020     0.036    27.164     8.549
    14   6 C        2.947     0.011    27.759     8.641
    15   6 C        1.946     0.133    27.836     8.520
    16   7 N        0.911    -0.259    26.729     7.477
    17   6 C        1.945     0.133    27.826     8.519
    18   7 N        0.911    -0.266    26.879     7.498
    19   6 C        2.977     0.027    27.401     8.586
    20   6 C        3.119    -0.050    29.067     8.830
    21   6 C        3.102     0.041    26.952     8.507
    22  16 S        2.025    -0.180   148.683    20.523
    23   6 C        3.793    -0.002    20.630     6.468
    24   6 C        3.776    -0.106    22.546     6.765
    25   6 C        3.074     0.015    27.597     8.613
    26  16 S        2.441     0.042   139.343    19.868
    27   6 C        3.045     0.016    27.612     8.618
    28   6 C        3.101     0.000    27.901     8.656
    29   6 C        2.977     0.015    27.682     8.630
    30   6 C        2.925    -0.035    28.863     8.810
    31   6 C        2.917    -0.030    28.738     8.791
    32   6 C        2.925    -0.036    28.903     8.816
    33   6 C        2.970     0.020    27.563     8.612
    34   6 C        3.807    -0.061    21.669     6.627
    35   6 C        3.754    -0.102    22.504     6.764
    36   6 C        2.931    -0.038    28.947     8.823
    37   6 C        3.191     0.011    27.281     8.519
    38  16 S        2.185    -0.033   142.411    20.085
    39   6 C        3.099     0.003    27.836     8.646
    40   6 C        3.081    -0.036    28.811     8.800
    41   6 C        3.339     0.069    24.049     7.758
    42   6 C        3.339     0.070    24.037     7.756
    43   7 N        1.854    -0.296    28.519     7.915
    44  16 S        2.684     0.340   127.939    19.037
    45   7 N        1.854    -0.295    28.508     7.914
    46   6 C        3.084    -0.038    28.853     8.806
    47   6 C        3.103     0.002    27.849     8.647
    48  16 S        2.179    -0.027   142.171    20.068
    49   6 C        3.193     0.009    27.298     8.520
    50   6 C        3.109     0.002    27.828     8.643
    51   6 C        2.974     0.013    27.721     8.636
    52   6 C        2.924    -0.033    28.822     8.804
    53   6 C        2.918    -0.029    28.723     8.789
    54   6 C        2.925    -0.036    28.905     8.817
    55   6 C        2.969     0.016    27.657     8.626
    56   6 C        3.807    -0.060    21.648     6.623
    57   6 C        3.754    -0.099    22.445     6.756
    58   6 C        2.931    -0.046    29.149     8.854
    59   6 C        3.009     0.019    27.566     8.613
    60  16 S        2.247    -0.019   141.820    20.043
    61   6 C        3.122     0.003    27.777     8.631
    62   6 C        3.249     0.027    26.392     8.317
    63   7 N        2.799    -0.029    21.800     6.934
    64   6 C        3.079     0.029    27.271     8.561
    65   6 C        3.082     0.030    27.238     8.556
    66   7 N        2.794    -0.042    22.044     6.973
    67   6 C        3.259     0.030    26.202     8.272
    68   6 C        3.122     0.007    27.685     8.617
    69  16 S        2.297    -0.042   142.779    20.111
    70   6 C        3.746    -0.008    20.782     6.503
    71   6 C        3.752    -0.113    22.730     6.799
    72   6 C        3.741    -0.003    20.703     6.492
    73   6 C        3.751    -0.120    22.858     6.818
    74   6 C        2.996    -0.003    28.094     8.695
    75   6 C        2.783     0.154    24.650     8.132
    76   9 F        0.787    -0.193    11.165     3.947
    77   6 C        2.783     0.158    24.577     8.120
    78   9 F        0.787    -0.193    11.162     3.946
    79   6 C        2.974    -0.003    28.086     8.693
    80   6 C        2.783     0.167    24.379     8.087
    81   9 F        0.787    -0.194    11.170     3.948
    82   6 C        2.782     0.154    24.654     8.133
    83   9 F        0.787    -0.191    11.147     3.944
    84   6 C        2.901     0.012    27.739     8.636
    85   6 C        3.007    -0.013    28.317     8.729
    86   6 C        2.863     0.245    22.900     7.844
    87   8 O        0.856    -0.398    21.641     6.237
    88   6 C        3.038    -0.013    28.307     8.727
    89   6 C        2.915    -0.009    28.236     8.713
    90   6 C        2.998    -0.024    28.592     8.771
    91   6 C        2.918     0.101    25.767     8.324
    92  35 Br       1.081    -0.140   188.898    22.160
    93   6 C        2.993    -0.029    28.723     8.791
    94   6 C        3.034     0.018    27.572     8.613
    95   6 C        3.011     0.043    27.014     8.526
    96   6 C        2.947     0.027    27.406     8.586
    97   6 C        1.936     0.134    27.809     8.516
    98   7 N        0.911    -0.238    26.215     7.405
    99   6 C        1.937     0.137    27.757     8.508
   100   7 N        0.911    -0.237    26.193     7.402
   101   1 H        0.925     0.076     2.016     2.220
   102   1 H        0.926     0.082     1.958     2.188
   103   1 H        0.926     0.091     1.874     2.141
   104   1 H        0.926     0.065     2.138     2.287
   105   1 H        0.925     0.057     2.232     2.336
   106   1 H        0.925     0.064     2.149     2.293
   107   1 H        0.925     0.046     2.373     2.409
   108   1 H        0.925     0.053     2.277     2.360
   109   1 H        0.925     0.053     2.288     2.365
   110   1 H        0.926     0.028     2.616     2.529
   111   1 H        0.926     0.038     2.481     2.463
   112   1 H        0.926     0.040     2.446     2.446
   113   1 H        0.924     0.041     2.435     2.440
   114   1 H        0.924     0.043     2.409     2.427
   115   1 H        0.925     0.041     2.429     2.437
   116   1 H        0.925     0.037     2.487     2.466
   117   1 H        0.925     0.041     2.439     2.442
   118   1 H        0.926     0.048     2.340     2.392
   119   1 H        0.926     0.046     2.368     2.406
   120   1 H        0.926     0.043     2.415     2.430
   121   1 H        0.926     0.040     2.447     2.446
   122   1 H        0.924     0.038     2.473     2.459
   123   1 H        0.924     0.042     2.419     2.432
   124   1 H        0.925     0.038     2.474     2.460
   125   1 H        0.925     0.039     2.468     2.457
   126   1 H        0.925     0.038     2.469     2.457
   127   1 H        0.926     0.030     2.589     2.516
   128   1 H        0.924     0.065     2.137     2.286
   129   1 H        0.925     0.080     1.983     2.202
   130   1 H        0.925     0.046     2.373     2.409
   131   1 H        0.925     0.056     2.247     2.344
   132   1 H        0.925     0.050     2.322     2.383
   133   1 H        0.924     0.066     2.134     2.285
   134   1 H        0.924     0.067     2.114     2.273
   135   1 H        0.925     0.052     2.298     2.370
   136   1 H        0.925     0.059     2.213     2.326
   137   1 H        0.925     0.062     2.181     2.310
   138   1 H        0.925     0.098     1.805     2.101
   139   1 H        0.926     0.082     1.962     2.190
   140   1 H        0.926     0.083     1.953     2.185
   141   1 H        0.926     0.082     1.959     2.189

 Mol. C6AA /au·bohr⁶  :     405151.407726
 Mol. C8AA /au·bohr⁸  :   12041236.903267
 Mol. α(0) /au        :       1015.395487


Wiberg/Mayer (AO) data.
largest (>0.10) Wiberg bond orders for each atom

 ---------------------------------------------------------------------------
     #   Z sym  total        # sym  WBO       # sym  WBO       # sym  WBO
 ---------------------------------------------------------------------------
     1   6 C    3.941 --     2 C    1.456    19 C    1.324   101 H    0.938
     2   6 C    3.955 --     1 C    1.456    13 C    1.156     3 C    1.080
     3   6 C    3.910 --     4 O    1.683     2 C    1.080     5 C    1.020
     4   8 O    2.100 --     3 C    1.683    26 S    0.134
     5   6 C    3.973 --    11 C    1.384     6 C    1.287     3 C    1.020
     6   6 C    3.980 --     7 C    1.406     5 C    1.287    13 C    1.078
     7   6 C    3.971 --     8 C    1.416     6 C    1.406   102 H    0.956
     8   6 C    3.973 --     9 C    1.417     7 C    1.416   103 H    0.962
     9   6 C    3.929 --     8 C    1.417    11 C    1.330    10 Br   1.007
    10  35 Br   1.155 --     9 C    1.007
    11   6 C    3.920 --     5 C    1.384     9 C    1.330    12 Cl   1.022
    12  17 Cl   1.203 --    11 C    1.022
    13   6 C    3.961 --    14 C    1.469     2 C    1.156     6 C    1.078
    14   6 C    3.936 --    13 C    1.469    17 C    1.102    15 C    1.099
    15   6 C    3.942 --    16 N    2.755    14 C    1.099
    16   7 N    2.958 --    15 C    2.755
    17   6 C    3.942 --    18 N    2.744    14 C    1.102
    18   7 N    2.953 --    17 C    2.744
    19   6 C    3.939 --    20 C    1.344     1 C    1.324    26 S    1.100
    20   6 C    3.961 --    21 C    1.401    19 C    1.344   104 H    0.957
    21   6 C    3.943 --    20 C    1.401    25 C    1.314    22 S    1.056
    22  16 S    2.275 --    21 C    1.056    23 C    0.973
    23   6 C    3.969 --    24 C    1.027    22 S    0.973   105 H    0.970
                           106 H    0.967
    24   6 C    3.992 --    23 C    1.027   109 H    0.986   107 H    0.983
                           108 H    0.977
    25   6 C    3.932 --    21 C    1.314    27 C    1.200    26 S    1.187
    26  16 S    2.767 --    25 C    1.187    19 C    1.100     4 O    0.134
    27   6 C    3.920 --    28 C    1.407    25 C    1.200    69 S    1.081
    28   6 C    3.953 --    27 C    1.407    37 C    1.266    29 C    1.055
    29   6 C    3.986 --    36 C    1.383    30 C    1.366    28 C    1.055
    30   6 C    3.985 --    31 C    1.453    29 C    1.366   110 H    0.968
                            33 C    0.103
    31   6 C    3.991 --    30 C    1.453    32 C    1.435   111 H    0.970
                            36 C    0.104
    32   6 C    3.978 --    31 C    1.435    33 C    1.404   112 H    0.969
    33   6 C    3.986 --    36 C    1.421    32 C    1.404    34 C    1.013
                            30 C    0.103
    34   6 C    3.996 --    33 C    1.013    35 C    1.000   113 H    0.975
                           114 H    0.972
    35   6 C    3.995 --    34 C    1.000   116 H    0.988   115 H    0.988
                           117 H    0.986
    36   6 C    3.982 --    33 C    1.421    29 C    1.383   118 H    0.962
                            31 C    0.104
    37   6 C    3.924 --    68 C    1.342    28 C    1.266    38 S    1.095
    38  16 S    2.523 --    39 C    1.111    37 C    1.095
    39   6 C    3.919 --    67 C    1.317    40 C    1.261    38 S    1.111
    40   6 C    3.955 --    65 C    1.279    39 C    1.261    41 C    1.175
    41   6 C    3.972 --    45 N    1.423    40 C    1.175    42 C    1.164
                            44 S    0.104
    42   6 C    3.972 --    43 N    1.424    46 C    1.174    41 C    1.164
                            44 S    0.103
    43   7 N    3.062 --    42 C    1.424    44 S    1.387    45 N    0.145
    44  16 S    3.104 --    45 N    1.388    43 N    1.387    41 C    0.104
                            42 C    0.103
    45   7 N    3.062 --    41 C    1.423    44 S    1.388    43 N    0.145
    46   6 C    3.954 --    64 C    1.272    47 C    1.267    42 C    1.174
    47   6 C    3.927 --    62 C    1.313    46 C    1.267    48 S    1.112
    48  16 S    2.526 --    47 C    1.112    49 C    1.100
    49   6 C    3.925 --    61 C    1.350    50 C    1.257    48 S    1.100
    50   6 C    3.973 --    59 C    1.451    49 C    1.257    51 C    1.049
    51   6 C    3.986 --    52 C    1.384    58 C    1.382    50 C    1.049
                            54 C    0.101
    52   6 C    3.986 --    53 C    1.445    51 C    1.384   119 H    0.967
                            55 C    0.104
    53   6 C    3.989 --    52 C    1.445    54 C    1.442   120 H    0.969
                            58 C    0.105
    54   6 C    3.982 --    53 C    1.442    55 C    1.401   121 H    0.969
                            51 C    0.101
    55   6 C    3.987 --    58 C    1.426    54 C    1.401    56 C    1.012
                            52 C    0.104
    56   6 C    3.995 --    55 C    1.012    57 C    1.000   122 H    0.973
                           123 H    0.971
    57   6 C    3.996 --    56 C    1.000   125 H    0.988   126 H    0.988
                           124 H    0.986
    58   6 C    3.988 --    55 C    1.426    51 C    1.382   127 H    0.965
                            53 C    0.105
    59   6 C    3.906 --    50 C    1.451    60 S    1.105    74 C    1.105
    60  16 S    2.572 --    61 C    1.121    59 C    1.105
    61   6 C    3.933 --    49 C    1.350    62 C    1.240    60 S    1.121
    62   6 C    3.935 --    47 C    1.313    61 C    1.240    63 N    1.159
    63   7 N    3.561 --    64 C    1.173    62 C    1.159    72 C    0.979
    64   6 C    3.934 --    46 C    1.272    65 C    1.223    63 N    1.173
    65   6 C    3.931 --    40 C    1.279    64 C    1.223    66 N    1.162
    66   7 N    3.534 --    65 C    1.162    67 C    1.150    70 C    0.974
    67   6 C    3.938 --    39 C    1.317    68 C    1.246    66 N    1.150
    68   6 C    3.925 --    37 C    1.342    67 C    1.246    69 S    1.120
    69  16 S    2.546 --    68 C    1.120    27 C    1.081
    70   6 C    3.958 --    71 C    1.005    66 N    0.974   128 H    0.967
                           129 H    0.957
    71   6 C    3.989 --    70 C    1.005   130 H    0.987   132 H    0.985
                           131 H    0.982
    72   6 C    3.960 --    73 C    1.007    63 N    0.979   134 H    0.965
                           133 H    0.964
    73   6 C    3.986 --    72 C    1.007   136 H    0.983   137 H    0.979
                           135 H    0.978
    74   6 C    3.970 --    82 C    1.309    75 C    1.304    59 C    1.105
    75   6 C    3.883 --    77 C    1.377    74 C    1.304    76 F    0.982
    76   9 F    1.120 --    75 C    0.982
    77   6 C    3.883 --    75 C    1.377    79 C    1.315    78 F    0.982
    78   9 F    1.119 --    77 C    0.982
    79   6 C    3.963 --    77 C    1.315    80 C    1.310    84 C    1.096
    80   6 C    3.886 --    82 C    1.380    79 C    1.310    81 F    0.983
    81   9 F    1.120 --    80 C    0.983
    82   6 C    3.883 --    80 C    1.380    74 C    1.309    83 F    0.980
    83   9 F    1.122 --    82 C    0.980
    84   6 C    3.934 --    85 C    1.672    79 C    1.096   138 H    0.938
    85   6 C    3.971 --    84 C    1.672    95 C    1.106    86 C    1.002
    86   6 C    3.914 --    87 O    1.763    88 C    1.036    85 C    1.002
    87   8 O    2.040 --    86 C    1.763
    88   6 C    3.978 --    89 C    1.404    94 C    1.286    86 C    1.036
    89   6 C    3.981 --    90 C    1.435    88 C    1.404   139 H    0.962
    90   6 C    3.966 --    89 C    1.435    91 C    1.393   140 H    0.964
    91   6 C    3.935 --    93 C    1.398    90 C    1.393    92 Br   1.006
    92  35 Br   1.144 --    91 C    1.006
    93   6 C    3.975 --    94 C    1.402    91 C    1.398   141 H    0.957
    94   6 C    3.986 --    93 C    1.402    88 C    1.286    95 C    1.087
    95   6 C    3.973 --    96 C    1.521    85 C    1.106    94 C    1.087
    96   6 C    3.972 --    95 C    1.521    99 C    1.090    97 C    1.090
    97   6 C    3.946 --    98 N    2.772    96 C    1.090
    98   7 N    2.975 --    97 C    2.772
    99   6 C    3.946 --   100 N    2.774    96 C    1.090
   100   7 N    2.977 --    99 C    2.774
   101   1 H    0.993 --     1 C    0.938
   102   1 H    0.992 --     7 C    0.956
   103   1 H    0.991 --     8 C    0.962
   104   1 H    0.995 --    20 C    0.957
   105   1 H    0.996 --    23 C    0.970
   106   1 H    0.995 --    23 C    0.967
   107   1 H    0.998 --    24 C    0.983
   108   1 H    0.997 --    24 C    0.977
   109   1 H    0.997 --    24 C    0.986
   110   1 H    0.998 --    30 C    0.968
   111   1 H    0.997 --    31 C    0.970
   112   1 H    0.998 --    32 C    0.969
   113   1 H    0.998 --    34 C    0.975
   114   1 H    0.998 --    34 C    0.972
   115   1 H    0.998 --    35 C    0.988
   116   1 H    0.999 --    35 C    0.988
   117   1 H    0.997 --    35 C    0.986
   118   1 H    0.998 --    36 C    0.962
   119   1 H    0.997 --    52 C    0.967
   120   1 H    0.997 --    53 C    0.969
   121   1 H    0.998 --    54 C    0.969
   122   1 H    0.998 --    56 C    0.973
   123   1 H    0.998 --    56 C    0.971
   124   1 H    0.998 --    57 C    0.986
   125   1 H    0.998 --    57 C    0.988
   126   1 H    0.998 --    57 C    0.988
   127   1 H    0.999 --    58 C    0.965
   128   1 H    0.994 --    70 C    0.967
   129   1 H    0.993 --    70 C    0.957
   130   1 H    0.998 --    71 C    0.987
   131   1 H    0.996 --    71 C    0.982
   132   1 H    0.997 --    71 C    0.985
   133   1 H    0.993 --    72 C    0.964
   134   1 H    0.994 --    72 C    0.965
   135   1 H    0.997 --    73 C    0.978
   136   1 H    0.996 --    73 C    0.983
   137   1 H    0.996 --    73 C    0.979
   138   1 H    0.988 --    84 C    0.938
   139   1 H    0.993 --    89 C    0.962
   140   1 H    0.992 --    90 C    0.964
   141   1 H    0.993 --    93 C    0.957
 ---------------------------------------------------------------------------

Topologies differ in bond orders
Writing corrected topology to xtbtopo.mol

molecular dipole:
                 x           y           z       tot (Debye)
 q only:       -2.200       0.359       1.603
   full:       -2.406       0.492       1.819       7.768
molecular quadrupole (traceless):
                xx          xy          yy          xz          yz          zz
 q only:       18.421      -5.324      20.502     -50.383     -52.537     -38.924
  q+dip:        6.053      -1.733      27.541     -49.654     -66.170     -33.594
   full:        2.384      -4.310      32.571     -48.927     -72.608     -34.955


           -------------------------------------------------
          | TOTAL ENERGY             -269.592799830963 Eh   |
          | GRADIENT NORM               0.020842326486 Eh/α |
          | HOMO-LUMO GAP               0.434722958398 eV   |
           -------------------------------------------------

------------------------------------------------------------------------
 * finished run on 2022/02/05 at 15:57:35.035     
------------------------------------------------------------------------
 total:
 * wall-time:     0 d,  0 h,  0 min,  0.630 sec
 *  cpu-time:     0 d,  0 h,  0 min,  4.592 sec
 * ratio c/w:     7.294 speedup
 SCF:
 * wall-time:     0 d,  0 h,  0 min,  0.500 sec
 *  cpu-time:     0 d,  0 h,  0 min,  3.991 sec
 * ratio c/w:     7.976 speedup

