      -----------------------------------------------------------      
     |                   =====================                   |     
     |                           x T B                           |     
     |                   =====================                   |     
     |                         S. Grimme                         |     
     |          Mulliken Center for Theoretical Chemistry        |     
     |                    University of Bonn                     |     
      -----------------------------------------------------------      

   * xtb version 6.4.1 (unknown) compiled by 'oda6@login1.crc.pitt.edu' on 2021-06-25

   xtb is free software: you can redistribute it and/or modify it under
   the terms of the GNU Lesser General Public License as published by
   the Free Software Foundation, either version 3 of the License, or
   (at your option) any later version.
   
   xtb is distributed in the hope that it will be useful,
   but WITHOUT ANY WARRANTY; without even the implied warranty of
   MERCHANTABILITY or FITNESS FOR A PARTICULAR PURPOSE.  See the
   GNU Lesser General Public License for more details.
   
   Cite this work as:
   * C. Bannwarth, E. Caldeweyher, S. Ehlert, A. Hansen, P. Pracht,
     J. Seibert, S. Spicher, S. Grimme, WIREs Comput. Mol. Sci., 2020, 11,
     e01493. DOI: 10.1002/wcms.1493
   
   for GFN2-xTB:
   * C. Bannwarth, S. Ehlert and S. Grimme., J. Chem. Theory Comput., 2019,
     15, 1652-1671. DOI: 10.1021/acs.jctc.8b01176
   for GFN1-xTB:
   * S. Grimme, C. Bannwarth, P. Shushkov, J. Chem. Theory Comput., 2017,
     13, 1989-2009. DOI: 10.1021/acs.jctc.7b00118
   for GFN0-xTB:
   * P. Pracht, E. Caldeweyher, S. Ehlert, S. Grimme, ChemRxiv, 2019, preprint.
     DOI: 10.26434/chemrxiv.8326202.v1
   for GFN-FF:
   * S. Spicher and S. Grimme, Angew. Chem. Int. Ed., 2020, 59, 15665-15673.
     DOI: 10.1002/anie.202004239
   
   for DFT-D4:
   * E. Caldeweyher, C. Bannwarth and S. Grimme, J. Chem. Phys., 2017,
     147, 034112. DOI: 10.1063/1.4993215
   * E. Caldeweyher, S. Ehlert, A. Hansen, H. Neugebauer, S. Spicher,
     C. Bannwarth and S. Grimme, J. Chem. Phys., 2019, 150, 154122.
     DOI: 10.1063/1.5090222
   * E. Caldeweyher, J.-M. Mewes, S. Ehlert and S. Grimme, Phys. Chem. Chem. Phys.
     2020, 22, 8499-8512. DOI: 10.1039/D0CP00502A
   
   for sTDA-xTB:
   * S. Grimme and C. Bannwarth, J. Chem. Phys., 2016, 145, 054103.
     DOI: 10.1063/1.4959605
   
   in the mass-spec context:
   * V. Asgeirsson, C. Bauer and S. Grimme, Chem. Sci., 2017, 8, 4879.
     DOI: 10.1039/c7sc00601b
   * J. Koopman and S. Grimme, ACS Omega 2019, 4, 12, 15120-15133.
     DOI: 10.1021/acsomega.9b02011
   
   for metadynamics refer to:
   * S. Grimme, J. Chem. Theory Comput., 2019, 155, 2847-2862
     DOI: 10.1021/acs.jctc.9b00143
   
   for SPH calculations refer to:
   * S. Spicher and S. Grimme, J. Chem. Theory Comput., 2021, 17, 1701-1714
     DOI: 10.1021/acs.jctc.0c01306
   
   with help from (in alphabetical order)
   P. Atkinson, C. Bannwarth, F. Bohle, G. Brandenburg, E. Caldeweyher
   M. Checinski, S. Dohm, S. Ehlert, S. Ehrlich, I. Gerasimov, J. Koopman
   C. Lavigne, S. Lehtola, F. März, M. Müller, F. Musil, H. Neugebauer
   J. Pisarek, C. Plett, P. Pracht, J. Seibert, P. Shushkov, S. Spicher
   M. Stahn, M. Steiner, T. Strunk, J. Stückrath, T. Rose, and J. Unsleber
   
 * started run on 2022/02/18 at 01:31:11.320     

           -------------------------------------------------
          |                Calculation Setup                |
           -------------------------------------------------

          program call               : /ihome/ghutchison/oda6/xtb/xtb-641/bin/xtb ../../GFN2_output/68_46_86_28_68.mol --sp --alpb hexane
          hostname                   : smp-n9
          coordinate file            : ../../GFN2_output/68_46_86_28_68.mol
          omp threads                :                     8
          number of atoms            :                   209
          number of electrons        :                   662
          charge                     :                     0
          spin                       :                   0.0
          first test random number   :      0.63258740621150

   ID    Z sym.   atoms
    1    6 C      1-3, 5-9, 12-17, 19, 21-28, 30, 31, 33-43, 45-48, 52, 53,
                  55-65, 67, 68, 70, 71, 73, 74, 76-81, 83-97, 99, 100,
                  102-116, 118-120, 122-126, 129-134, 136
    2    8 O      4, 121
    3   35 Br     10, 127
    4   16 S      11, 29, 32, 44, 50, 54, 66, 75, 98, 117, 128
    5    7 N      18, 20, 49, 51, 69, 72, 82, 101, 135, 137
    6    1 H      138-209

           -------------------------------------------------
          |                 G F N 2 - x T B                 |
           -------------------------------------------------

        Reference                      10.1021/acs.jctc.8b01176
      * Hamiltonian:
        H0-scaling (s, p, d)           1.850000    2.230000    2.230000
        zeta-weighting                 0.500000
      * Dispersion:
        s8                             2.700000
        a1                             0.520000
        a2                             5.000000
        s9                             5.000000
      * Repulsion:
        kExp                           1.500000    1.000000
        rExp                           1.000000
      * Coulomb:
        alpha                          2.000000
        third order                    shell-resolved
        anisotropic                    true
        a3                             3.000000
        a5                             4.000000
        cn-shift                       1.200000
        cn-exp                         4.000000
        max-rad                        5.000000

      * Solvation model:               ALPB
        Solvent                        hexane
        Parameter file                 internal GFN2-xTB/ALPB
        Dielectric constant                1.8800E+00
        Reference state                gsolv [1 M gas/solution]
        Free energy shift                  4.8134E-03 Eh       3.0204E+00 kcal/mol
        Temperature                        2.9815E+02 K
        Density                            6.6000E-01 kg/L
        Solvent mass                       8.6180E+01 g/mol
        Interaction kernel             P16
        Born radius scaling (c1)           1.1040E+00
        Born radii integrator          GBOBC
        Born offset                        0.0000E+00 a0       0.0000E+00 AA
        H-bond correction              false
        Ion screening                  false
        Surface tension                    1.0000E-05 Eh       1.5569E+01 dyn/cm
        Grid points                               230 per atom

          ...................................................
          :                      SETUP                      :
          :.................................................:
          :  # basis functions                 698          :
          :  # atomic orbitals                 685          :
          :  # shells                          359          :
          :  # electrons                       662          :
          :  max. iterations                   250          :
          :  Hamiltonian                  GFN2-xTB          :
          :  restarted?                      false          :
          :  GBSA solvation                   true          :
          :  PC potential                    false          :
          :  electronic temp.          300.0000000     K    :
          :  accuracy                    1.0000000          :
          :  -> integral cutoff          0.2500000E+02      :
          :  -> integral neglect         0.1000000E-07      :
          :  -> SCF convergence          0.1000000E-05 Eh   :
          :  -> wf. convergence          0.1000000E-03 e    :
          :  Broyden damping             0.4000000          :
          ...................................................

 iter      E             dE          RMSdq      gap      omega  full diag
   1   -363.3794850 -0.363379E+03  0.449E+00    0.92       0.0  T
   2   -363.6274202 -0.247935E+00  0.273E+00    0.84       1.0  T
   3   -363.4451372  0.182283E+00  0.139E+00    0.64       1.0  T
   4   -363.7089843 -0.263847E+00  0.489E-01    0.74       1.0  T
   5   -363.7351128 -0.261285E-01  0.187E-01    0.61       1.0  T
   6   -363.7372133 -0.210055E-02  0.106E-01    0.65       1.0  T
   7   -363.7378233 -0.610034E-03  0.619E-02    0.63       1.0  T
   8   -363.7379934 -0.170010E-03  0.466E-02    0.64       1.0  T
   9   -363.7380509 -0.575597E-04  0.355E-02    0.63       1.0  T
  10   -363.7381070 -0.560683E-04  0.225E-02    0.63       1.0  T
  11   -363.7381413 -0.342820E-04  0.120E-02    0.63       1.0  T
  12   -363.7381489 -0.765647E-05  0.611E-03    0.62       1.1  T
  13   -363.7381514 -0.243610E-05  0.317E-03    0.62       2.2  T
  14   -363.7381517 -0.360953E-06  0.193E-03    0.62       3.6  T
  15   -363.7381518 -0.126403E-06  0.128E-03    0.62       5.4  T
  16   -363.7381519 -0.505760E-07  0.850E-04    0.62       8.1  T
  17   -363.7381519 -0.335846E-07  0.559E-04    0.62      12.4  T

   *** convergence criteria satisfied after 17 iterations ***

         #    Occupation            Energy/Eh            Energy/eV
      -------------------------------------------------------------
         1        2.0000           -0.8627528             -23.4767
       ...           ...                  ...                  ...
       325        2.0000           -0.3848315             -10.4718
       326        2.0000           -0.3829436             -10.4204
       327        2.0000           -0.3770597             -10.2603
       328        2.0000           -0.3753030             -10.2125
       329        2.0000           -0.3646284              -9.9220
       330        2.0000           -0.3640535              -9.9064
       331        2.0000           -0.3537986              -9.6273 (HOMO)
       332        0.0000           -0.3308821              -9.0038 (LUMO)
       333                         -0.3243484              -8.8260
       334                         -0.3198074              -8.7024
       335                         -0.3134612              -8.5297
       336                         -0.3008138              -8.1856
       ...                                ...                  ...
       685                          1.1613497              31.6019
      -------------------------------------------------------------
                  HL-Gap            0.0229165 Eh            0.6236 eV
             Fermi-level           -0.3423408 Eh           -9.3156 eV

 SCC (total)                   0 d,  0 h,  0 min,  0.908 sec
 SCC setup                      ...        0 min,  0.007 sec (  0.740%)
 Dispersion                     ...        0 min,  0.012 sec (  1.325%)
 classical contributions        ...        0 min,  0.000 sec (  0.046%)
 integral evaluation            ...        0 min,  0.042 sec (  4.623%)
 iterations                     ...        0 min,  0.705 sec ( 77.644%)
 molecular gradient             ...        0 min,  0.138 sec ( 15.173%)
 printout                       ...        0 min,  0.004 sec (  0.440%)

         :::::::::::::::::::::::::::::::::::::::::::::::::::::
         ::                     SUMMARY                     ::
         :::::::::::::::::::::::::::::::::::::::::::::::::::::
         :: total energy            -357.971500589150 Eh    ::
         :: total w/o Gsasa/hb      -357.845611575405 Eh    ::
         :: gradient norm              0.023455935802 Eh/a0 ::
         :: HOMO-LUMO gap              0.623588567022 eV    ::
         ::.................................................::
         :: SCC energy              -363.738151926294 Eh    ::
         :: -> isotropic ES            0.163619665331 Eh    ::
         :: -> anisotropic ES          0.021671486817 Eh    ::
         :: -> anisotropic XC          0.202730745035 Eh    ::
         :: -> dispersion             -0.381630221022 Eh    ::
         :: -> Gsolv                  -0.152174281543 Eh    ::
         ::    -> Gelec               -0.026285267798 Eh    ::
         ::    -> Gsasa               -0.130702369564 Eh    ::
         ::    -> Ghb                  0.000000000000 Eh    ::
         ::    -> Gshift               0.004813355820 Eh    ::
         :: repulsion energy           5.756333543368 Eh    ::
         :: add. restraining           0.000000000000 Eh    ::
         :: total charge               0.000000000000 e     ::
         :::::::::::::::::::::::::::::::::::::::::::::::::::::

           -------------------------------------------------
          |                Property Printout                |
           -------------------------------------------------

    * Orbital Energies and Occupations

         #    Occupation            Energy/Eh            Energy/eV
      -------------------------------------------------------------
         1        2.0000           -0.8627528             -23.4767
       ...           ...                  ...                  ...
       319        2.0000           -0.4002851             -10.8923
       320        2.0000           -0.3998215             -10.8797
       321        2.0000           -0.3986186             -10.8470
       322        2.0000           -0.3958000             -10.7703
       323        2.0000           -0.3948098             -10.7433
       324        2.0000           -0.3913096             -10.6481
       325        2.0000           -0.3848315             -10.4718
       326        2.0000           -0.3829436             -10.4204
       327        2.0000           -0.3770597             -10.2603
       328        2.0000           -0.3753030             -10.2125
       329        2.0000           -0.3646284              -9.9220
       330        2.0000           -0.3640535              -9.9064
       331        2.0000           -0.3537986              -9.6273 (HOMO)
       332        0.0000           -0.3308821              -9.0038 (LUMO)
       333                         -0.3243484              -8.8260
       334                         -0.3198074              -8.7024
       335                         -0.3134612              -8.5297
       336                         -0.3008138              -8.1856
       337                         -0.2900979              -7.8940
       338                         -0.2841640              -7.7325
       339                         -0.2801695              -7.6238
       340                         -0.2754266              -7.4947
       341                         -0.2654610              -7.2236
       342                         -0.2611256              -7.1056
       ...                                ...                  ...
       685                          1.1613497              31.6019
      -------------------------------------------------------------
                  HL-Gap            0.0229165 Eh            0.6236 eV
             Fermi-level           -0.3423408 Eh           -9.3156 eV

     #   Z          covCN         q      C6AA      α(0)
     1   6 C        2.947    -0.008    28.212     8.711
     2   6 C        3.012    -0.040    28.967     8.829
     3   6 C        2.867     0.231    23.160     7.889
     4   8 O        0.856    -0.428    22.247     6.324
     5   6 C        3.045    -0.022    28.507     8.757
     6   6 C        2.910    -0.019    28.485     8.752
     7   6 C        3.150     0.008    27.559     8.587
     8   6 C        3.105    -0.055    29.232     8.859
     9   6 C        2.934     0.093    25.941     8.353
    10  35 Br       1.147    -0.127   188.562    22.141
    11  16 S        2.393     0.014   140.482    19.949
    12   6 C        3.007     0.031    27.281     8.568
    13   6 C        2.932    -0.034    28.836     8.807
    14   6 C        3.035     0.006    27.849     8.656
    15   6 C        3.023     0.034    27.205     8.556
    16   6 C        2.947     0.004    27.924     8.667
    17   6 C        1.933     0.129    27.933     8.535
    18   7 N        0.911    -0.271    27.019     7.518
    19   6 C        1.933     0.131    27.883     8.528
    20   7 N        0.911    -0.270    26.989     7.514
    21   6 C        2.989     0.026    27.417     8.589
    22   6 C        3.149     0.028    27.115     8.518
    23   6 C        2.993     0.029    27.344     8.578
    24   6 C        3.108    -0.050    29.086     8.836
    25   6 C        3.117    -0.058    29.252     8.859
    26   6 C        2.988     0.027    27.388     8.585
    27   6 C        3.826    -0.057    21.581     6.610
    28   6 C        3.754    -0.106    22.575     6.775
    29  16 S        2.366    -0.006   141.320    20.008
    30   6 C        3.098    -0.052    29.172     8.852
    31   6 C        3.040     0.039    27.092     8.537
    32  16 S        2.322    -0.024   142.025    20.058
    33   6 C        3.028     0.009    27.800     8.648
    34   6 C        3.102    -0.003    27.967     8.666
    35   6 C        2.974     0.010    27.785     8.646
    36   6 C        2.925    -0.037    28.920     8.819
    37   6 C        2.917    -0.030    28.755     8.793
    38   6 C        2.925    -0.037    28.918     8.819
    39   6 C        2.970     0.018    27.599     8.617
    40   6 C        3.807    -0.061    21.665     6.626
    41   6 C        3.754    -0.102    22.498     6.764
    42   6 C        2.931    -0.041    29.009     8.833
    43   6 C        3.183     0.009    27.366     8.538
    44  16 S        2.189    -0.043   142.827    20.114
    45   6 C        3.099     0.001    27.874     8.652
    46   6 C        3.082    -0.041    28.913     8.815
    47   6 C        3.334     0.070    24.123     7.783
    48   6 C        3.333     0.069    24.159     7.791
    49   7 N        1.853    -0.296    28.519     7.915
    50  16 S        2.675     0.330   128.327    19.066
    51   7 N        1.853    -0.296    28.511     7.914
    52   6 C        3.076    -0.034    28.772     8.794
    53   6 C        3.102    -0.000    27.908     8.657
    54  16 S        2.202    -0.046   142.963    20.124
    55   6 C        3.182     0.007    27.428     8.549
    56   6 C        3.102    -0.008    28.086     8.684
    57   6 C        2.973     0.011    27.776     8.645
    58   6 C        2.925    -0.037    28.925     8.820
    59   6 C        2.918    -0.031    28.770     8.796
    60   6 C        2.925    -0.037    28.928     8.820
    61   6 C        2.970     0.016    27.654     8.626
    62   6 C        3.807    -0.057    21.591     6.615
    63   6 C        3.754    -0.100    22.474     6.760
    64   6 C        2.932    -0.043    29.070     8.842
    65   6 C        3.024     0.010    27.762     8.643
    66  16 S        2.257    -0.057   143.428    20.157
    67   6 C        3.136     0.004    27.719     8.617
    68   6 C        3.267     0.031    26.078     8.240
    69   7 N        2.794    -0.048    22.164     6.992
    70   6 C        3.095     0.028    27.270     8.559
    71   6 C        3.088     0.031    27.219     8.552
    72   7 N        2.798    -0.032    21.856     6.943
    73   6 C        3.262     0.026    26.250     8.275
    74   6 C        3.126     0.006    27.690     8.616
    75  16 S        2.278    -0.053   143.244    20.144
    76   6 C        3.743    -0.003    20.711     6.493
    77   6 C        3.752    -0.117    22.798     6.809
    78   6 C        3.741     0.001    20.646     6.483
    79   6 C        3.752    -0.114    22.735     6.800
    80   6 C        3.037     0.005    27.885     8.661
    81   6 C        3.062     0.051    26.805     8.490
    82   7 N        2.749    -0.079    22.768     7.087
    83   6 C        2.922     0.060    26.656     8.467
    84   6 C        2.921    -0.052    29.297     8.876
    85   6 C        2.925    -0.042    29.043     8.838
    86   6 C        2.965     0.006    27.885     8.662
    87   6 C        3.758    -0.103    22.518     6.766
    88   6 C        2.926    -0.039    28.969     8.827
    89   6 C        2.922    -0.047    29.179     8.858
    90   6 C        2.932     0.060    26.651     8.466
    91   6 C        2.922    -0.049    29.214     8.864
    92   6 C        2.925    -0.039    28.957     8.825
    93   6 C        2.966     0.014    27.698     8.633
    94   6 C        3.758    -0.112    22.685     6.791
    95   6 C        2.926    -0.039    28.960     8.825
    96   6 C        2.921    -0.046    29.154     8.854
    97   6 C        3.173     0.002    27.601     8.581
    98  16 S        2.317    -0.012   141.559    20.025
    99   6 C        2.985     0.009    27.810     8.650
   100   6 C        3.041     0.062    26.571     8.455
   101   7 N        2.748    -0.039    21.991     6.965
   102   6 C        2.926     0.056    26.743     8.481
   103   6 C        2.920    -0.038    28.949     8.823
   104   6 C        2.926    -0.036    28.891     8.815
   105   6 C        2.966     0.015    27.666     8.628
   106   6 C        3.758    -0.114    22.724     6.796
   107   6 C        2.925    -0.041    29.013     8.833
   108   6 C        2.920    -0.049    29.228     8.866
   109   6 C        2.934     0.060    26.661     8.468
   110   6 C        2.920    -0.041    29.024     8.835
   111   6 C        2.926    -0.038    28.950     8.824
   112   6 C        2.966     0.020    27.564     8.612
   113   6 C        3.758    -0.115    22.754     6.801
   114   6 C        2.925    -0.037    28.927     8.820
   115   6 C        2.922    -0.040    28.994     8.830
   116   6 C        3.141    -0.002    27.825     8.632
   117  16 S        2.239    -0.064   143.710    20.176
   118   6 C        2.921    -0.016    28.401     8.739
   119   6 C        3.010    -0.046    29.125     8.853
   120   6 C        2.875     0.229    23.201     7.896
   121   8 O        0.974    -0.408    21.787     6.261
   122   6 C        3.043    -0.023    28.528     8.760
   123   6 C        2.910    -0.019    28.483     8.751
   124   6 C        3.150     0.009    27.552     8.586
   125   6 C        3.105    -0.055    29.230     8.859
   126   6 C        2.934     0.096    25.860     8.340
   127  35 Br       1.150    -0.125   188.485    22.136
   128  16 S        2.402     0.016   140.417    19.944
   129   6 C        3.008     0.032    27.278     8.567
   130   6 C        2.933    -0.035    28.867     8.811
   131   6 C        3.040     0.004    27.887     8.661
   132   6 C        3.020     0.032    27.264     8.565
   133   6 C        2.947    -0.002    28.087     8.692
   134   6 C        1.946     0.128    27.947     8.537
   135   7 N        0.911    -0.287    27.406     7.571
   136   6 C        1.948     0.130    27.890     8.529
   137   7 N        0.911    -0.279    27.201     7.543
   138   1 H        0.925     0.067     2.117     2.275
   139   1 H        0.926     0.069     2.096     2.264
   140   1 H        0.926     0.072     2.068     2.249
   141   1 H        0.926     0.068     2.110     2.272
   142   1 H        0.926     0.035     2.519     2.482
   143   1 H        0.926     0.041     2.433     2.439
   144   1 H        0.924     0.054     2.275     2.359
   145   1 H        0.924     0.050     2.322     2.383
   146   1 H        0.925     0.047     2.351     2.398
   147   1 H        0.925     0.042     2.417     2.431
   148   1 H        0.925     0.047     2.363     2.404
   149   1 H        0.926     0.065     2.141     2.288
   150   1 H        0.926     0.032     2.552     2.498
   151   1 H        0.926     0.040     2.449     2.447
   152   1 H        0.926     0.041     2.441     2.443
   153   1 H        0.924     0.042     2.422     2.434
   154   1 H        0.924     0.041     2.436     2.441
   155   1 H        0.925     0.041     2.434     2.440
   156   1 H        0.925     0.041     2.440     2.443
   157   1 H        0.925     0.037     2.485     2.465
   158   1 H        0.926     0.046     2.371     2.408
   159   1 H        0.926     0.047     2.352     2.398
   160   1 H        0.926     0.038     2.480     2.463
   161   1 H        0.926     0.038     2.472     2.459
   162   1 H        0.924     0.035     2.515     2.480
   163   1 H        0.924     0.041     2.438     2.442
   164   1 H        0.925     0.038     2.472     2.459
   165   1 H        0.925     0.039     2.456     2.451
   166   1 H        0.925     0.037     2.492     2.469
   167   1 H        0.926     0.032     2.560     2.502
   168   1 H        0.925     0.067     2.114     2.274
   169   1 H        0.924     0.066     2.136     2.285
   170   1 H        0.925     0.059     2.216     2.328
   171   1 H        0.925     0.058     2.225     2.333
   172   1 H        0.925     0.048     2.341     2.393
   173   1 H        0.925     0.072     2.059     2.244
   174   1 H        0.924     0.061     2.185     2.312
   175   1 H        0.925     0.052     2.300     2.372
   176   1 H        0.925     0.055     2.253     2.347
   177   1 H        0.925     0.047     2.357     2.401
   178   1 H        0.926     0.028     2.614     2.528
   179   1 H        0.925     0.029     2.600     2.522
   180   1 H        0.924     0.050     2.325     2.384
   181   1 H        0.925     0.039     2.463     2.454
   182   1 H        0.925     0.033     2.551     2.498
   183   1 H        0.926     0.039     2.465     2.455
   184   1 H        0.926     0.041     2.434     2.439
   185   1 H        0.926     0.030     2.592     2.517
   186   1 H        0.926     0.036     2.505     2.475
   187   1 H        0.925     0.044     2.392     2.419
   188   1 H        0.925     0.053     2.285     2.364
   189   1 H        0.925     0.047     2.355     2.400
   190   1 H        0.926     0.038     2.473     2.459
   191   1 H        0.926     0.034     2.529     2.487
   192   1 H        0.926     0.057     2.240     2.340
   193   1 H        0.926     0.049     2.337     2.390
   194   1 H        0.925     0.046     2.376     2.410
   195   1 H        0.925     0.052     2.290     2.366
   196   1 H        0.925     0.054     2.269     2.356
   197   1 H        0.926     0.039     2.459     2.452
   198   1 H        0.926     0.033     2.538     2.491
   199   1 H        0.926     0.043     2.407     2.426
   200   1 H        0.926     0.045     2.385     2.415
   201   1 H        0.925     0.051     2.313     2.378
   202   1 H        0.924     0.056     2.243     2.342
   203   1 H        0.925     0.050     2.319     2.381
   204   1 H        0.926     0.044     2.391     2.418
   205   1 H        0.926     0.037     2.496     2.470
   206   1 H        0.925     0.067     2.116     2.275
   207   1 H        0.926     0.069     2.092     2.262
   208   1 H        0.926     0.076     2.022     2.223
   209   1 H        0.926     0.067     2.113     2.273

 Mol. C6AA /au·bohr⁶  :     828967.385485
 Mol. C8AA /au·bohr⁸  :   24267449.477843
 Mol. α(0) /au        :       1464.223624


Wiberg/Mayer (AO) data.
largest (>0.10) Wiberg bond orders for each atom

 ---------------------------------------------------------------------------
     #   Z sym  total        # sym  WBO       # sym  WBO       # sym  WBO
 ---------------------------------------------------------------------------
     1   6 C    3.944 --     2 C    1.477    21 C    1.293   138 H    0.947
     2   6 C    3.956 --     1 C    1.477    15 C    1.158     3 C    1.053
     3   6 C    3.921 --     4 O    1.710     2 C    1.053     5 C    1.018
     4   8 O    2.010 --     3 C    1.710
     5   6 C    3.978 --     6 C    1.477    14 C    1.246     3 C    1.018
     6   6 C    3.966 --     5 C    1.477     7 C    1.310   139 H    0.962
     7   6 C    3.974 --     6 C    1.310    12 C    1.273     8 C    1.203
     8   6 C    3.974 --     9 C    1.612     7 C    1.203   140 H    0.959
     9   6 C    3.898 --     8 C    1.612    11 S    1.135    10 Br   1.019
    10  35 Br   1.165 --     9 C    1.019
    11  16 S    2.558 --     9 C    1.135    12 C    1.119
    12   6 C    3.948 --    13 C    1.370     7 C    1.273    11 S    1.119
    13   6 C    3.970 --    14 C    1.434    12 C    1.370   141 H    0.959
    14   6 C    3.977 --    13 C    1.434     5 C    1.246    15 C    1.085
    15   6 C    3.966 --    16 C    1.459     2 C    1.158    14 C    1.085
    16   6 C    3.936 --    15 C    1.459    19 C    1.106    17 C    1.103
    17   6 C    3.943 --    18 N    2.752    16 C    1.103
    18   7 N    2.959 --    17 C    2.752
    19   6 C    3.942 --    20 N    2.752    16 C    1.106
    20   7 N    2.955 --    19 C    2.752
    21   6 C    3.922 --    22 C    1.317     1 C    1.293    32 S    1.083
    22   6 C    3.963 --    30 C    1.318    21 C    1.317    23 C    1.128
    23   6 C    3.949 --    24 C    1.506    22 C    1.128    29 S    1.126
    24   6 C    3.982 --    23 C    1.506    25 C    1.314   142 H    0.963
    25   6 C    3.981 --    26 C    1.552    24 C    1.314   143 H    0.964
    26   6 C    3.931 --    25 C    1.552    29 S    1.184    27 C    1.028
    27   6 C    3.994 --    26 C    1.028    28 C    0.997   145 H    0.970
                           144 H    0.965
    28   6 C    3.990 --    27 C    0.997   147 H    0.988   146 H    0.986
                           148 H    0.985
    29  16 S    2.603 --    26 C    1.184    23 C    1.126
    30   6 C    3.959 --    31 C    1.448    22 C    1.318   149 H    0.954
    31   6 C    3.930 --    30 C    1.448    33 C    1.187    32 S    1.133
    32  16 S    2.549 --    31 C    1.133    21 C    1.083
    33   6 C    3.910 --    34 C    1.419    31 C    1.187    75 S    1.071
    34   6 C    3.959 --    33 C    1.419    43 C    1.266    35 C    1.053
    35   6 C    3.987 --    42 C    1.388    36 C    1.370    34 C    1.053
    36   6 C    3.988 --    37 C    1.453    35 C    1.370   150 H    0.969
                            39 C    0.104
    37   6 C    3.990 --    36 C    1.453    38 C    1.434   151 H    0.970
                            42 C    0.104
    38   6 C    3.981 --    37 C    1.434    39 C    1.407   152 H    0.969
    39   6 C    3.986 --    42 C    1.418    38 C    1.407    40 C    1.013
                            36 C    0.104
    40   6 C    3.996 --    39 C    1.013    41 C    1.000   154 H    0.975
                           153 H    0.972
    41   6 C    3.995 --    40 C    1.000   157 H    0.988   155 H    0.988
                           156 H    0.986
    42   6 C    3.983 --    39 C    1.418    35 C    1.388   158 H    0.962
                            37 C    0.104
    43   6 C    3.923 --    74 C    1.346    34 C    1.266    44 S    1.090
    44  16 S    2.509 --    45 C    1.105    43 C    1.090
    45   6 C    3.921 --    73 C    1.313    46 C    1.265    44 S    1.105
    46   6 C    3.954 --    71 C    1.272    45 C    1.265    47 C    1.170
    47   6 C    3.971 --    51 N    1.432    46 C    1.170    48 C    1.156
                            50 S    0.105
    48   6 C    3.972 --    49 N    1.429    52 C    1.174    47 C    1.156
                            50 S    0.106
    49   7 N    3.063 --    48 C    1.429    50 S    1.382    51 N    0.143
    50  16 S    3.093 --    49 N    1.382    51 N    1.380    48 C    0.106
                            47 C    0.105
    51   7 N    3.064 --    47 C    1.432    50 S    1.380    49 N    0.143
    52   6 C    3.956 --    70 C    1.286    53 C    1.249    48 C    1.174
    53   6 C    3.929 --    68 C    1.331    52 C    1.249    54 S    1.103
    54  16 S    2.517 --    53 C    1.103    55 C    1.095
    55   6 C    3.924 --    67 C    1.370    56 C    1.234    54 S    1.095
    56   6 C    3.970 --    65 C    1.466    55 C    1.234    57 C    1.061
    57   6 C    3.987 --    58 C    1.378    64 C    1.378    56 C    1.061
                            60 C    0.100
    58   6 C    3.986 --    59 C    1.446    57 C    1.378   159 H    0.959
                            61 C    0.102
    59   6 C    3.990 --    58 C    1.446    60 C    1.441   160 H    0.970
                            64 C    0.104
    60   6 C    3.982 --    59 C    1.441    61 C    1.399   161 H    0.969
                            57 C    0.100
    61   6 C    3.987 --    64 C    1.428    60 C    1.399    62 C    1.012
                            58 C    0.102
    62   6 C    3.997 --    61 C    1.012    63 C    1.001   162 H    0.975
                           163 H    0.973
    63   6 C    3.996 --    62 C    1.001   166 H    0.988   164 H    0.988
                           165 H    0.986
    64   6 C    3.988 --    61 C    1.428    57 C    1.378   167 H    0.964
                            59 C    0.104
    65   6 C    3.908 --    56 C    1.466    80 C    1.116    66 S    1.078
    66  16 S    2.538 --    67 C    1.112    65 C    1.078
    67   6 C    3.935 --    55 C    1.370    68 C    1.236    66 S    1.112
    68   6 C    3.940 --    53 C    1.331    67 C    1.236    69 N    1.147
    69   7 N    3.526 --    70 C    1.153    68 C    1.147    78 C    0.974
    70   6 C    3.937 --    52 C    1.286    71 C    1.221    69 N    1.153
    71   6 C    3.934 --    46 C    1.272    70 C    1.221    72 N    1.174
    72   7 N    3.560 --    71 C    1.174    73 C    1.154    76 C    0.980
    73   6 C    3.938 --    45 C    1.313    74 C    1.243    72 N    1.154
    74   6 C    3.927 --    43 C    1.346    73 C    1.243    75 S    1.118
    75  16 S    2.540 --    74 C    1.118    33 C    1.071
    76   6 C    3.960 --    77 C    1.008    72 N    0.980   168 H    0.963
                           169 H    0.961
    77   6 C    3.986 --    76 C    1.008   170 H    0.983   171 H    0.983
                           172 H    0.981
    78   6 C    3.961 --    79 C    1.006    69 N    0.974   174 H    0.965
                           173 H    0.964
    79   6 C    3.988 --    78 C    1.006   177 H    0.987   175 H    0.985
                           176 H    0.983
    80   6 C    3.895 --    81 C    1.423    65 C    1.116   117 S    1.097
    81   6 C    3.958 --    80 C    1.423    97 C    1.224    82 N    1.078
    82   7 N    3.484 --    81 C    1.078    83 C    1.058    90 C    1.042
    83   6 C    3.965 --    84 C    1.371    89 C    1.355    82 N    1.058
    84   6 C    3.987 --    85 C    1.447    83 C    1.371   178 H    0.968
                            88 C    0.103
    85   6 C    3.990 --    84 C    1.447    86 C    1.412   179 H    0.968
                            89 C    0.103
    86   6 C    3.982 --    85 C    1.412    88 C    1.392    87 C    1.025
    87   6 C    3.996 --    86 C    1.025   182 H    0.984   181 H    0.976
                           180 H    0.969
    88   6 C    3.990 --    89 C    1.470    86 C    1.392   183 H    0.969
                            84 C    0.103
    89   6 C    3.987 --    88 C    1.470    83 C    1.355   184 H    0.965
                            85 C    0.103
    90   6 C    3.962 --    91 C    1.370    96 C    1.365    82 N    1.042
    91   6 C    3.986 --    92 C    1.452    90 C    1.370   185 H    0.965
                            95 C    0.104
    92   6 C    3.990 --    91 C    1.452    93 C    1.408   186 H    0.968
                            96 C    0.103
    93   6 C    3.976 --    92 C    1.408    95 C    1.397    94 C    1.027
    94   6 C    3.996 --    93 C    1.027   187 H    0.984   189 H    0.978
                           188 H    0.967
    95   6 C    3.990 --    96 C    1.464    93 C    1.397   190 H    0.969
                            91 C    0.104
    96   6 C    3.985 --    95 C    1.464    90 C    1.365   191 H    0.967
                            92 C    0.103
    97   6 C    3.943 --   116 C    1.345    81 C    1.224    98 S    1.137
    98  16 S    2.687 --    97 C    1.137    99 C    1.073   121 O    0.130
    99   6 C    3.925 --   118 C    1.386   100 C    1.237    98 S    1.073
   100   6 C    3.948 --   116 C    1.267    99 C    1.237   101 N    1.181
   101   7 N    3.543 --   100 C    1.181   102 C    1.033   109 C    1.024
   102   6 C    3.957 --   108 C    1.369   103 C    1.365   101 N    1.033
   103   6 C    3.978 --   104 C    1.457   102 C    1.365   192 H    0.965
   104   6 C    3.990 --   103 C    1.457   105 C    1.402   193 H    0.968
                           108 C    0.106
   105   6 C    3.976 --   104 C    1.402   107 C    1.400   106 C    1.028
   106   6 C    3.995 --   105 C    1.028   194 H    0.985   195 H    0.972
                           196 H    0.969
   107   6 C    3.989 --   108 C    1.458   105 C    1.400   197 H    0.968
   108   6 C    3.985 --   107 C    1.458   102 C    1.369   198 H    0.967
                           104 C    0.106
   109   6 C    3.959 --   110 C    1.375   115 C    1.370   101 N    1.024
   110   6 C    3.975 --   111 C    1.458   109 C    1.375   199 H    0.967
                           114 C    0.104
   111   6 C    3.989 --   110 C    1.458   112 C    1.401   200 H    0.968
                           115 C    0.103
   112   6 C    3.973 --   114 C    1.402   111 C    1.401   113 C    1.029
   113   6 C    3.995 --   112 C    1.029   203 H    0.982   201 H    0.980
                           202 H    0.964
   114   6 C    3.989 --   115 C    1.456   112 C    1.402   204 H    0.968
                           110 C    0.104
   115   6 C    3.982 --   114 C    1.456   109 C    1.370   205 H    0.968
                           111 C    0.103
   116   6 C    3.934 --    97 C    1.345   100 C    1.267   117 S    1.091
   117  16 S    2.528 --    80 C    1.097   116 C    1.091
   118   6 C    3.954 --   119 C    1.412    99 C    1.386   206 H    0.933
   119   6 C    3.950 --   118 C    1.412   132 C    1.175   120 C    1.089
   120   6 C    3.908 --   121 O    1.667   119 C    1.089   122 C    1.023
   121   8 O    2.064 --   120 C    1.667    98 S    0.130
   122   6 C    3.977 --   123 C    1.478   131 C    1.246   120 C    1.023
   123   6 C    3.967 --   122 C    1.478   124 C    1.309   207 H    0.962
   124   6 C    3.974 --   123 C    1.309   129 C    1.273   125 C    1.204
   125   6 C    3.973 --   126 C    1.611   124 C    1.204   208 H    0.958
   126   6 C    3.897 --   125 C    1.611   128 S    1.134   127 Br   1.021
   127  35 Br   1.167 --   126 C    1.021
   128  16 S    2.559 --   126 C    1.134   129 C    1.119
   129   6 C    3.948 --   130 C    1.370   124 C    1.273   128 S    1.119
   130   6 C    3.968 --   131 C    1.436   129 C    1.370   209 H    0.957
   131   6 C    3.976 --   130 C    1.436   122 C    1.246   132 C    1.084
   132   6 C    3.965 --   133 C    1.438   119 C    1.175   131 C    1.084
   133   6 C    3.936 --   132 C    1.438   134 C    1.113   136 C    1.106
   134   6 C    3.942 --   135 N    2.722   133 C    1.113
   135   7 N    2.953 --   134 C    2.722
   136   6 C    3.940 --   137 N    2.743   133 C    1.106
   137   7 N    2.951 --   136 C    2.743
   138   1 H    0.993 --     1 C    0.947
   139   1 H    0.995 --     6 C    0.962
   140   1 H    0.995 --     8 C    0.959
   141   1 H    0.995 --    13 C    0.959
   142   1 H    0.999 --    24 C    0.963
   143   1 H    0.998 --    25 C    0.964
   144   1 H    0.995 --    27 C    0.965
   145   1 H    0.997 --    27 C    0.970
   146   1 H    0.998 --    28 C    0.986
   147   1 H    0.998 --    28 C    0.988
   148   1 H    0.997 --    28 C    0.985
   149   1 H    0.995 --    30 C    0.954
   150   1 H    0.998 --    36 C    0.969
   151   1 H    0.997 --    37 C    0.970
   152   1 H    0.998 --    38 C    0.969
   153   1 H    0.998 --    40 C    0.972
   154   1 H    0.998 --    40 C    0.975
   155   1 H    0.998 --    41 C    0.988
   156   1 H    0.997 --    41 C    0.986
   157   1 H    0.999 --    41 C    0.988
   158   1 H    0.998 --    42 C    0.962
   159   1 H    0.997 --    58 C    0.959
   160   1 H    0.997 --    59 C    0.970
   161   1 H    0.998 --    60 C    0.969
   162   1 H    0.998 --    62 C    0.975
   163   1 H    0.998 --    62 C    0.973
   164   1 H    0.999 --    63 C    0.988
   165   1 H    0.998 --    63 C    0.986
   166   1 H    0.999 --    63 C    0.988
   167   1 H    0.999 --    64 C    0.964
   168   1 H    0.994 --    76 C    0.963
   169   1 H    0.994 --    76 C    0.961
   170   1 H    0.996 --    77 C    0.983
   171   1 H    0.997 --    77 C    0.983
   172   1 H    0.998 --    77 C    0.981
   173   1 H    0.994 --    78 C    0.964
   174   1 H    0.994 --    78 C    0.965
   175   1 H    0.997 --    79 C    0.985
   176   1 H    0.996 --    79 C    0.983
   177   1 H    0.998 --    79 C    0.987
   178   1 H    0.999 --    84 C    0.968
   179   1 H    0.999 --    85 C    0.968
   180   1 H    0.996 --    87 C    0.969
   181   1 H    0.997 --    87 C    0.976
   182   1 H    0.999 --    87 C    0.984
   183   1 H    0.998 --    88 C    0.969
   184   1 H    0.998 --    89 C    0.965
   185   1 H    0.999 --    91 C    0.965
   186   1 H    0.998 --    92 C    0.968
   187   1 H    0.998 --    94 C    0.984
   188   1 H    0.996 --    94 C    0.967
   189   1 H    0.997 --    94 C    0.978
   190   1 H    0.998 --    95 C    0.969
   191   1 H    0.999 --    96 C    0.967
   192   1 H    0.996 --   103 C    0.965
   193   1 H    0.997 --   104 C    0.968
   194   1 H    0.998 --   106 C    0.985
   195   1 H    0.996 --   106 C    0.972
   196   1 H    0.995 --   106 C    0.969
   197   1 H    0.998 --   107 C    0.968
   198   1 H    0.999 --   108 C    0.967
   199   1 H    0.998 --   110 C    0.967
   200   1 H    0.997 --   111 C    0.968
   201   1 H    0.997 --   113 C    0.980
   202   1 H    0.995 --   113 C    0.964
   203   1 H    0.997 --   113 C    0.982
   204   1 H    0.997 --   114 C    0.968
   205   1 H    0.998 --   115 C    0.968
   206   1 H    0.994 --   118 C    0.933
   207   1 H    0.995 --   123 C    0.962
   208   1 H    0.994 --   125 C    0.958
   209   1 H    0.995 --   130 C    0.957
 ---------------------------------------------------------------------------

Topologies differ in bond orders
Writing corrected topology to xtbtopo.mol

molecular dipole:
                 x           y           z       tot (Debye)
 q only:       -2.166       2.298      -5.481
   full:       -1.825       2.336      -5.459      15.789
molecular quadrupole (traceless):
                xx          xy          yy          xz          yz          zz
 q only:      -12.630     -17.527      -8.858     -18.911      86.933      21.488
  q+dip:       -3.433     -39.927      -6.164     -15.713     105.551       9.596
   full:       -7.962     -41.788      -1.996     -19.745     101.897       9.958


           -------------------------------------------------
          | TOTAL ENERGY             -357.971500589150 Eh   |
          | GRADIENT NORM               0.023455935802 Eh/α |
          | HOMO-LUMO GAP               0.623588567022 eV   |
           -------------------------------------------------

------------------------------------------------------------------------
 * finished run on 2022/02/18 at 01:31:12.327     
------------------------------------------------------------------------
 total:
 * wall-time:     0 d,  0 h,  0 min,  1.008 sec
 *  cpu-time:     0 d,  0 h,  0 min,  7.943 sec
 * ratio c/w:     7.883 speedup
 SCF:
 * wall-time:     0 d,  0 h,  0 min,  0.911 sec
 *  cpu-time:     0 d,  0 h,  0 min,  7.262 sec
 * ratio c/w:     7.975 speedup

