      -----------------------------------------------------------      
     |                   =====================                   |     
     |                           x T B                           |     
     |                   =====================                   |     
     |                         S. Grimme                         |     
     |          Mulliken Center for Theoretical Chemistry        |     
     |                    University of Bonn                     |     
      -----------------------------------------------------------      

   * xtb version 6.4.1 (unknown) compiled by 'oda6@login1.crc.pitt.edu' on 2021-06-25

   xtb is free software: you can redistribute it and/or modify it under
   the terms of the GNU Lesser General Public License as published by
   the Free Software Foundation, either version 3 of the License, or
   (at your option) any later version.
   
   xtb is distributed in the hope that it will be useful,
   but WITHOUT ANY WARRANTY; without even the implied warranty of
   MERCHANTABILITY or FITNESS FOR A PARTICULAR PURPOSE.  See the
   GNU Lesser General Public License for more details.
   
   Cite this work as:
   * C. Bannwarth, E. Caldeweyher, S. Ehlert, A. Hansen, P. Pracht,
     J. Seibert, S. Spicher, S. Grimme, WIREs Comput. Mol. Sci., 2020, 11,
     e01493. DOI: 10.1002/wcms.1493
   
   for GFN2-xTB:
   * C. Bannwarth, S. Ehlert and S. Grimme., J. Chem. Theory Comput., 2019,
     15, 1652-1671. DOI: 10.1021/acs.jctc.8b01176
   for GFN1-xTB:
   * S. Grimme, C. Bannwarth, P. Shushkov, J. Chem. Theory Comput., 2017,
     13, 1989-2009. DOI: 10.1021/acs.jctc.7b00118
   for GFN0-xTB:
   * P. Pracht, E. Caldeweyher, S. Ehlert, S. Grimme, ChemRxiv, 2019, preprint.
     DOI: 10.26434/chemrxiv.8326202.v1
   for GFN-FF:
   * S. Spicher and S. Grimme, Angew. Chem. Int. Ed., 2020, 59, 15665-15673.
     DOI: 10.1002/anie.202004239
   
   for DFT-D4:
   * E. Caldeweyher, C. Bannwarth and S. Grimme, J. Chem. Phys., 2017,
     147, 034112. DOI: 10.1063/1.4993215
   * E. Caldeweyher, S. Ehlert, A. Hansen, H. Neugebauer, S. Spicher,
     C. Bannwarth and S. Grimme, J. Chem. Phys., 2019, 150, 154122.
     DOI: 10.1063/1.5090222
   * E. Caldeweyher, J.-M. Mewes, S. Ehlert and S. Grimme, Phys. Chem. Chem. Phys.
     2020, 22, 8499-8512. DOI: 10.1039/D0CP00502A
   
   for sTDA-xTB:
   * S. Grimme and C. Bannwarth, J. Chem. Phys., 2016, 145, 054103.
     DOI: 10.1063/1.4959605
   
   in the mass-spec context:
   * V. Asgeirsson, C. Bauer and S. Grimme, Chem. Sci., 2017, 8, 4879.
     DOI: 10.1039/c7sc00601b
   * J. Koopman and S. Grimme, ACS Omega 2019, 4, 12, 15120-15133.
     DOI: 10.1021/acsomega.9b02011
   
   for metadynamics refer to:
   * S. Grimme, J. Chem. Theory Comput., 2019, 155, 2847-2862
     DOI: 10.1021/acs.jctc.9b00143
   
   for SPH calculations refer to:
   * S. Spicher and S. Grimme, J. Chem. Theory Comput., 2021, 17, 1701-1714
     DOI: 10.1021/acs.jctc.0c01306
   
   with help from (in alphabetical order)
   P. Atkinson, C. Bannwarth, F. Bohle, G. Brandenburg, E. Caldeweyher
   M. Checinski, S. Dohm, S. Ehlert, S. Ehrlich, I. Gerasimov, J. Koopman
   C. Lavigne, S. Lehtola, F. März, M. Müller, F. Musil, H. Neugebauer
   J. Pisarek, C. Plett, P. Pracht, J. Seibert, P. Shushkov, S. Spicher
   M. Stahn, M. Steiner, T. Strunk, J. Stückrath, T. Rose, and J. Unsleber
   
 * started run on 2022/02/03 at 15:51:47.486     

           -------------------------------------------------
          |                Calculation Setup                |
           -------------------------------------------------

          program call               : /ihome/ghutchison/oda6/xtb/xtb-641/bin/xtb ../../GFN2_output/7_49_83_49_2.mol --sp --alpb hexane
          hostname                   : smp-n36
          coordinate file            : ../../GFN2_output/7_49_83_49_2.mol
          omp threads                :                     8
          number of atoms            :                   118
          number of electrons        :                   372
          charge                     :                     0
          spin                       :                   0.0
          first test random number   :      0.60366464793286

   ID    Z sym.   atoms
    1    6 C      1, 2, 4, 7-9, 11-16, 18-22, 24-27, 29, 30, 32, 33, 35-39,
                  41, 42, 44, 45, 47, 48, 50-59, 61-63, 65-67, 69-72, 74
    2   16 S      3, 5, 23, 34, 40, 49, 68
    3    7 N      6, 28, 31, 43, 46, 73, 75
    4    8 O      10, 64
    5   34 Se     17, 60
    6    1 H      76-118

           -------------------------------------------------
          |                 G F N 2 - x T B                 |
           -------------------------------------------------

        Reference                      10.1021/acs.jctc.8b01176
      * Hamiltonian:
        H0-scaling (s, p, d)           1.850000    2.230000    2.230000
        zeta-weighting                 0.500000
      * Dispersion:
        s8                             2.700000
        a1                             0.520000
        a2                             5.000000
        s9                             5.000000
      * Repulsion:
        kExp                           1.500000    1.000000
        rExp                           1.000000
      * Coulomb:
        alpha                          2.000000
        third order                    shell-resolved
        anisotropic                    true
        a3                             3.000000
        a5                             4.000000
        cn-shift                       1.200000
        cn-exp                         4.000000
        max-rad                        5.000000

      * Solvation model:               ALPB
        Solvent                        hexane
        Parameter file                 internal GFN2-xTB/ALPB
        Dielectric constant                1.8800E+00
        Reference state                gsolv [1 M gas/solution]
        Free energy shift                  4.8134E-03 Eh       3.0204E+00 kcal/mol
        Temperature                        2.9815E+02 K
        Density                            6.6000E-01 kg/L
        Solvent mass                       8.6180E+01 g/mol
        Interaction kernel             P16
        Born radius scaling (c1)           1.1040E+00
        Born radii integrator          GBOBC
        Born offset                        0.0000E+00 a0       0.0000E+00 AA
        H-bond correction              false
        Ion screening                  false
        Surface tension                    1.0000E-05 Eh       1.5569E+01 dyn/cm
        Grid points                               230 per atom

          ...................................................
          :                      SETUP                      :
          :.................................................:
          :  # basis functions                 397          :
          :  # atomic orbitals                 388          :
          :  # shells                          202          :
          :  # electrons                       372          :
          :  max. iterations                   250          :
          :  Hamiltonian                  GFN2-xTB          :
          :  restarted?                      false          :
          :  GBSA solvation                   true          :
          :  PC potential                    false          :
          :  electronic temp.          300.0000000     K    :
          :  accuracy                    1.0000000          :
          :  -> integral cutoff          0.2500000E+02      :
          :  -> integral neglect         0.1000000E-07      :
          :  -> SCF convergence          0.1000000E-05 Eh   :
          :  -> wf. convergence          0.1000000E-03 e    :
          :  Broyden damping             0.4000000          :
          ...................................................

 iter      E             dE          RMSdq      gap      omega  full diag
   1   -204.4432483 -0.204443E+03  0.429E+00    1.21       0.0  T
   2   -204.6836303 -0.240382E+00  0.247E+00    0.74       1.0  T
   3   -204.6660846  0.175457E-01  0.130E+00    0.82       1.0  T
   4   -204.7210710 -0.549865E-01  0.563E-01    0.90       1.0  T
   5   -204.7422388 -0.211678E-01  0.208E-01    0.68       1.0  T
   6   -204.7438136 -0.157477E-02  0.109E-01    0.75       1.0  T
   7   -204.7444176 -0.604007E-03  0.336E-02    0.73       1.0  T
   8   -204.7444434 -0.258457E-04  0.178E-02    0.73       1.0  T
   9   -204.7444481 -0.468254E-05  0.106E-02    0.73       1.0  T
  10   -204.7444510 -0.290553E-05  0.573E-03    0.73       1.6  T
  11   -204.7444516 -0.581429E-06  0.298E-03    0.73       3.1  T
  12   -204.7444517 -0.134682E-06  0.183E-03    0.73       5.0  T
  13   -204.7444518 -0.122621E-06  0.752E-04    0.73      12.2  T
  14   -204.7444519 -0.132914E-07  0.441E-04    0.73      20.9  T

   *** convergence criteria satisfied after 14 iterations ***

         #    Occupation            Energy/Eh            Energy/eV
      -------------------------------------------------------------
         1        2.0000           -0.7605445             -20.6955
       ...           ...                  ...                  ...
       180        2.0000           -0.3874539             -10.5432
       181        2.0000           -0.3826342             -10.4120
       182        2.0000           -0.3757898             -10.2258
       183        2.0000           -0.3749518             -10.2030
       184        2.0000           -0.3734154             -10.1612
       185        2.0000           -0.3624334              -9.8623
       186        2.0000           -0.3592469              -9.7756 (HOMO)
       187        0.0000           -0.3323609              -9.0440 (LUMO)
       188                         -0.3230648              -8.7910
       189                         -0.3169498              -8.6246
       190                         -0.2938452              -7.9959
       191                         -0.2845275              -7.7424
       ...                                ...                  ...
       388                          1.1757937              31.9950
      -------------------------------------------------------------
                  HL-Gap            0.0268860 Eh            0.7316 eV
             Fermi-level           -0.3457876 Eh           -9.4094 eV

 SCC (total)                   0 d,  0 h,  0 min,  0.296 sec
 SCC setup                      ...        0 min,  0.003 sec (  0.882%)
 Dispersion                     ...        0 min,  0.004 sec (  1.258%)
 classical contributions        ...        0 min,  0.000 sec (  0.049%)
 integral evaluation            ...        0 min,  0.015 sec (  5.150%)
 iterations                     ...        0 min,  0.233 sec ( 78.711%)
 molecular gradient             ...        0 min,  0.040 sec ( 13.512%)
 printout                       ...        0 min,  0.001 sec (  0.410%)

         :::::::::::::::::::::::::::::::::::::::::::::::::::::
         ::                     SUMMARY                     ::
         :::::::::::::::::::::::::::::::::::::::::::::::::::::
         :: total energy            -201.816043424577 Eh    ::
         :: total w/o Gsasa/hb      -201.743472588080 Eh    ::
         :: gradient norm              0.018014106430 Eh/a0 ::
         :: HOMO-LUMO gap              0.731605322971 eV    ::
         ::.................................................::
         :: SCC energy              -204.744451856193 Eh    ::
         :: -> isotropic ES            0.122242981416 Eh    ::
         :: -> anisotropic ES          0.010753281743 Eh    ::
         :: -> anisotropic XC          0.107621664219 Eh    ::
         :: -> dispersion             -0.191597716372 Eh    ::
         :: -> Gsolv                  -0.092147845013 Eh    ::
         ::    -> Gelec               -0.019577008517 Eh    ::
         ::    -> Gsasa               -0.077384192316 Eh    ::
         ::    -> Ghb                  0.000000000000 Eh    ::
         ::    -> Gshift               0.004813355820 Eh    ::
         :: repulsion energy           2.929856934666 Eh    ::
         :: add. restraining           0.000000000000 Eh    ::
         :: total charge               0.000000000005 e     ::
         :::::::::::::::::::::::::::::::::::::::::::::::::::::

           -------------------------------------------------
          |                Property Printout                |
           -------------------------------------------------

    * Orbital Energies and Occupations

         #    Occupation            Energy/Eh            Energy/eV
      -------------------------------------------------------------
         1        2.0000           -0.7605445             -20.6955
       ...           ...                  ...                  ...
       174        2.0000           -0.4097531             -11.1499
       175        2.0000           -0.4065841             -11.0637
       176        2.0000           -0.4046915             -11.0122
       177        2.0000           -0.4018964             -10.9362
       178        2.0000           -0.3951053             -10.7514
       179        2.0000           -0.3932384             -10.7006
       180        2.0000           -0.3874539             -10.5432
       181        2.0000           -0.3826342             -10.4120
       182        2.0000           -0.3757898             -10.2258
       183        2.0000           -0.3749518             -10.2030
       184        2.0000           -0.3734154             -10.1612
       185        2.0000           -0.3624334              -9.8623
       186        2.0000           -0.3592469              -9.7756 (HOMO)
       187        0.0000           -0.3323609              -9.0440 (LUMO)
       188                         -0.3230648              -8.7910
       189                         -0.3169498              -8.6246
       190                         -0.2938452              -7.9959
       191                         -0.2845275              -7.7424
       192                         -0.2772588              -7.5446
       193                         -0.2677656              -7.2863
       194                         -0.2521286              -6.8608
       195                         -0.2491722              -6.7803
       196                         -0.2440671              -6.6414
       197                         -0.2431046              -6.6152
       ...                                ...                  ...
       388                          1.1757937              31.9950
      -------------------------------------------------------------
                  HL-Gap            0.0268860 Eh            0.7316 eV
             Fermi-level           -0.3457876 Eh           -9.4094 eV

     #   Z          covCN         q      C6AA      α(0)
     1   6 C        2.956    -0.015    28.382     8.738
     2   6 C        2.958    -0.012    28.303     8.726
     3  16 S        2.351    -0.049   143.082    20.132
     4   6 C        2.907     0.161    24.526     8.120
     5  16 S        1.160    -0.363   155.067    21.055
     6   7 N        2.906    -0.046    22.128     6.987
     7   6 C        3.746     0.006    20.535     6.464
     8   6 C        3.753    -0.110    22.653     6.787
     9   6 C        2.909     0.268    22.489     7.776
    10   8 O        1.017    -0.405    21.709     6.251
    11   6 C        2.961     0.013    27.728     8.637
    12   6 C        3.104    -0.045    28.971     8.820
    13   6 C        3.099     0.005    27.787     8.639
    14   6 C        3.805    -0.058    21.620     6.619
    15   6 C        3.753    -0.100    22.459     6.758
    16   6 C        3.008    -0.003    28.085     8.693
    17  34 Se       2.462    -0.008   236.011    26.769
    18   6 C        3.024     0.016    27.625     8.621
    19   6 C        3.106    -0.004    27.986     8.668
    20   6 C        3.804    -0.054    21.546     6.608
    21   6 C        3.753    -0.103    22.525     6.768
    22   6 C        3.207     0.007    27.243     8.499
    23  16 S        2.182    -0.039   142.674    20.104
    24   6 C        3.103     0.003    27.819     8.643
    25   6 C        3.096    -0.038    28.826     8.799
    26   6 C        2.977     0.077    26.273     8.408
    27   6 C        2.977     0.077    26.275     8.408
    28   7 N        1.842    -0.246    27.266     7.739
    29   6 C        2.908     0.052    26.833     8.494
    30   6 C        2.908     0.052    26.832     8.494
    31   7 N        1.842    -0.246    27.260     7.738
    32   6 C        3.095    -0.038    28.828     8.800
    33   6 C        3.103     0.005    27.775     8.636
    34  16 S        2.180    -0.035   142.512    20.092
    35   6 C        3.204     0.008    27.259     8.504
    36   6 C        3.099     0.001    27.893     8.655
    37   6 C        3.804    -0.055    21.554     6.609
    38   6 C        3.754    -0.102    22.500     6.764
    39   6 C        3.017     0.016    27.638     8.624
    40  16 S        2.276    -0.085   144.609    20.240
    41   6 C        3.117     0.005    27.735     8.626
    42   6 C        3.248     0.025    26.443     8.326
    43   7 N        2.799    -0.034    21.900     6.950
    44   6 C        3.071     0.033    27.198     8.551
    45   6 C        3.071     0.031    27.235     8.557
    46   7 N        2.801    -0.033    21.870     6.946
    47   6 C        3.250     0.025    26.429     8.322
    48   6 C        3.120     0.001    27.822     8.639
    49  16 S        2.271    -0.083   144.526    20.234
    50   6 C        3.744    -0.006    20.753     6.499
    51   6 C        3.752    -0.113    22.730     6.799
    52   6 C        3.744    -0.006    20.756     6.499
    53   6 C        3.752    -0.113    22.726     6.798
    54   6 C        3.010     0.005    27.905     8.665
    55   6 C        3.083    -0.051    29.175     8.855
    56   6 C        3.108     0.015    27.529     8.596
    57   6 C        3.805    -0.057    21.600     6.616
    58   6 C        3.753    -0.099    22.444     6.756
    59   6 C        2.968     0.007    27.867     8.659
    60  34 Se       2.439    -0.020   236.396    26.791
    61   6 C        2.917    -0.011    28.282     8.721
    62   6 C        3.028    -0.048    29.151     8.856
    63   6 C        2.886     0.229    23.200     7.897
    64   8 O        1.017    -0.365    20.917     6.136
    65   6 C        3.239    -0.030    27.806     8.551
    66   6 C        3.066    -0.031    28.699     8.785
    67   6 C        2.959    -0.020    28.502     8.757
    68  16 S        2.253     0.065   138.414    19.801
    69   6 C        3.086     0.010    27.695     8.627
    70   6 C        3.028     0.034    27.219     8.558
    71   6 C        2.947     0.005    27.919     8.666
    72   6 C        1.926     0.132    27.875     8.526
    73   7 N        0.911    -0.272    27.039     7.521
    74   6 C        1.933     0.128    27.943     8.537
    75   7 N        0.911    -0.260    26.738     7.479
    76   1 H        0.925     0.073     2.057     2.243
    77   1 H        0.924     0.077     2.012     2.218
    78   1 H        0.924     0.081     1.968     2.194
    79   1 H        0.925     0.056     2.244     2.342
    80   1 H        0.925     0.061     2.187     2.313
    81   1 H        0.925     0.051     2.308     2.376
    82   1 H        0.926     0.047     2.357     2.401
    83   1 H        0.924     0.054     2.268     2.355
    84   1 H        0.924     0.045     2.381     2.413
    85   1 H        0.925     0.038     2.479     2.462
    86   1 H        0.925     0.038     2.474     2.460
    87   1 H        0.925     0.043     2.414     2.429
    88   1 H        0.924     0.058     2.224     2.332
    89   1 H        0.924     0.059     2.216     2.328
    90   1 H        0.925     0.052     2.295     2.369
    91   1 H        0.925     0.050     2.317     2.381
    92   1 H        0.924     0.057     2.238     2.340
    93   1 H        0.925     0.045     2.388     2.416
    94   1 H        0.925     0.045     2.387     2.416
    95   1 H        0.924     0.069     2.095     2.263
    96   1 H        0.924     0.061     2.191     2.315
    97   1 H        0.925     0.053     2.288     2.365
    98   1 H        0.925     0.054     2.265     2.353
    99   1 H        0.925     0.049     2.338     2.391
   100   1 H        0.925     0.068     2.104     2.268
   101   1 H        0.924     0.074     2.044     2.236
   102   1 H        0.925     0.054     2.271     2.357
   103   1 H        0.925     0.050     2.321     2.382
   104   1 H        0.925     0.050     2.326     2.385
   105   1 H        0.925     0.069     2.097     2.265
   106   1 H        0.924     0.074     2.043     2.235
   107   1 H        0.925     0.049     2.328     2.386
   108   1 H        0.925     0.054     2.267     2.355
   109   1 H        0.925     0.049     2.327     2.385
   110   1 H        0.926     0.047     2.361     2.403
   111   1 H        0.924     0.050     2.315     2.380
   112   1 H        0.924     0.050     2.324     2.384
   113   1 H        0.925     0.036     2.498     2.472
   114   1 H        0.925     0.039     2.457     2.451
   115   1 H        0.925     0.050     2.322     2.383
   116   1 H        0.925     0.073     2.055     2.242
   117   1 H        0.926     0.070     2.081     2.256
   118   1 H        0.926     0.072     2.064     2.247

 Mol. C6AA /au·bohr⁶  :     263463.647584
 Mol. C8AA /au·bohr⁸  :    8041441.417530
 Mol. α(0) /au        :        821.930879


Wiberg/Mayer (AO) data.
largest (>0.10) Wiberg bond orders for each atom

 ---------------------------------------------------------------------------
     #   Z sym  total        # sym  WBO       # sym  WBO       # sym  WBO
 ---------------------------------------------------------------------------
     1   6 C    3.932 --     2 C    1.502    11 C    1.295    76 H    0.951
     2   6 C    3.922 --     1 C    1.502     9 C    1.123     3 S    1.059
     3  16 S    2.520 --     4 C    1.110     2 C    1.059     5 S    0.153
     4   6 C    3.941 --     5 S    1.538     6 N    1.216     3 S    1.110
     5  16 S    1.869 --     4 C    1.538     3 S    0.153
     6   7 N    3.611 --     4 C    1.216     9 C    1.132     7 C    0.958
                            10 O    0.108
     7   6 C    3.945 --     8 C    1.007    77 H    0.965    78 H    0.964
                             6 N    0.958
     8   6 C    3.990 --     7 C    1.007    81 H    0.986    79 H    0.985
                            80 H    0.981
     9   6 C    3.936 --    10 O    1.543     6 N    1.132     2 C    1.123
    10   8 O    2.126 --     9 C    1.543    17 Se   0.243     6 N    0.108
    11   6 C    3.951 --    12 C    1.362     1 C    1.295    17 Se   1.120
    12   6 C    3.970 --    13 C    1.394    11 C    1.362    82 H    0.961
                            17 Se   0.110
    13   6 C    3.961 --    12 C    1.394    16 C    1.373    14 C    1.010
    14   6 C    3.994 --    13 C    1.010    15 C    1.002    84 H    0.974
                            83 H    0.956
    15   6 C    3.992 --    14 C    1.002    86 H    0.988    85 H    0.986
                            87 H    0.986
    16   6 C    3.948 --    13 C    1.373    17 Se   1.185    18 C    1.173
    17  34 Se   3.042 --    16 C    1.185    11 C    1.120    10 O    0.243
                            12 C    0.110
    18   6 C    3.914 --    19 C    1.465    16 C    1.173    49 S    1.061
    19   6 C    3.960 --    18 C    1.465    22 C    1.271    20 C    1.012
    20   6 C    3.995 --    19 C    1.012    21 C    0.997    88 H    0.965
                            89 H    0.947
    21   6 C    3.987 --    20 C    0.997    91 H    0.985    90 H    0.983
                            92 H    0.962
    22   6 C    3.925 --    48 C    1.353    19 C    1.271    23 S    1.094
    23  16 S    2.512 --    24 C    1.110    22 C    1.094
    24   6 C    3.923 --    47 C    1.320    25 C    1.265    23 S    1.110
    25   6 C    3.960 --    45 C    1.272    24 C    1.265    26 C    1.182
    26   6 C    3.975 --    31 N    1.340    27 C    1.225    25 C    1.182
    27   6 C    3.975 --    28 N    1.340    26 C    1.225    32 C    1.182
    28   7 N    3.049 --    29 C    1.490    27 C    1.340
    29   6 C    3.959 --    28 N    1.490    30 C    1.339    93 H    0.963
    30   6 C    3.959 --    31 N    1.491    29 C    1.339    94 H    0.963
    31   7 N    3.049 --    30 C    1.491    26 C    1.340
    32   6 C    3.961 --    44 C    1.272    33 C    1.265    27 C    1.182
    33   6 C    3.919 --    42 C    1.315    32 C    1.265    34 S    1.112
    34  16 S    2.513 --    33 C    1.112    35 C    1.092
    35   6 C    3.925 --    41 C    1.337    36 C    1.290    34 S    1.092
    36   6 C    3.954 --    39 C    1.430    35 C    1.290    37 C    1.015
    37   6 C    3.992 --    36 C    1.015    38 C    0.995    96 H    0.967
                            95 H    0.932
    38   6 C    3.988 --    37 C    0.995    99 H    0.986    98 H    0.983
                            97 H    0.967
    39   6 C    3.911 --    36 C    1.430    54 C    1.221    40 S    1.055
    40  16 S    2.521 --    41 C    1.116    39 C    1.055
    41   6 C    3.909 --    35 C    1.337    42 C    1.245    40 S    1.116
    42   6 C    3.939 --    33 C    1.315    41 C    1.245    43 N    1.153
    43   7 N    3.554 --    44 C    1.168    42 C    1.153    52 C    0.980
    44   6 C    3.934 --    32 C    1.272    45 C    1.231    43 N    1.168
    45   6 C    3.937 --    25 C    1.272    44 C    1.231    46 N    1.169
    46   7 N    3.559 --    45 C    1.169    47 C    1.157    50 C    0.981
    47   6 C    3.938 --    24 C    1.320    48 C    1.235    46 N    1.157
    48   6 C    3.928 --    22 C    1.353    47 C    1.235    49 S    1.110
    49  16 S    2.532 --    48 C    1.110    18 C    1.061
    50   6 C    3.960 --    51 C    1.006    46 N    0.981   101 H    0.963
                           100 H    0.955
    51   6 C    3.989 --    50 C    1.006   103 H    0.986   102 H    0.983
                           104 H    0.983
    52   6 C    3.960 --    53 C    1.007    43 N    0.980   106 H    0.963
                           105 H    0.955
    53   6 C    3.989 --    52 C    1.007   109 H    0.987   108 H    0.983
                           107 H    0.983
    54   6 C    3.948 --    55 C    1.374    39 C    1.221    60 Se   1.179
    55   6 C    3.961 --    56 C    1.419    54 C    1.374   110 H    0.954
    56   6 C    3.956 --    55 C    1.419    59 C    1.302    57 C    1.015
    57   6 C    3.994 --    56 C    1.015    58 C    0.994   112 H    0.972
                           111 H    0.964
    58   6 C    3.991 --    57 C    0.994   114 H    0.988   113 H    0.987
                           115 H    0.984
    59   6 C    3.944 --    61 C    1.340    56 C    1.302    60 Se   1.104
    60  34 Se   3.011 --    54 C    1.179    59 C    1.104    64 O    0.247
    61   6 C    3.943 --    62 C    1.459    59 C    1.340   116 H    0.932
    62   6 C    3.948 --    61 C    1.459    70 C    1.134    63 C    1.086
    63   6 C    3.909 --    64 O    1.640    62 C    1.086    65 C    1.036
    64   8 O    2.163 --    63 C    1.640    60 Se   0.247
    65   6 C    3.959 --    69 C    1.388    66 C    1.286    63 C    1.036
    66   6 C    3.980 --    67 C    1.593    65 C    1.286   117 H    0.960
    67   6 C    3.925 --    66 C    1.593    68 S    1.208   118 H    0.967
    68  16 S    2.707 --    67 C    1.208    69 C    1.202
    69   6 C    3.939 --    65 C    1.388    68 S    1.202    70 C    1.130
    70   6 C    3.970 --    71 C    1.446    62 C    1.134    69 C    1.130
    71   6 C    3.953 --    70 C    1.446    72 C    1.111    74 C    1.102
    72   6 C    3.943 --    73 N    2.740    71 C    1.111
    73   7 N    2.945 --    72 C    2.740
    74   6 C    3.944 --    75 N    2.759    71 C    1.102
    75   7 N    2.968 --    74 C    2.759
    76   1 H    0.994 --     1 C    0.951
    77   1 H    0.994 --     7 C    0.965
    78   1 H    0.993 --     7 C    0.964
    79   1 H    0.997 --     8 C    0.985
    80   1 H    0.995 --     8 C    0.981
    81   1 H    0.997 --     8 C    0.986
    82   1 H    0.997 --    12 C    0.961
    83   1 H    0.995 --    14 C    0.956
    84   1 H    0.997 --    14 C    0.974
    85   1 H    0.999 --    15 C    0.986
    86   1 H    0.998 --    15 C    0.988
    87   1 H    0.997 --    15 C    0.986
    88   1 H    0.996 --    20 C    0.965
    89   1 H    0.996 --    20 C    0.947
    90   1 H    0.996 --    21 C    0.983
    91   1 H    0.997 --    21 C    0.985
    92   1 H    0.997 --    21 C    0.962
    93   1 H    0.997 --    29 C    0.963
    94   1 H    0.997 --    30 C    0.963
    95   1 H    0.994 --    37 C    0.932
    96   1 H    0.995 --    37 C    0.967
    97   1 H    0.997 --    38 C    0.967
    98   1 H    0.995 --    38 C    0.983
    99   1 H    0.997 --    38 C    0.986
   100   1 H    0.993 --    50 C    0.955
   101   1 H    0.994 --    50 C    0.963
   102   1 H    0.996 --    51 C    0.983
   103   1 H    0.997 --    51 C    0.986
   104   1 H    0.997 --    51 C    0.983
   105   1 H    0.993 --    52 C    0.955
   106   1 H    0.994 --    52 C    0.963
   107   1 H    0.997 --    53 C    0.983
   108   1 H    0.996 --    53 C    0.983
   109   1 H    0.997 --    53 C    0.987
   110   1 H    0.997 --    55 C    0.954
   111   1 H    0.996 --    57 C    0.964
   112   1 H    0.997 --    57 C    0.972
   113   1 H    0.999 --    58 C    0.987
   114   1 H    0.998 --    58 C    0.988
   115   1 H    0.996 --    58 C    0.984
   116   1 H    0.993 --    61 C    0.932
   117   1 H    0.995 --    66 C    0.960
   118   1 H    0.994 --    67 C    0.967
 ---------------------------------------------------------------------------

Topologies differ in bond orders
Writing corrected topology to xtbtopo.mol

molecular dipole:
                 x           y           z       tot (Debye)
 q only:       -0.454       0.953       0.364
   full:       -0.487       0.935       0.614       3.101
molecular quadrupole (traceless):
                xx          xy          yy          xz          yz          zz
 q only:      113.031      15.572    -109.877     -42.553     130.579      -3.155
  q+dip:      121.612      30.302    -113.918     -52.285     136.571      -7.694
   full:      116.168      26.697    -111.905     -53.911     145.981      -4.264


           -------------------------------------------------
          | TOTAL ENERGY             -201.816043424577 Eh   |
          | GRADIENT NORM               0.018014106430 Eh/α |
          | HOMO-LUMO GAP               0.731605322971 eV   |
           -------------------------------------------------

------------------------------------------------------------------------
 * finished run on 2022/02/03 at 15:51:47.858     
------------------------------------------------------------------------
 total:
 * wall-time:     0 d,  0 h,  0 min,  0.372 sec
 *  cpu-time:     0 d,  0 h,  0 min,  2.835 sec
 * ratio c/w:     7.621 speedup
 SCF:
 * wall-time:     0 d,  0 h,  0 min,  0.298 sec
 *  cpu-time:     0 d,  0 h,  0 min,  2.376 sec
 * ratio c/w:     7.985 speedup

