      -----------------------------------------------------------      
     |                   =====================                   |     
     |                           x T B                           |     
     |                   =====================                   |     
     |                         S. Grimme                         |     
     |          Mulliken Center for Theoretical Chemistry        |     
     |                    University of Bonn                     |     
      -----------------------------------------------------------      

   * xtb version 6.4.1 (unknown) compiled by 'oda6@login1.crc.pitt.edu' on 2021-06-25

   xtb is free software: you can redistribute it and/or modify it under
   the terms of the GNU Lesser General Public License as published by
   the Free Software Foundation, either version 3 of the License, or
   (at your option) any later version.
   
   xtb is distributed in the hope that it will be useful,
   but WITHOUT ANY WARRANTY; without even the implied warranty of
   MERCHANTABILITY or FITNESS FOR A PARTICULAR PURPOSE.  See the
   GNU Lesser General Public License for more details.
   
   Cite this work as:
   * C. Bannwarth, E. Caldeweyher, S. Ehlert, A. Hansen, P. Pracht,
     J. Seibert, S. Spicher, S. Grimme, WIREs Comput. Mol. Sci., 2020, 11,
     e01493. DOI: 10.1002/wcms.1493
   
   for GFN2-xTB:
   * C. Bannwarth, S. Ehlert and S. Grimme., J. Chem. Theory Comput., 2019,
     15, 1652-1671. DOI: 10.1021/acs.jctc.8b01176
   for GFN1-xTB:
   * S. Grimme, C. Bannwarth, P. Shushkov, J. Chem. Theory Comput., 2017,
     13, 1989-2009. DOI: 10.1021/acs.jctc.7b00118
   for GFN0-xTB:
   * P. Pracht, E. Caldeweyher, S. Ehlert, S. Grimme, ChemRxiv, 2019, preprint.
     DOI: 10.26434/chemrxiv.8326202.v1
   for GFN-FF:
   * S. Spicher and S. Grimme, Angew. Chem. Int. Ed., 2020, 59, 15665-15673.
     DOI: 10.1002/anie.202004239
   
   for DFT-D4:
   * E. Caldeweyher, C. Bannwarth and S. Grimme, J. Chem. Phys., 2017,
     147, 034112. DOI: 10.1063/1.4993215
   * E. Caldeweyher, S. Ehlert, A. Hansen, H. Neugebauer, S. Spicher,
     C. Bannwarth and S. Grimme, J. Chem. Phys., 2019, 150, 154122.
     DOI: 10.1063/1.5090222
   * E. Caldeweyher, J.-M. Mewes, S. Ehlert and S. Grimme, Phys. Chem. Chem. Phys.
     2020, 22, 8499-8512. DOI: 10.1039/D0CP00502A
   
   for sTDA-xTB:
   * S. Grimme and C. Bannwarth, J. Chem. Phys., 2016, 145, 054103.
     DOI: 10.1063/1.4959605
   
   in the mass-spec context:
   * V. Asgeirsson, C. Bauer and S. Grimme, Chem. Sci., 2017, 8, 4879.
     DOI: 10.1039/c7sc00601b
   * J. Koopman and S. Grimme, ACS Omega 2019, 4, 12, 15120-15133.
     DOI: 10.1021/acsomega.9b02011
   
   for metadynamics refer to:
   * S. Grimme, J. Chem. Theory Comput., 2019, 155, 2847-2862
     DOI: 10.1021/acs.jctc.9b00143
   
   for SPH calculations refer to:
   * S. Spicher and S. Grimme, J. Chem. Theory Comput., 2021, 17, 1701-1714
     DOI: 10.1021/acs.jctc.0c01306
   
   with help from (in alphabetical order)
   P. Atkinson, C. Bannwarth, F. Bohle, G. Brandenburg, E. Caldeweyher
   M. Checinski, S. Dohm, S. Ehlert, S. Ehrlich, I. Gerasimov, J. Koopman
   C. Lavigne, S. Lehtola, F. März, M. Müller, F. Musil, H. Neugebauer
   J. Pisarek, C. Plett, P. Pracht, J. Seibert, P. Shushkov, S. Spicher
   M. Stahn, M. Steiner, T. Strunk, J. Stückrath, T. Rose, and J. Unsleber
   
 * started run on 2022/02/05 at 13:39:01.399     

           -------------------------------------------------
          |                Calculation Setup                |
           -------------------------------------------------

          program call               : /ihome/ghutchison/oda6/xtb/xtb-641/bin/xtb ../../GFN2_output/9_127_86_84_36.mol --sp --alpb hexane
          hostname                   : smp-n29
          coordinate file            : ../../GFN2_output/9_127_86_84_36.mol
          omp threads                :                     8
          number of atoms            :                   231
          number of electrons        :                   710
          charge                     :                     0
          spin                       :                   0.0
          first test random number   :      0.38010305599717

   ID    Z sym.   atoms
    1    6 C      1-3, 5-10, 12-18, 20, 22, 23, 25, 27, 28, 30-33, 35-48,
                  50-53, 57, 58, 60-70, 72, 73, 75, 76, 78, 79, 81-91, 93,
                  95-102, 104-107, 109-111, 113-118, 120-122, 124, 125,
                  127-129, 131-135, 137-141, 143
    2    8 O      4, 130, 136
    3    9 F      11, 24, 26
    4    7 N      19, 21, 29, 34, 54, 56, 74, 77, 142, 144
    5   16 S      49, 55, 59, 71, 80, 92, 103, 108, 119, 123, 126
    6   14 Si     94, 112
    7    1 H      145-231

           -------------------------------------------------
          |                 G F N 2 - x T B                 |
           -------------------------------------------------

        Reference                      10.1021/acs.jctc.8b01176
      * Hamiltonian:
        H0-scaling (s, p, d)           1.850000    2.230000    2.230000
        zeta-weighting                 0.500000
      * Dispersion:
        s8                             2.700000
        a1                             0.520000
        a2                             5.000000
        s9                             5.000000
      * Repulsion:
        kExp                           1.500000    1.000000
        rExp                           1.000000
      * Coulomb:
        alpha                          2.000000
        third order                    shell-resolved
        anisotropic                    true
        a3                             3.000000
        a5                             4.000000
        cn-shift                       1.200000
        cn-exp                         4.000000
        max-rad                        5.000000

      * Solvation model:               ALPB
        Solvent                        hexane
        Parameter file                 internal GFN2-xTB/ALPB
        Dielectric constant                1.8800E+00
        Reference state                gsolv [1 M gas/solution]
        Free energy shift                  4.8134E-03 Eh       3.0204E+00 kcal/mol
        Temperature                        2.9815E+02 K
        Density                            6.6000E-01 kg/L
        Solvent mass                       8.6180E+01 g/mol
        Interaction kernel             P16
        Born radius scaling (c1)           1.1040E+00
        Born radii integrator          GBOBC
        Born offset                        0.0000E+00 a0       0.0000E+00 AA
        H-bond correction              false
        Ion screening                  false
        Surface tension                    1.0000E-05 Eh       1.5569E+01 dyn/cm
        Grid points                               230 per atom

          ...................................................
          :                      SETUP                      :
          :.................................................:
          :  # basis functions                 741          :
          :  # atomic orbitals                 728          :
          :  # shells                          388          :
          :  # electrons                       710          :
          :  max. iterations                   250          :
          :  Hamiltonian                  GFN2-xTB          :
          :  restarted?                      false          :
          :  GBSA solvation                   true          :
          :  PC potential                    false          :
          :  electronic temp.          300.0000000     K    :
          :  accuracy                    1.0000000          :
          :  -> integral cutoff          0.2500000E+02      :
          :  -> integral neglect         0.1000000E-07      :
          :  -> SCF convergence          0.1000000E-05 Eh   :
          :  -> wf. convergence          0.1000000E-03 e    :
          :  Broyden damping             0.4000000          :
          ...................................................

 iter      E             dE          RMSdq      gap      omega  full diag
   1   -390.9188449 -0.390919E+03  0.431E+00    0.96       0.0  T
   2   -391.3337743 -0.414929E+00  0.252E+00    0.67       1.0  T
   3   -391.2285965  0.105178E+00  0.134E+00    0.57       1.0  T
   4   -391.4382398 -0.209643E+00  0.485E-01    0.57       1.0  T
   5   -391.4644364 -0.261966E-01  0.204E-01    0.51       1.0  T
   6   -391.4677260 -0.328951E-02  0.103E-01    0.58       1.0  T
   7   -391.4681094 -0.383457E-03  0.610E-02    0.55       1.0  T
   8   -391.4686053 -0.495921E-03  0.345E-02    0.57       1.0  T
   9   -391.4686494 -0.440880E-04  0.188E-02    0.56       1.0  T
  10   -391.4686647 -0.152635E-04  0.943E-03    0.56       1.0  T
  11   -391.4686702 -0.548061E-05  0.479E-03    0.56       1.4  T
  12   -391.4686710 -0.830733E-06  0.244E-03    0.56       2.7  T
  13   -391.4686714 -0.400442E-06  0.109E-03    0.56       6.0  T
  14   -391.4686715 -0.617896E-07  0.611E-04    0.56      10.8  T
  15   -391.4686715 -0.128769E-07  0.323E-04    0.56      20.4  T

   *** convergence criteria satisfied after 15 iterations ***

         #    Occupation            Energy/Eh            Energy/eV
      -------------------------------------------------------------
         1        2.0000           -0.8427333             -22.9319
       ...           ...                  ...                  ...
       349        2.0000           -0.3782249             -10.2920
       350        2.0000           -0.3774835             -10.2718
       351        2.0000           -0.3769604             -10.2576
       352        2.0000           -0.3751182             -10.2075
       353        2.0000           -0.3703983             -10.0791
       354        2.0000           -0.3631537              -9.8819
       355        2.0000           -0.3585017              -9.7553 (HOMO)
       356        0.0000           -0.3377949              -9.1919 (LUMO)
       357                         -0.3254824              -8.8568
       358                         -0.3213828              -8.7453
       359                         -0.3180837              -8.6555
       360                         -0.3083842              -8.3916
       ...                                ...                  ...
       728                          1.1579231              31.5087
      -------------------------------------------------------------
                  HL-Gap            0.0207068 Eh            0.5635 eV
             Fermi-level           -0.3481448 Eh           -9.4735 eV

 SCC (total)                   0 d,  0 h,  0 min,  0.964 sec
 SCC setup                      ...        0 min,  0.010 sec (  1.040%)
 Dispersion                     ...        0 min,  0.011 sec (  1.147%)
 classical contributions        ...        0 min,  0.000 sec (  0.046%)
 integral evaluation            ...        0 min,  0.048 sec (  4.973%)
 iterations                     ...        0 min,  0.719 sec ( 74.588%)
 molecular gradient             ...        0 min,  0.171 sec ( 17.776%)
 printout                       ...        0 min,  0.004 sec (  0.421%)

         :::::::::::::::::::::::::::::::::::::::::::::::::::::
         ::                     SUMMARY                     ::
         :::::::::::::::::::::::::::::::::::::::::::::::::::::
         :: total energy            -385.556248785143 Eh    ::
         :: total w/o Gsasa/hb      -385.430770616929 Eh    ::
         :: gradient norm              0.023522028345 Eh/a0 ::
         :: HOMO-LUMO gap              0.563460678038 eV    ::
         ::.................................................::
         :: SCC energy              -391.468671478622 Eh    ::
         :: -> isotropic ES            0.259934008459 Eh    ::
         :: -> anisotropic ES          0.020177438448 Eh    ::
         :: -> anisotropic XC          0.203357482649 Eh    ::
         :: -> dispersion             -0.395279068138 Eh    ::
         :: -> Gsolv                  -0.160233119310 Eh    ::
         ::    -> Gelec               -0.034754951096 Eh    ::
         ::    -> Gsasa               -0.130291524034 Eh    ::
         ::    -> Ghb                  0.000000000000 Eh    ::
         ::    -> Gshift               0.004813355820 Eh    ::
         :: repulsion energy           5.906900107103 Eh    ::
         :: add. restraining           0.000000000000 Eh    ::
         :: total charge               0.000000000001 e     ::
         :::::::::::::::::::::::::::::::::::::::::::::::::::::

           -------------------------------------------------
          |                Property Printout                |
           -------------------------------------------------

    * Orbital Energies and Occupations

         #    Occupation            Energy/Eh            Energy/eV
      -------------------------------------------------------------
         1        2.0000           -0.8427333             -22.9319
       ...           ...                  ...                  ...
       343        2.0000           -0.3911913             -10.6449
       344        2.0000           -0.3906463             -10.6300
       345        2.0000           -0.3870145             -10.5312
       346        2.0000           -0.3865027             -10.5173
       347        2.0000           -0.3816265             -10.3846
       348        2.0000           -0.3804793             -10.3534
       349        2.0000           -0.3782249             -10.2920
       350        2.0000           -0.3774835             -10.2718
       351        2.0000           -0.3769604             -10.2576
       352        2.0000           -0.3751182             -10.2075
       353        2.0000           -0.3703983             -10.0791
       354        2.0000           -0.3631537              -9.8819
       355        2.0000           -0.3585017              -9.7553 (HOMO)
       356        0.0000           -0.3377949              -9.1919 (LUMO)
       357                         -0.3254824              -8.8568
       358                         -0.3213828              -8.7453
       359                         -0.3180837              -8.6555
       360                         -0.3083842              -8.3916
       361                         -0.2967246              -8.0743
       362                         -0.2899374              -7.8896
       363                         -0.2862109              -7.7882
       364                         -0.2805452              -7.6340
       365                         -0.2785087              -7.5786
       366                         -0.2676795              -7.2839
       ...                                ...                  ...
       728                          1.1579231              31.5087
      -------------------------------------------------------------
                  HL-Gap            0.0207068 Eh            0.5635 eV
             Fermi-level           -0.3481448 Eh           -9.4735 eV

     #   Z          covCN         q      C6AA      α(0)
     1   6 C        2.904     0.011    27.766     8.640
     2   6 C        3.006    -0.021    28.517     8.760
     3   6 C        2.867     0.236    23.073     7.874
     4   8 O        0.856    -0.404    21.764     6.255
     5   6 C        3.030    -0.016    28.391     8.740
     6   6 C        2.913    -0.015    28.393     8.738
     7   6 C        2.987     0.017    27.618     8.621
     8   6 C        2.922    -0.029    28.718     8.788
     9   6 C        2.913    -0.042    29.043     8.837
    10   6 C        2.782     0.178    24.164     8.052
    11   9 F        0.787    -0.237    11.625     4.028
    12   6 C        2.917    -0.052    29.291     8.875
    13   6 C        2.990     0.024    27.470     8.597
    14   6 C        2.915    -0.030    28.745     8.792
    15   6 C        3.027     0.011    27.748     8.640
    16   6 C        3.006     0.050    26.853     8.500
    17   6 C        2.947     0.003    27.969     8.674
    18   6 C        1.960     0.131    27.873     8.526
    19   7 N        0.911    -0.296    27.619     7.601
    20   6 C        1.961     0.132    27.835     8.520
    21   7 N        0.911    -0.284    27.325     7.560
    22   6 C        2.969    -0.019    28.468     8.752
    23   6 C        2.783     0.158    24.563     8.118
    24   9 F        0.788    -0.205    11.284     3.968
    25   6 C        2.778     0.149    24.744     8.147
    26   9 F        0.788    -0.207    11.304     3.972
    27   6 C        3.039    -0.001    28.019     8.682
    28   6 C        2.986     0.072    26.387     8.426
    29   7 N        2.102    -0.213    26.287     7.607
    30   6 C        2.937     0.090    25.998     8.362
    31   6 C        3.809    -0.067    21.778     6.643
    32   6 C        3.754    -0.106    22.584     6.776
    33   6 C        2.940     0.095    25.899     8.346
    34   7 N        1.853    -0.255    27.481     7.770
    35   6 C        2.966     0.078    26.257     8.405
    36   6 C        3.809    -0.063    21.693     6.630
    37   6 C        3.754    -0.101    22.491     6.763
    38   6 C        2.999     0.032    27.276     8.567
    39   6 C        3.098     0.014    27.581     8.607
    40   6 C        2.973     0.019    27.580     8.614
    41   6 C        2.924    -0.033    28.816     8.803
    42   6 C        2.918    -0.028    28.707     8.786
    43   6 C        2.925    -0.034    28.857     8.809
    44   6 C        2.970     0.018    27.603     8.618
    45   6 C        3.807    -0.060    21.643     6.623
    46   6 C        3.754    -0.099    22.447     6.756
    47   6 C        2.932    -0.035    28.866     8.811
    48   6 C        3.167     0.013    27.362     8.548
    49  16 S        2.200    -0.033   142.439    20.087
    50   6 C        3.094     0.005    27.788     8.640
    51   6 C        3.071    -0.035    28.790     8.798
    52   6 C        3.331     0.070    24.187     7.801
    53   6 C        3.331     0.071    24.189     7.803
    54   7 N        1.852    -0.293    28.438     7.904
    55  16 S        2.671     0.331   128.281    19.063
    56   7 N        1.852    -0.292    28.431     7.903
    57   6 C        3.075    -0.037    28.832     8.804
    58   6 C        3.095     0.002    27.876     8.653
    59  16 S        2.194    -0.049   143.103    20.134
    60   6 C        3.196     0.010    27.262     8.512
    61   6 C        3.105    -0.006    28.041     8.677
    62   6 C        2.973     0.011    27.758     8.642
    63   6 C        2.930    -0.037    28.909     8.818
    64   6 C        2.917    -0.031    28.777     8.797
    65   6 C        2.926    -0.038    28.957     8.825
    66   6 C        2.971     0.016    27.662     8.627
    67   6 C        3.807    -0.059    21.629     6.620
    68   6 C        3.754    -0.095    22.363     6.743
    69   6 C        2.926    -0.044    29.097     8.846
    70   6 C        3.059     0.011    27.704     8.632
    71  16 S        2.627    -0.046   142.960    20.124
    72   6 C        3.128     0.006    27.695     8.617
    73   6 C        3.286     0.030    25.825     8.165
    74   7 N        2.789    -0.033    21.872     6.946
    75   6 C        3.114     0.029    27.210     8.545
    76   6 C        3.117     0.033    27.097     8.526
    77   7 N        2.792    -0.034    21.899     6.950
    78   6 C        3.290     0.033    25.704     8.139
    79   6 C        3.132     0.010    27.581     8.597
    80  16 S        2.546    -0.053   143.253    20.144
    81   6 C        3.741    -0.004    20.726     6.495
    82   6 C        3.752    -0.117    22.795     6.809
    83   6 C        3.742    -0.004    20.716     6.493
    84   6 C        3.751    -0.122    22.896     6.824
    85   6 C        3.066     0.035    27.162     8.546
    86   6 C        3.068    -0.059    29.387     8.889
    87   6 C        3.152     0.003    27.681     8.605
    88   6 C        3.022    -0.008    28.195     8.710
    89   6 C        3.005     0.021    27.521     8.606
    90   6 C        3.062    -0.057    29.346     8.883
    91   6 C        3.193     0.014    27.189     8.503
    92  16 S        2.323    -0.063   143.679    20.174
    93   6 C        2.888    -0.092    30.297     9.024
    94  14 Si       3.582     0.518    97.930    19.023
    95   6 C        3.697    -0.155    23.681     6.961
    96   6 C        3.761    -0.107    22.584     6.775
    97   6 C        3.697    -0.156    23.714     6.966
    98   6 C        3.763    -0.104    22.529     6.766
    99   6 C        3.696    -0.151    23.613     6.951
   100   6 C        3.761    -0.105    22.559     6.771
   101   6 C        3.088    -0.055    29.272     8.869
   102   6 C        3.196     0.018    27.091     8.485
   103  16 S        2.284    -0.066   143.814    20.184
   104   6 C        3.007     0.028    27.357     8.580
   105   6 C        3.132    -0.002    27.874     8.643
   106   6 C        3.016     0.001    27.992     8.679
   107   6 C        3.000     0.022    27.500     8.602
   108  16 S        2.501    -0.062   143.643    20.172
   109   6 C        3.197     0.020    27.028     8.475
   110   6 C        3.089    -0.055    29.248     8.865
   111   6 C        2.888    -0.087    30.186     9.008
   112  14 Si       3.582     0.517    97.947    19.025
   113   6 C        3.696    -0.155    23.693     6.963
   114   6 C        3.760    -0.106    22.582     6.774
   115   6 C        3.696    -0.159    23.770     6.974
   116   6 C        3.759    -0.102    22.497     6.762
   117   6 C        3.696    -0.148    23.551     6.942
   118   6 C        3.761    -0.104    22.526     6.766
   119  16 S        2.330    -0.049   143.104    20.134
   120   6 C        3.191     0.017    27.134     8.496
   121   6 C        3.061    -0.054    29.278     8.873
   122   6 C        3.002     0.026    27.400     8.587
   123  16 S        2.857    -0.062   143.632    20.171
   124   6 C        3.065    -0.037    28.849     8.808
   125   6 C        2.978     0.039    27.119     8.542
   126  16 S        2.292    -0.064   143.722    20.177
   127   6 C        2.945    -0.008    28.223     8.713
   128   6 C        3.007    -0.033    28.800     8.803
   129   6 C        2.867     0.236    23.067     7.873
   130   8 O        0.856    -0.415    21.989     6.287
   131   6 C        3.049    -0.016    28.374     8.736
   132   6 C        2.911    -0.026    28.661     8.779
   133   6 C        2.922    -0.023    28.577     8.766
   134   6 C        2.918    -0.059    29.473     8.903
   135   6 C        2.858     0.158    24.583     8.127
   136   8 O        1.706    -0.269    18.453     5.800
   137   6 C        3.643     0.031    20.393     6.492
   138   6 C        3.032    -0.014    28.337     8.732
   139   6 C        3.021     0.041    27.059     8.533
   140   6 C        2.947     0.012    27.751     8.640
   141   6 C        1.954     0.130    27.892     8.529
   142   7 N        0.911    -0.265    26.864     7.496
   143   6 C        1.951     0.138    27.708     8.501
   144   7 N        0.911    -0.264    26.841     7.493
   145   1 H        0.925     0.093     1.850     2.127
   146   1 H        0.926     0.070     2.080     2.256
   147   1 H        0.926     0.066     2.133     2.284
   148   1 H        0.926     0.072     2.066     2.247
   149   1 H        0.926     0.073     2.051     2.240
   150   1 H        0.926     0.062     2.179     2.308
   151   1 H        0.925     0.057     2.236     2.338
   152   1 H        0.924     0.068     2.107     2.270
   153   1 H        0.925     0.040     2.445     2.445
   154   1 H        0.925     0.054     2.275     2.359
   155   1 H        0.925     0.053     2.283     2.363
   156   1 H        0.924     0.056     2.243     2.342
   157   1 H        0.925     0.057     2.235     2.338
   158   1 H        0.925     0.041     2.434     2.440
   159   1 H        0.925     0.051     2.310     2.377
   160   1 H        0.925     0.046     2.366     2.405
   161   1 H        0.926     0.049     2.327     2.386
   162   1 H        0.926     0.042     2.423     2.434
   163   1 H        0.926     0.041     2.439     2.442
   164   1 H        0.924     0.041     2.435     2.440
   165   1 H        0.924     0.039     2.462     2.454
   166   1 H        0.925     0.035     2.510     2.477
   167   1 H        0.925     0.038     2.470     2.458
   168   1 H        0.925     0.040     2.449     2.447
   169   1 H        0.925     0.034     2.525     2.485
   170   1 H        0.926     0.037     2.495     2.470
   171   1 H        0.926     0.038     2.475     2.460
   172   1 H        0.926     0.038     2.470     2.458
   173   1 H        0.924     0.040     2.454     2.450
   174   1 H        0.924     0.042     2.417     2.431
   175   1 H        0.925     0.037     2.490     2.468
   176   1 H        0.925     0.028     2.610     2.526
   177   1 H        0.925     0.038     2.470     2.458
   178   1 H        0.926     0.040     2.454     2.450
   179   1 H        0.924     0.065     2.141     2.288
   180   1 H        0.925     0.077     2.010     2.217
   181   1 H        0.925     0.056     2.248     2.345
   182   1 H        0.925     0.058     2.219     2.330
   183   1 H        0.925     0.049     2.333     2.389
   184   1 H        0.924     0.066     2.135     2.285
   185   1 H        0.925     0.068     2.102     2.267
   186   1 H        0.925     0.049     2.332     2.388
   187   1 H        0.925     0.061     2.192     2.315
   188   1 H        0.925     0.071     2.074     2.252
   189   1 H        0.926     0.063     2.160     2.298
   190   1 H        0.926     0.051     2.302     2.373
   191   1 H        0.924     0.029     2.601     2.522
   192   1 H        0.924     0.031     2.574     2.509
   193   1 H        0.925     0.031     2.572     2.508
   194   1 H        0.925     0.034     2.536     2.490
   195   1 H        0.925     0.032     2.562     2.503
   196   1 H        0.924     0.031     2.578     2.511
   197   1 H        0.925     0.026     2.641     2.541
   198   1 H        0.925     0.029     2.607     2.525
   199   1 H        0.925     0.027     2.624     2.533
   200   1 H        0.925     0.032     2.559     2.502
   201   1 H        0.924     0.036     2.509     2.477
   202   1 H        0.924     0.034     2.532     2.488
   203   1 H        0.925     0.031     2.572     2.508
   204   1 H        0.925     0.034     2.533     2.489
   205   1 H        0.925     0.030     2.586     2.515
   206   1 H        0.926     0.039     2.465     2.455
   207   1 H        0.926     0.041     2.436     2.441
   208   1 H        0.924     0.031     2.567     2.505
   209   1 H        0.924     0.033     2.545     2.495
   210   1 H        0.925     0.033     2.543     2.494
   211   1 H        0.925     0.030     2.579     2.512
   212   1 H        0.925     0.034     2.526     2.485
   213   1 H        0.925     0.026     2.642     2.542
   214   1 H        0.924     0.029     2.606     2.525
   215   1 H        0.925     0.024     2.671     2.556
   216   1 H        0.925     0.029     2.608     2.525
   217   1 H        0.925     0.026     2.647     2.544
   218   1 H        0.924     0.029     2.598     2.520
   219   1 H        0.924     0.036     2.509     2.477
   220   1 H        0.925     0.032     2.556     2.500
   221   1 H        0.925     0.032     2.563     2.504
   222   1 H        0.925     0.028     2.618     2.530
   223   1 H        0.926     0.071     2.079     2.255
   224   1 H        0.926     0.090     1.875     2.141
   225   1 H        0.925     0.073     2.054     2.241
   226   1 H        0.926     0.067     2.121     2.278
   227   1 H        0.926     0.060     2.198     2.318
   228   1 H        0.926     0.061     2.185     2.312
   229   1 H        0.925     0.084     1.934     2.174
   230   1 H        0.924     0.055     2.255     2.348
   231   1 H        0.924     0.057     2.232     2.337

 Mol. C6AA /au·bohr⁶  :     901082.858514
 Mol. C8AA /au·bohr⁸  :   25634382.273594
 Mol. α(0) /au        :       1516.852446


Wiberg/Mayer (AO) data.
largest (>0.10) Wiberg bond orders for each atom

 ---------------------------------------------------------------------------
     #   Z sym  total        # sym  WBO       # sym  WBO       # sym  WBO
 ---------------------------------------------------------------------------
     1   6 C    3.923 --     2 C    1.555    22 C    1.190   145 H    0.946
     2   6 C    3.951 --     1 C    1.555    16 C    1.144     3 C    1.023
     3   6 C    3.911 --     4 O    1.754     2 C    1.023     5 C    1.021
     4   8 O    2.018 --     3 C    1.754
     5   6 C    3.976 --     6 C    1.524    15 C    1.199     3 C    1.021
     6   6 C    3.977 --     5 C    1.524     7 C    1.270   146 H    0.962
     7   6 C    3.978 --     8 C    1.287     6 C    1.270    13 C    1.240
     8   6 C    3.979 --     9 C    1.545     7 C    1.287   147 H    0.965
                            12 C    0.111
     9   6 C    3.973 --     8 C    1.545    10 C    1.293   148 H    0.965
    10   6 C    3.870 --    12 C    1.491     9 C    1.293    11 F    0.952
    11   9 F    1.077 --    10 C    0.952
    12   6 C    3.975 --    10 C    1.491    13 C    1.287   149 H    0.959
                             8 C    0.111
    13   6 C    3.984 --    12 C    1.287    14 C    1.275     7 C    1.240
    14   6 C    3.968 --    15 C    1.500    13 C    1.275   150 H    0.957
    15   6 C    3.984 --    14 C    1.500     5 C    1.199    16 C    1.089
    16   6 C    3.963 --    17 C    1.455     2 C    1.144    15 C    1.089
    17   6 C    3.955 --    16 C    1.455    20 C    1.109    18 C    1.103
    18   6 C    3.941 --    19 N    2.734    17 C    1.103
    19   7 N    2.960 --    18 C    2.734
    20   6 C    3.941 --    21 N    2.733    17 C    1.109
    21   7 N    2.955 --    20 C    2.733
    22   6 C    3.941 --    23 C    1.331     1 C    1.190    35 C    1.169
    23   6 C    3.861 --    25 C    1.342    22 C    1.331    24 F    0.974
    24   9 F    1.106 --    23 C    0.974
    25   6 C    3.859 --    23 C    1.342    27 C    1.312    26 F    0.968
    26   9 F    1.106 --    25 C    0.968
    27   6 C    3.952 --    25 C    1.312    38 C    1.240    28 C    1.147
    28   6 C    3.974 --    29 N    1.335    35 C    1.244    27 C    1.147
    29   7 N    3.163 --    30 C    1.459    28 C    1.335    80 S    0.125
    30   6 C    3.947 --    29 N    1.459    33 C    1.252    31 C    1.013
    31   6 C    3.990 --    30 C    1.013    32 C    0.991   152 H    0.969
                           151 H    0.968
    32   6 C    3.988 --    31 C    0.991   153 H    0.986   155 H    0.983
                           154 H    0.981
    33   6 C    3.958 --    34 N    1.483    30 C    1.252    36 C    1.011
    34   7 N    3.065 --    33 C    1.483    35 C    1.320
    35   6 C    3.978 --    34 N    1.320    28 C    1.244    22 C    1.169
    36   6 C    3.991 --    33 C    1.011    37 C    0.993   156 H    0.969
                           157 H    0.968
    37   6 C    3.990 --    36 C    0.993   160 H    0.988   158 H    0.987
                           159 H    0.984
    38   6 C    3.902 --    39 C    1.346    27 C    1.240    80 S    1.058
    39   6 C    3.952 --    38 C    1.346    48 C    1.296    40 C    1.076
    40   6 C    3.984 --    41 C    1.370    47 C    1.367    39 C    1.076
    41   6 C    3.981 --    42 C    1.453    40 C    1.370   161 H    0.962
                            44 C    0.102
    42   6 C    3.989 --    41 C    1.453    43 C    1.436   162 H    0.969
                            47 C    0.103
    43   6 C    3.974 --    42 C    1.436    44 C    1.400   163 H    0.969
    44   6 C    3.987 --    47 C    1.430    43 C    1.400    45 C    1.012
                            41 C    0.102
    45   6 C    3.996 --    44 C    1.012    46 C    1.000   164 H    0.974
                           165 H    0.974
    46   6 C    3.995 --    45 C    1.000   166 H    0.988   168 H    0.988
                           167 H    0.986
    47   6 C    3.981 --    44 C    1.430    40 C    1.367   169 H    0.967
                            42 C    0.103
    48   6 C    3.916 --    79 C    1.316    39 C    1.296    49 S    1.081
    49  16 S    2.501 --    50 C    1.107    48 C    1.081
    50   6 C    3.907 --    78 C    1.296    51 C    1.270    49 S    1.107
    51   6 C    3.951 --    50 C    1.270    76 C    1.265    52 C    1.171
    52   6 C    3.971 --    56 N    1.435    51 C    1.171    53 C    1.153
                            55 S    0.106
    53   6 C    3.970 --    54 N    1.436    57 C    1.167    52 C    1.153
                            55 S    0.106
    54   7 N    3.065 --    53 C    1.436    55 S    1.380    56 N    0.140
    55  16 S    3.088 --    54 N    1.380    56 N    1.380    52 C    0.106
                            53 C    0.106
    56   7 N    3.064 --    52 C    1.435    55 S    1.380    54 N    0.140
    57   6 C    3.949 --    75 C    1.275    58 C    1.264    53 C    1.167
    58   6 C    3.918 --    73 C    1.314    57 C    1.264    59 S    1.105
    59  16 S    2.493 --    58 C    1.105    60 C    1.088
    60   6 C    3.922 --    72 C    1.353    61 C    1.256    59 S    1.088
    61   6 C    3.956 --    70 C    1.441    60 C    1.256    62 C    1.034
    62   6 C    3.987 --    69 C    1.393    63 C    1.386    61 C    1.034
                            65 C    0.104
    63   6 C    3.987 --    64 C    1.443    62 C    1.386   170 H    0.969
                            66 C    0.106
    64   6 C    3.990 --    65 C    1.444    63 C    1.443   171 H    0.969
                            69 C    0.104
    65   6 C    3.986 --    64 C    1.444    66 C    1.404   172 H    0.969
                            62 C    0.104
    66   6 C    3.987 --    69 C    1.420    65 C    1.404    67 C    1.012
                            63 C    0.106
    67   6 C    3.996 --    66 C    1.012    68 C    1.002   173 H    0.974
                           174 H    0.968
    68   6 C    3.996 --    67 C    1.002   176 H    0.988   177 H    0.987
                           175 H    0.983
    69   6 C    3.986 --    66 C    1.420    62 C    1.393   178 H    0.963
                            64 C    0.104
    70   6 C    3.916 --    61 C    1.441    85 C    1.167    71 S    1.088
    71  16 S    2.587 --    72 C    1.118    70 C    1.088
    72   6 C    3.930 --    60 C    1.353    73 C    1.238    71 S    1.118
    73   6 C    3.936 --    58 C    1.314    72 C    1.238    74 N    1.162
    74   7 N    3.554 --    75 C    1.168    73 C    1.162    83 C    0.971
    75   6 C    3.937 --    57 C    1.275    76 C    1.227    74 N    1.168
    76   6 C    3.924 --    51 C    1.265    75 C    1.227    77 N    1.175
    77   7 N    3.551 --    76 C    1.175    78 C    1.148    81 C    0.974
    78   6 C    3.937 --    50 C    1.296    79 C    1.269    77 N    1.148
    79   6 C    3.927 --    48 C    1.316    78 C    1.269    80 S    1.114
    80  16 S    2.660 --    79 C    1.114    38 C    1.058    29 N    0.125
    81   6 C    3.958 --    82 C    1.007    77 N    0.974   180 H    0.963
                           179 H    0.960
    82   6 C    3.987 --    81 C    1.007   183 H    0.987   181 H    0.982
                           182 H    0.982
    83   6 C    3.956 --    84 C    1.010    74 N    0.971   185 H    0.965
                           184 H    0.962
    84   6 C    3.985 --    83 C    1.010   188 H    0.980   186 H    0.979
                           187 H    0.977
    85   6 C    3.920 --    86 C    1.523    70 C    1.167   123 S    1.082
    86   6 C    3.949 --    85 C    1.523    87 C    1.241   189 H    0.948
    87   6 C    3.961 --    88 C    1.264   122 C    1.244    86 C    1.241
    88   6 C    3.932 --   104 C    1.362    87 C    1.264    89 C    1.091
    89   6 C    3.942 --    90 C    1.550   103 S    1.096    88 C    1.091
    90   6 C    3.962 --    89 C    1.550    91 C    1.266   190 H    0.958
    91   6 C    3.946 --   102 C    1.361    90 C    1.266    92 S    1.124
    92  16 S    2.561 --    93 C    1.160    91 C    1.124
    93   6 C    3.894 --   101 C    1.605    92 S    1.160    94 Si   0.843
    94  14 Si   3.509 --    99 C    0.873    95 C    0.869    97 C    0.861
                            93 C    0.843
    95   6 C    3.983 --    96 C    1.030   191 H    0.982   192 H    0.980
                            94 Si   0.869
    96   6 C    3.994 --    95 C    1.030   193 H    0.991   195 H    0.987
                           194 H    0.986
    97   6 C    3.982 --    98 C    1.033   197 H    0.982   196 H    0.980
                            94 Si   0.861
    98   6 C    3.996 --    97 C    1.033   198 H    0.991   199 H    0.991
                           200 H    0.986
    99   6 C    3.984 --   100 C    1.028   202 H    0.979   201 H    0.977
                            94 Si   0.873
   100   6 C    3.996 --    99 C    1.028   205 H    0.990   203 H    0.987
                           204 H    0.986
   101   6 C    3.985 --    93 C    1.605   102 C    1.268   206 H    0.964
   102   6 C    3.935 --    91 C    1.361   101 C    1.268   103 S    1.111
   103  16 S    2.536 --   102 C    1.111    89 C    1.096
   104   6 C    3.941 --    88 C    1.362   105 C    1.236   126 S    1.119
   105   6 C    3.965 --   124 C    1.278   104 C    1.236   106 C    1.232
   106   6 C    3.938 --   122 C    1.368   105 C    1.232   107 C    1.122
   107   6 C    3.938 --   121 C    1.523   106 C    1.122   108 S    1.091
   108  16 S    2.563 --   109 C    1.113   107 C    1.091
   109   6 C    3.929 --   120 C    1.347   110 C    1.274   108 S    1.113
   110   6 C    3.981 --   111 C    1.596   109 C    1.274   207 H    0.962
   111   6 C    3.889 --   110 C    1.596   119 S    1.165   112 Si   0.848
   112  14 Si   3.509 --   117 C    0.872   113 C    0.870   115 C    0.856
                           111 C    0.848
   113   6 C    3.983 --   114 C    1.031   208 H    0.980   209 H    0.978
                           112 Si   0.870
   114   6 C    3.995 --   113 C    1.031   211 H    0.990   212 H    0.985
                           210 H    0.985
   115   6 C    3.981 --   116 C    1.033   213 H    0.985   214 H    0.982
                           112 Si   0.856
   116   6 C    3.996 --   115 C    1.033   217 H    0.990   216 H    0.986
                           215 H    0.985
   117   6 C    3.983 --   118 C    1.029   219 H    0.978   218 H    0.977
                           112 Si   0.872
   118   6 C    3.995 --   117 C    1.029   222 H    0.990   220 H    0.990
                           221 H    0.986
   119  16 S    2.564 --   111 C    1.165   120 C    1.122
   120   6 C    3.947 --   109 C    1.347   121 C    1.283   119 S    1.122
   121   6 C    3.956 --   107 C    1.523   120 C    1.283   223 H    0.953
   122   6 C    3.935 --   106 C    1.368    87 C    1.244   123 S    1.099
   123  16 S    2.558 --   122 C    1.099    85 C    1.082
   124   6 C    3.947 --   125 C    1.474   105 C    1.278   224 H    0.941
   125   6 C    3.932 --   124 C    1.474   127 C    1.239   126 S    1.068
   126  16 S    2.503 --   104 C    1.119   125 C    1.068
   127   6 C    3.949 --   128 C    1.554   125 C    1.239   225 H    0.947
   128   6 C    3.945 --   127 C    1.554   139 C    1.111   129 C    1.039
   129   6 C    3.919 --   130 O    1.728   128 C    1.039   131 C    1.023
   130   8 O    2.028 --   129 C    1.728
   131   6 C    3.970 --   132 C    1.418   138 C    1.296   129 C    1.023
   132   6 C    3.981 --   131 C    1.418   133 C    1.408   226 H    0.965
   133   6 C    3.971 --   134 C    1.455   132 C    1.408   227 H    0.968
   134   6 C    3.980 --   133 C    1.455   135 C    1.340   228 H    0.963
   135   6 C    3.926 --   134 C    1.340   138 C    1.305   136 O    1.099
   136   8 O    2.271 --   135 C    1.099   137 C    0.963
   137   6 C    3.924 --   229 H    0.976   231 H    0.975   230 H    0.975
                           136 O    0.963
   138   6 C    3.976 --   135 C    1.305   131 C    1.296   139 C    1.104
   139   6 C    3.976 --   140 C    1.494   128 C    1.111   138 C    1.104
   140   6 C    3.956 --   139 C    1.494   143 C    1.095   141 C    1.093
   141   6 C    3.943 --   142 N    2.755   140 C    1.093
   142   7 N    2.962 --   141 C    2.755
   143   6 C    3.942 --   144 N    2.757   140 C    1.095
   144   7 N    2.959 --   143 C    2.757
   145   1 H    0.987 --     1 C    0.946
   146   1 H    0.994 --     6 C    0.962
   147   1 H    0.995 --     8 C    0.965
   148   1 H    0.994 --     9 C    0.965
   149   1 H    0.994 --    12 C    0.959
   150   1 H    0.995 --    14 C    0.957
   151   1 H    0.995 --    31 C    0.968
   152   1 H    0.995 --    31 C    0.969
   153   1 H    0.998 --    32 C    0.986
   154   1 H    0.997 --    32 C    0.981
   155   1 H    0.996 --    32 C    0.983
   156   1 H    0.996 --    36 C    0.969
   157   1 H    0.996 --    36 C    0.968
   158   1 H    0.998 --    37 C    0.987
   159   1 H    0.996 --    37 C    0.984
   160   1 H    0.998 --    37 C    0.988
   161   1 H    0.997 --    41 C    0.962
   162   1 H    0.997 --    42 C    0.969
   163   1 H    0.998 --    43 C    0.969
   164   1 H    0.998 --    45 C    0.974
   165   1 H    0.998 --    45 C    0.974
   166   1 H    0.999 --    46 C    0.988
   167   1 H    0.998 --    46 C    0.986
   168   1 H    0.998 --    46 C    0.988
   169   1 H    0.999 --    47 C    0.967
   170   1 H    0.998 --    63 C    0.969
   171   1 H    0.997 --    64 C    0.969
   172   1 H    0.998 --    65 C    0.969
   173   1 H    0.998 --    67 C    0.974
   174   1 H    0.998 --    67 C    0.968
   175   1 H    0.998 --    68 C    0.983
   176   1 H    0.999 --    68 C    0.988
   177   1 H    0.998 --    68 C    0.987
   178   1 H    0.998 --    69 C    0.963
   179   1 H    0.993 --    81 C    0.960
   180   1 H    0.993 --    81 C    0.963
   181   1 H    0.997 --    82 C    0.982
   182   1 H    0.996 --    82 C    0.982
   183   1 H    0.998 --    82 C    0.987
   184   1 H    0.994 --    83 C    0.962
   185   1 H    0.994 --    83 C    0.965
   186   1 H    0.997 --    84 C    0.979
   187   1 H    0.996 --    84 C    0.977
   188   1 H    0.994 --    84 C    0.980
   189   1 H    0.995 --    86 C    0.948
   190   1 H    0.997 --    90 C    0.958
   191   1 H    0.999 --    95 C    0.982
   192   1 H    0.999 --    95 C    0.980
   193   1 H    0.999 --    96 C    0.991
   194   1 H    0.999 --    96 C    0.986
   195   1 H    0.999 --    96 C    0.987
   196   1 H    0.999 --    97 C    0.980
   197   1 H    0.999 --    97 C    0.982
   198   1 H    0.999 --    98 C    0.991
   199   1 H    0.999 --    98 C    0.991
   200   1 H    0.998 --    98 C    0.986
   201   1 H    0.999 --    99 C    0.977
   202   1 H    0.998 --    99 C    0.979
   203   1 H    0.999 --   100 C    0.987
   204   1 H    0.998 --   100 C    0.986
   205   1 H    0.999 --   100 C    0.990
   206   1 H    0.998 --   101 C    0.964
   207   1 H    0.998 --   110 C    0.962
   208   1 H    0.999 --   113 C    0.980
   209   1 H    0.999 --   113 C    0.978
   210   1 H    0.998 --   114 C    0.985
   211   1 H    0.999 --   114 C    0.990
   212   1 H    0.999 --   114 C    0.985
   213   1 H    0.999 --   115 C    0.985
   214   1 H    0.999 --   115 C    0.982
   215   1 H    0.999 --   116 C    0.985
   216   1 H    0.999 --   116 C    0.986
   217   1 H    0.999 --   116 C    0.990
   218   1 H    0.999 --   117 C    0.977
   219   1 H    0.999 --   117 C    0.978
   220   1 H    0.999 --   118 C    0.990
   221   1 H    0.998 --   118 C    0.986
   222   1 H    0.999 --   118 C    0.990
   223   1 H    0.995 --   121 C    0.953
   224   1 H    0.991 --   124 C    0.941
   225   1 H    0.993 --   127 C    0.947
   226   1 H    0.995 --   132 C    0.965
   227   1 H    0.996 --   133 C    0.968
   228   1 H    0.996 --   134 C    0.963
   229   1 H    0.992 --   137 C    0.976
   230   1 H    0.996 --   137 C    0.975
   231   1 H    0.996 --   137 C    0.975
 ---------------------------------------------------------------------------

Topologies differ in bond orders
Writing corrected topology to xtbtopo.mol

molecular dipole:
                 x           y           z       tot (Debye)
 q only:        1.680      -2.255       4.800
   full:        1.710      -3.249       4.391      14.549
molecular quadrupole (traceless):
                xx          xy          yy          xz          yz          zz
 q only:      -42.589       4.621      69.886     -50.042     -53.148     -27.297
  q+dip:      -21.039       6.491      65.742     -39.867     -54.300     -44.704
   full:      -18.790      10.590      60.669     -38.102     -58.736     -41.879


           -------------------------------------------------
          | TOTAL ENERGY             -385.556248785143 Eh   |
          | GRADIENT NORM               0.023522028345 Eh/α |
          | HOMO-LUMO GAP               0.563460678038 eV   |
           -------------------------------------------------

------------------------------------------------------------------------
 * finished run on 2022/02/05 at 13:39:02.489     
------------------------------------------------------------------------
 total:
 * wall-time:     0 d,  0 h,  0 min,  1.090 sec
 *  cpu-time:     0 d,  0 h,  0 min,  8.597 sec
 * ratio c/w:     7.890 speedup
 SCF:
 * wall-time:     0 d,  0 h,  0 min,  0.967 sec
 *  cpu-time:     0 d,  0 h,  0 min,  7.713 sec
 * ratio c/w:     7.975 speedup

