      -----------------------------------------------------------      
     |                   =====================                   |     
     |                           x T B                           |     
     |                   =====================                   |     
     |                         S. Grimme                         |     
     |          Mulliken Center for Theoretical Chemistry        |     
     |                    University of Bonn                     |     
      -----------------------------------------------------------      

   * xtb version 6.4.1 (unknown) compiled by 'oda6@login1.crc.pitt.edu' on 2021-06-25

   xtb is free software: you can redistribute it and/or modify it under
   the terms of the GNU Lesser General Public License as published by
   the Free Software Foundation, either version 3 of the License, or
   (at your option) any later version.
   
   xtb is distributed in the hope that it will be useful,
   but WITHOUT ANY WARRANTY; without even the implied warranty of
   MERCHANTABILITY or FITNESS FOR A PARTICULAR PURPOSE.  See the
   GNU Lesser General Public License for more details.
   
   Cite this work as:
   * C. Bannwarth, E. Caldeweyher, S. Ehlert, A. Hansen, P. Pracht,
     J. Seibert, S. Spicher, S. Grimme, WIREs Comput. Mol. Sci., 2020, 11,
     e01493. DOI: 10.1002/wcms.1493
   
   for GFN2-xTB:
   * C. Bannwarth, S. Ehlert and S. Grimme., J. Chem. Theory Comput., 2019,
     15, 1652-1671. DOI: 10.1021/acs.jctc.8b01176
   for GFN1-xTB:
   * S. Grimme, C. Bannwarth, P. Shushkov, J. Chem. Theory Comput., 2017,
     13, 1989-2009. DOI: 10.1021/acs.jctc.7b00118
   for GFN0-xTB:
   * P. Pracht, E. Caldeweyher, S. Ehlert, S. Grimme, ChemRxiv, 2019, preprint.
     DOI: 10.26434/chemrxiv.8326202.v1
   for GFN-FF:
   * S. Spicher and S. Grimme, Angew. Chem. Int. Ed., 2020, 59, 15665-15673.
     DOI: 10.1002/anie.202004239
   
   for DFT-D4:
   * E. Caldeweyher, C. Bannwarth and S. Grimme, J. Chem. Phys., 2017,
     147, 034112. DOI: 10.1063/1.4993215
   * E. Caldeweyher, S. Ehlert, A. Hansen, H. Neugebauer, S. Spicher,
     C. Bannwarth and S. Grimme, J. Chem. Phys., 2019, 150, 154122.
     DOI: 10.1063/1.5090222
   * E. Caldeweyher, J.-M. Mewes, S. Ehlert and S. Grimme, Phys. Chem. Chem. Phys.
     2020, 22, 8499-8512. DOI: 10.1039/D0CP00502A
   
   for sTDA-xTB:
   * S. Grimme and C. Bannwarth, J. Chem. Phys., 2016, 145, 054103.
     DOI: 10.1063/1.4959605
   
   in the mass-spec context:
   * V. Asgeirsson, C. Bauer and S. Grimme, Chem. Sci., 2017, 8, 4879.
     DOI: 10.1039/c7sc00601b
   * J. Koopman and S. Grimme, ACS Omega 2019, 4, 12, 15120-15133.
     DOI: 10.1021/acsomega.9b02011
   
   for metadynamics refer to:
   * S. Grimme, J. Chem. Theory Comput., 2019, 155, 2847-2862
     DOI: 10.1021/acs.jctc.9b00143
   
   for SPH calculations refer to:
   * S. Spicher and S. Grimme, J. Chem. Theory Comput., 2021, 17, 1701-1714
     DOI: 10.1021/acs.jctc.0c01306
   
   with help from (in alphabetical order)
   P. Atkinson, C. Bannwarth, F. Bohle, G. Brandenburg, E. Caldeweyher
   M. Checinski, S. Dohm, S. Ehlert, S. Ehrlich, I. Gerasimov, J. Koopman
   C. Lavigne, S. Lehtola, F. März, M. Müller, F. Musil, H. Neugebauer
   J. Pisarek, C. Plett, P. Pracht, J. Seibert, P. Shushkov, S. Spicher
   M. Stahn, M. Steiner, T. Strunk, J. Stückrath, T. Rose, and J. Unsleber
   
 * started run on 2022/02/05 at 20:52:55.309     

           -------------------------------------------------
          |                Calculation Setup                |
           -------------------------------------------------

          program call               : /ihome/ghutchison/oda6/xtb/xtb-641/bin/xtb ../../GFN2_output/9_28_86_28_62.mol --sp --alpb hexane
          hostname                   : smp-n29
          coordinate file            : ../../GFN2_output/9_28_86_28_62.mol
          omp threads                :                     8
          number of atoms            :                   255
          number of electrons        :                   784
          charge                     :                     0
          spin                       :                   0.0
          first test random number   :      0.97480102202766

   ID    Z sym.   atoms
    1    6 C      1-3, 5-10, 12-18, 20, 22, 23, 25-39, 41, 42, 44-58, 60-70,
                  72-75, 79, 80, 82-92, 94, 95, 97, 98, 100, 101, 103-108,
                  110-124, 126, 127, 129-143, 145-147, 149-153, 155, 157-159,
                  161
    2    8 O      4, 148
    3    9 F      11
    4    7 N      19, 21, 24, 43, 76, 78, 96, 99, 109, 128, 160, 162
    5   16 S      40, 59, 71, 77, 81, 93, 102, 125, 144
    6   35 Br     154
    7   17 Cl     156
    8    1 H      163-255

           -------------------------------------------------
          |                 G F N 2 - x T B                 |
           -------------------------------------------------

        Reference                      10.1021/acs.jctc.8b01176
      * Hamiltonian:
        H0-scaling (s, p, d)           1.850000    2.230000    2.230000
        zeta-weighting                 0.500000
      * Dispersion:
        s8                             2.700000
        a1                             0.520000
        a2                             5.000000
        s9                             5.000000
      * Repulsion:
        kExp                           1.500000    1.000000
        rExp                           1.000000
      * Coulomb:
        alpha                          2.000000
        third order                    shell-resolved
        anisotropic                    true
        a3                             3.000000
        a5                             4.000000
        cn-shift                       1.200000
        cn-exp                         4.000000
        max-rad                        5.000000

      * Solvation model:               ALPB
        Solvent                        hexane
        Parameter file                 internal GFN2-xTB/ALPB
        Dielectric constant                1.8800E+00
        Reference state                gsolv [1 M gas/solution]
        Free energy shift                  4.8134E-03 Eh       3.0204E+00 kcal/mol
        Temperature                        2.9815E+02 K
        Density                            6.6000E-01 kg/L
        Solvent mass                       8.6180E+01 g/mol
        Interaction kernel             P16
        Born radius scaling (c1)           1.1040E+00
        Born radii integrator          GBOBC
        Born offset                        0.0000E+00 a0       0.0000E+00 AA
        H-bond correction              false
        Ion screening                  false
        Surface tension                    1.0000E-05 Eh       1.5569E+01 dyn/cm
        Grid points                               230 per atom

          ...................................................
          :                      SETUP                      :
          :.................................................:
          :  # basis functions                 807          :
          :  # atomic orbitals                 796          :
          :  # shells                          428          :
          :  # electrons                       784          :
          :  max. iterations                   250          :
          :  Hamiltonian                  GFN2-xTB          :
          :  restarted?                      false          :
          :  GBSA solvation                   true          :
          :  PC potential                    false          :
          :  electronic temp.          300.0000000     K    :
          :  accuracy                    1.0000000          :
          :  -> integral cutoff          0.2500000E+02      :
          :  -> integral neglect         0.1000000E-07      :
          :  -> SCF convergence          0.1000000E-05 Eh   :
          :  -> wf. convergence          0.1000000E-03 e    :
          :  Broyden damping             0.4000000          :
          ...................................................

 iter      E             dE          RMSdq      gap      omega  full diag
   1   -431.3716613 -0.431372E+03  0.421E+00    0.97       0.0  T
   2   -431.6618942 -0.290233E+00  0.251E+00    0.81       1.0  T
   3   -431.4976108  0.164283E+00  0.121E+00    0.48       1.0  T
   4   -431.7168384 -0.219228E+00  0.475E-01    0.69       1.0  T
   5   -431.7559509 -0.391125E-01  0.164E-01    0.55       1.0  T
   6   -431.7583147 -0.236372E-02  0.860E-02    0.58       1.0  T
   7   -431.7588441 -0.529460E-03  0.500E-02    0.57       1.0  T
   8   -431.7589623 -0.118174E-03  0.377E-02    0.57       1.0  T
   9   -431.7590288 -0.665073E-04  0.284E-02    0.57       1.0  T
  10   -431.7590869 -0.580639E-04  0.188E-02    0.57       1.0  T
  11   -431.7591185 -0.316160E-04  0.103E-02    0.57       1.0  T
  12   -431.7591284 -0.987697E-05  0.486E-03    0.57       1.3  T
  13   -431.7591307 -0.233274E-05  0.258E-03    0.57       2.4  T
  14   -431.7591312 -0.529175E-06  0.153E-03    0.57       4.1  T
  15   -431.7591314 -0.136195E-06  0.103E-03    0.57       6.1  T
  16   -431.7591314 -0.625224E-07  0.650E-04    0.57       9.6  T
  17   -431.7591315 -0.346849E-07  0.369E-04    0.57      17.0  T

   *** convergence criteria satisfied after 17 iterations ***

         #    Occupation            Energy/Eh            Energy/eV
      -------------------------------------------------------------
         1        2.0000           -1.0756606             -29.2702
       ...           ...                  ...                  ...
       386        2.0000           -0.3774670             -10.2714
       387        2.0000           -0.3729929             -10.1497
       388        2.0000           -0.3721662             -10.1272
       389        2.0000           -0.3648982              -9.9294
       390        2.0000           -0.3613751              -9.8335
       391        2.0000           -0.3575087              -9.7283
       392        2.0000           -0.3516144              -9.5679 (HOMO)
       393        0.0000           -0.3306886              -8.9985 (LUMO)
       394                         -0.3223072              -8.7704
       395                         -0.3186290              -8.6703
       396                         -0.3097390              -8.4284
       397                         -0.2979019              -8.1063
       ...                                ...                  ...
       796                          1.1634627              31.6594
      -------------------------------------------------------------
                  HL-Gap            0.0209258 Eh            0.5694 eV
             Fermi-level           -0.3411506 Eh           -9.2832 eV

 SCC (total)                   0 d,  0 h,  0 min,  1.232 sec
 SCC setup                      ...        0 min,  0.011 sec (  0.886%)
 Dispersion                     ...        0 min,  0.015 sec (  1.218%)
 classical contributions        ...        0 min,  0.001 sec (  0.042%)
 integral evaluation            ...        0 min,  0.056 sec (  4.584%)
 iterations                     ...        0 min,  0.966 sec ( 78.440%)
 molecular gradient             ...        0 min,  0.177 sec ( 14.373%)
 printout                       ...        0 min,  0.006 sec (  0.449%)

         :::::::::::::::::::::::::::::::::::::::::::::::::::::
         ::                     SUMMARY                     ::
         :::::::::::::::::::::::::::::::::::::::::::::::::::::
         :: total energy            -424.748296617529 Eh    ::
         :: total w/o Gsasa/hb      -424.611737392749 Eh    ::
         :: gradient norm              0.024109500365 Eh/a0 ::
         :: HOMO-LUMO gap              0.569421148134 eV    ::
         ::.................................................::
         :: SCC energy              -431.759131457978 Eh    ::
         :: -> isotropic ES            0.186889207277 Eh    ::
         :: -> anisotropic ES          0.023903225749 Eh    ::
         :: -> anisotropic XC          0.235954335954 Eh    ::
         :: -> dispersion             -0.479198047071 Eh    ::
         :: -> Gsolv                  -0.165980684634 Eh    ::
         ::    -> Gelec               -0.029421459853 Eh    ::
         ::    -> Gsasa               -0.141372580601 Eh    ::
         ::    -> Ghb                  0.000000000000 Eh    ::
         ::    -> Gshift               0.004813355820 Eh    ::
         :: repulsion energy           6.995621324540 Eh    ::
         :: add. restraining           0.000000000000 Eh    ::
         :: total charge               0.000000000000 e     ::
         :::::::::::::::::::::::::::::::::::::::::::::::::::::

           -------------------------------------------------
          |                Property Printout                |
           -------------------------------------------------

    * Orbital Energies and Occupations

         #    Occupation            Energy/Eh            Energy/eV
      -------------------------------------------------------------
         1        2.0000           -1.0756606             -29.2702
       ...           ...                  ...                  ...
       380        2.0000           -0.3979599             -10.8290
       381        2.0000           -0.3965288             -10.7901
       382        2.0000           -0.3928082             -10.6889
       383        2.0000           -0.3910129             -10.6400
       384        2.0000           -0.3872852             -10.5386
       385        2.0000           -0.3804559             -10.3527
       386        2.0000           -0.3774670             -10.2714
       387        2.0000           -0.3729929             -10.1497
       388        2.0000           -0.3721662             -10.1272
       389        2.0000           -0.3648982              -9.9294
       390        2.0000           -0.3613751              -9.8335
       391        2.0000           -0.3575087              -9.7283
       392        2.0000           -0.3516144              -9.5679 (HOMO)
       393        0.0000           -0.3306886              -8.9985 (LUMO)
       394                         -0.3223072              -8.7704
       395                         -0.3186290              -8.6703
       396                         -0.3097390              -8.4284
       397                         -0.2979019              -8.1063
       398                         -0.2889585              -7.8630
       399                         -0.2831703              -7.7055
       400                         -0.2753704              -7.4932
       401                         -0.2716051              -7.3908
       402                         -0.2573401              -7.0026
       403                         -0.2486138              -6.7651
       ...                                ...                  ...
       796                          1.1634627              31.6594
      -------------------------------------------------------------
                  HL-Gap            0.0209258 Eh            0.5694 eV
             Fermi-level           -0.3411506 Eh           -9.2832 eV

     #   Z          covCN         q      C6AA      α(0)
     1   6 C        2.921    -0.017    28.430     8.744
     2   6 C        3.010    -0.044    29.082     8.846
     3   6 C        2.871     0.229    23.204     7.896
     4   8 O        0.958    -0.413    21.886     6.275
     5   6 C        3.039    -0.020    28.476     8.753
     6   6 C        2.913    -0.019    28.471     8.750
     7   6 C        2.987     0.014    27.693     8.632
     8   6 C        2.923    -0.030    28.757     8.794
     9   6 C        2.913    -0.044    29.091     8.844
    10   6 C        2.782     0.177    24.185     8.055
    11   9 F        0.787    -0.240    11.662     4.034
    12   6 C        2.917    -0.052    29.287     8.874
    13   6 C        2.990     0.021    27.522     8.606
    14   6 C        2.915    -0.032    28.802     8.800
    15   6 C        3.028     0.006    27.856     8.657
    16   6 C        3.019     0.031    27.291     8.569
    17   6 C        2.947    -0.004    28.118     8.697
    18   6 C        1.946     0.127    27.965     8.540
    19   7 N        0.911    -0.289    27.450     7.578
    20   6 C        1.947     0.131    27.885     8.528
    21   7 N        0.911    -0.283    27.295     7.556
    22   6 C        2.985     0.009    27.814     8.651
    23   6 C        3.041     0.061    26.597     8.459
    24   7 N        2.748    -0.041    22.036     6.972
    25   6 C        2.937     0.059    26.666     8.469
    26   6 C        2.921    -0.041    29.014     8.833
    27   6 C        2.926    -0.038    28.945     8.823
    28   6 C        2.966     0.019    27.582     8.614
    29   6 C        3.758    -0.115    22.743     6.799
    30   6 C        2.925    -0.038    28.938     8.822
    31   6 C        2.920    -0.042    29.032     8.836
    32   6 C        2.925     0.057    26.722     8.477
    33   6 C        2.920    -0.038    28.947     8.823
    34   6 C        2.926    -0.036    28.884     8.814
    35   6 C        2.966     0.015    27.686     8.631
    36   6 C        3.758    -0.113    22.712     6.795
    37   6 C        2.925    -0.041    29.025     8.835
    38   6 C        2.919    -0.050    29.230     8.866
    39   6 C        3.151    -0.001    27.758     8.617
    40  16 S        2.261    -0.071   143.986    20.196
    41   6 C        3.025     0.011    27.749     8.641
    42   6 C        3.067     0.048    26.859     8.498
    43   7 N        2.750    -0.078    22.759     7.085
    44   6 C        2.940     0.060    26.651     8.467
    45   6 C        2.920    -0.043    29.073     8.842
    46   6 C        2.926    -0.035    28.878     8.813
    47   6 C        2.966     0.018    27.603     8.618
    48   6 C        3.758    -0.111    22.668     6.788
    49   6 C        2.925    -0.038    28.955     8.824
    50   6 C        2.922    -0.046    29.149     8.854
    51   6 C        2.937     0.065    26.551     8.451
    52   6 C        2.922    -0.052    29.281     8.874
    53   6 C        2.925    -0.042    29.035     8.837
    54   6 C        2.965     0.007    27.850     8.656
    55   6 C        3.757    -0.111    22.683     6.790
    56   6 C        2.926    -0.041    29.022     8.835
    57   6 C        2.920    -0.051    29.277     8.873
    58   6 C        3.164     0.000    27.675     8.598
    59  16 S        2.310    -0.019   141.858    20.046
    60   6 C        3.028     0.014    27.674     8.629
    61   6 C        3.111    -0.011    28.125     8.688
    62   6 C        2.976     0.012    27.746     8.640
    63   6 C        2.929    -0.036    28.886     8.814
    64   6 C        2.918    -0.031    28.772     8.796
    65   6 C        2.925    -0.038    28.940     8.822
    66   6 C        2.971     0.017    27.632     8.622
    67   6 C        3.807    -0.059    21.634     6.621
    68   6 C        3.754    -0.102    22.502     6.764
    69   6 C        2.933    -0.040    28.996     8.831
    70   6 C        3.203     0.011    27.190     8.495
    71  16 S        2.180    -0.054   143.282    20.146
    72   6 C        3.097     0.001    27.884     8.654
    73   6 C        3.089    -0.041    28.902     8.812
    74   6 C        3.340     0.070    24.025     7.751
    75   6 C        3.341     0.069    24.025     7.749
    76   7 N        1.854    -0.298    28.562     7.921
    77  16 S        2.686     0.326   128.459    19.076
    78   7 N        1.854    -0.297    28.561     7.921
    79   6 C        3.088    -0.041    28.917     8.815
    80   6 C        3.099    -0.002    27.950     8.664
    81  16 S        2.187    -0.046   142.973    20.125
    82   6 C        3.191     0.008    27.343     8.529
    83   6 C        3.111    -0.011    28.138     8.690
    84   6 C        2.974     0.009    27.802     8.649
    85   6 C        2.923    -0.037    28.909     8.817
    86   6 C        2.918    -0.030    28.759     8.794
    87   6 C        2.924    -0.038    28.947     8.823
    88   6 C        2.968     0.014    27.696     8.632
    89   6 C        3.806    -0.058    21.609     6.617
    90   6 C        3.752    -0.089    22.260     6.728
    91   6 C        2.934    -0.044    29.091     8.846
    92   6 C        3.029     0.011    27.746     8.640
    93  16 S        2.245    -0.068   143.866    20.187
    94   6 C        3.129     0.001    27.814     8.635
    95   6 C        3.254     0.025    26.378     8.308
    96   7 N        2.800    -0.036    21.930     6.955
    97   6 C        3.069     0.028    27.301     8.568
    98   6 C        3.070     0.029    27.286     8.565
    99   7 N        2.799    -0.033    21.884     6.948
   100   6 C        3.256     0.025    26.350     8.301
   101   6 C        3.120     0.000    27.844     8.642
   102  16 S        2.293    -0.071   144.026    20.199
   103   6 C        3.744    -0.006    20.756     6.499
   104   6 C        3.752    -0.113    22.716     6.797
   105   6 C        3.744    -0.005    20.736     6.496
   106   6 C        3.752    -0.114    22.735     6.800
   107   6 C        3.026     0.000    27.990     8.678
   108   6 C        3.046     0.051    26.804     8.491
   109   7 N        2.748    -0.074    22.671     7.072
   110   6 C        2.930     0.059    26.686     8.472
   111   6 C        2.921    -0.046    29.145     8.853
   112   6 C        2.926    -0.040    29.004     8.832
   113   6 C        2.966     0.014    27.702     8.633
   114   6 C        3.758    -0.113    22.710     6.794
   115   6 C        2.926    -0.039    28.971     8.827
   116   6 C        2.921    -0.049    29.222     8.865
   117   6 C        2.925     0.058    26.698     8.474
   118   6 C        2.921    -0.049    29.227     8.865
   119   6 C        2.925    -0.041    29.022     8.835
   120   6 C        2.966     0.009    27.804     8.649
   121   6 C        3.757    -0.106    22.581     6.775
   122   6 C        2.926    -0.039    28.971     8.827
   123   6 C        2.922    -0.047    29.165     8.856
   124   6 C        3.169     0.014    27.338     8.542
   125  16 S        2.264    -0.048   143.059    20.131
   126   6 C        2.988     0.013    27.725     8.637
   127   6 C        3.030     0.076    26.265     8.406
   128   7 N        2.749    -0.024    21.711     6.920
   129   6 C        2.926     0.061    26.626     8.462
   130   6 C        2.921    -0.041    29.016     8.834
   131   6 C        2.924    -0.041    29.027     8.835
   132   6 C        2.965     0.017    27.626     8.621
   133   6 C        3.758    -0.114    22.728     6.797
   134   6 C        2.925    -0.039    28.959     8.825
   135   6 C        2.919    -0.045    29.105     8.847
   136   6 C        2.938     0.060    26.651     8.467
   137   6 C        2.921    -0.036    28.891     8.814
   138   6 C        2.926    -0.037    28.914     8.818
   139   6 C        2.966     0.020    27.548     8.609
   140   6 C        3.758    -0.114    22.740     6.799
   141   6 C        2.925    -0.039    28.965     8.826
   142   6 C        2.920    -0.042    29.035     8.836
   143   6 C        3.167     0.001    27.640     8.590
   144  16 S        2.244    -0.056   143.359    20.152
   145   6 C        2.955    -0.011    28.297     8.725
   146   6 C        3.017    -0.050    29.222     8.867
   147   6 C        2.873     0.233    23.139     7.885
   148   8 O        0.856    -0.436    22.414     6.347
   149   6 C        3.084    -0.028    28.614     8.769
   150   6 C        3.037     0.009    27.783     8.646
   151   6 C        2.914    -0.031    28.765     8.795
   152   6 C        3.002    -0.029    28.706     8.789
   153   6 C        2.945     0.078    26.248     8.403
   154  35 Br       1.140    -0.135   188.783    22.154
   155   6 C        2.947     0.103    25.727     8.319
   156  17 Cl       1.025    -0.122   102.975    15.525
   157   6 C        3.026     0.033    27.227     8.559
   158   6 C        2.948     0.002    27.971     8.674
   159   6 C        1.936     0.131    27.884     8.528
   160   7 N        0.911    -0.276    27.125     7.533
   161   6 C        1.936     0.130    27.915     8.532
   162   7 N        0.911    -0.272    27.038     7.520
   163   1 H        0.925     0.066     2.124     2.279
   164   1 H        0.926     0.063     2.166     2.301
   165   1 H        0.926     0.061     2.186     2.312
   166   1 H        0.926     0.069     2.100     2.266
   167   1 H        0.926     0.072     2.059     2.244
   168   1 H        0.926     0.062     2.175     2.306
   169   1 H        0.926     0.038     2.479     2.462
   170   1 H        0.926     0.044     2.396     2.421
   171   1 H        0.925     0.047     2.355     2.400
   172   1 H        0.925     0.055     2.262     2.352
   173   1 H        0.925     0.056     2.251     2.346
   174   1 H        0.926     0.044     2.393     2.419
   175   1 H        0.926     0.042     2.421     2.433
   176   1 H        0.926     0.054     2.274     2.358
   177   1 H        0.926     0.049     2.338     2.391
   178   1 H        0.924     0.053     2.283     2.363
   179   1 H        0.925     0.053     2.288     2.365
   180   1 H        0.925     0.046     2.370     2.408
   181   1 H        0.926     0.038     2.473     2.459
   182   1 H        0.926     0.032     2.556     2.500
   183   1 H        0.926     0.037     2.482     2.464
   184   1 H        0.926     0.040     2.455     2.450
   185   1 H        0.924     0.054     2.265     2.353
   186   1 H        0.925     0.044     2.390     2.418
   187   1 H        0.925     0.046     2.374     2.409
   188   1 H        0.926     0.036     2.498     2.472
   189   1 H        0.926     0.030     2.583     2.513
   190   1 H        0.926     0.038     2.475     2.460
   191   1 H        0.926     0.034     2.534     2.489
   192   1 H        0.925     0.049     2.326     2.385
   193   1 H        0.925     0.043     2.414     2.430
   194   1 H        0.925     0.045     2.379     2.412
   195   1 H        0.926     0.034     2.527     2.486
   196   1 H        0.926     0.024     2.670     2.555
   197   1 H        0.926     0.034     2.530     2.487
   198   1 H        0.926     0.037     2.489     2.467
   199   1 H        0.926     0.038     2.471     2.458
   200   1 H        0.924     0.038     2.470     2.458
   201   1 H        0.924     0.041     2.433     2.439
   202   1 H        0.925     0.041     2.432     2.439
   203   1 H        0.925     0.040     2.452     2.449
   204   1 H        0.925     0.037     2.484     2.465
   205   1 H        0.926     0.038     2.472     2.459
   206   1 H        0.926     0.044     2.398     2.422
   207   1 H        0.926     0.038     2.480     2.463
   208   1 H        0.926     0.037     2.492     2.469
   209   1 H        0.924     0.039     2.461     2.453
   210   1 H        0.924     0.041     2.438     2.442
   211   1 H        0.925     0.027     2.629     2.535
   212   1 H        0.925     0.034     2.533     2.489
   213   1 H        0.925     0.040     2.452     2.449
   214   1 H        0.926     0.032     2.564     2.504
   215   1 H        0.924     0.074     2.042     2.235
   216   1 H        0.925     0.068     2.104     2.268
   217   1 H        0.925     0.055     2.258     2.350
   218   1 H        0.925     0.050     2.326     2.385
   219   1 H        0.925     0.050     2.324     2.384
   220   1 H        0.924     0.074     2.042     2.235
   221   1 H        0.924     0.067     2.118     2.276
   222   1 H        0.925     0.050     2.325     2.385
   223   1 H        0.925     0.052     2.295     2.369
   224   1 H        0.925     0.053     2.286     2.364
   225   1 H        0.926     0.037     2.487     2.466
   226   1 H        0.926     0.041     2.442     2.444
   227   1 H        0.925     0.048     2.342     2.393
   228   1 H        0.924     0.053     2.283     2.363
   229   1 H        0.925     0.046     2.368     2.406
   230   1 H        0.926     0.036     2.503     2.474
   231   1 H        0.926     0.038     2.476     2.461
   232   1 H        0.926     0.032     2.561     2.502
   233   1 H        0.926     0.036     2.509     2.477
   234   1 H        0.925     0.048     2.351     2.398
   235   1 H        0.924     0.045     2.386     2.416
   236   1 H        0.925     0.042     2.426     2.436
   237   1 H        0.926     0.040     2.452     2.448
   238   1 H        0.926     0.039     2.465     2.455
   239   1 H        0.926     0.044     2.395     2.420
   240   1 H        0.926     0.041     2.431     2.438
   241   1 H        0.925     0.055     2.264     2.353
   242   1 H        0.925     0.061     2.190     2.314
   243   1 H        0.925     0.049     2.329     2.387
   244   1 H        0.926     0.047     2.352     2.398
   245   1 H        0.926     0.042     2.427     2.436
   246   1 H        0.926     0.061     2.184     2.311
   247   1 H        0.926     0.046     2.372     2.408
   248   1 H        0.925     0.053     2.279     2.361
   249   1 H        0.925     0.048     2.341     2.393
   250   1 H        0.925     0.056     2.247     2.344
   251   1 H        0.926     0.044     2.396     2.421
   252   1 H        0.926     0.039     2.459     2.452
   253   1 H        0.925     0.067     2.118     2.276
   254   1 H        0.926     0.078     1.999     2.211
   255   1 H        0.926     0.086     1.917     2.165

 Mol. C6AA /au·bohr⁶  :    1113245.095398
 Mol. C8AA /au·bohr⁸  :   31018952.819666
 Mol. α(0) /au        :       1692.412643


Wiberg/Mayer (AO) data.
largest (>0.10) Wiberg bond orders for each atom

 ---------------------------------------------------------------------------
     #   Z sym  total        # sym  WBO       # sym  WBO       # sym  WBO
 ---------------------------------------------------------------------------
     1   6 C    3.947 --     2 C    1.410    22 C    1.387   163 H    0.931
     2   6 C    3.949 --     1 C    1.410    16 C    1.178     3 C    1.089
     3   6 C    3.906 --     4 O    1.667     2 C    1.089     5 C    1.024
     4   8 O    2.060 --     3 C    1.667    59 S    0.126
     5   6 C    3.976 --     6 C    1.529    15 C    1.201     3 C    1.024
     6   6 C    3.972 --     5 C    1.529     7 C    1.265   164 H    0.963
     7   6 C    3.980 --     8 C    1.291     6 C    1.265    13 C    1.244
     8   6 C    3.979 --     9 C    1.542     7 C    1.291   165 H    0.966
                            12 C    0.111
     9   6 C    3.975 --     8 C    1.542    10 C    1.297   166 H    0.965
    10   6 C    3.869 --    12 C    1.491     9 C    1.297    11 F    0.949
    11   9 F    1.072 --    10 C    0.949
    12   6 C    3.975 --    10 C    1.491    13 C    1.293   167 H    0.963
                             8 C    0.111
    13   6 C    3.984 --    12 C    1.293    14 C    1.265     7 C    1.244
    14   6 C    3.965 --    15 C    1.514    13 C    1.265   168 H    0.957
    15   6 C    3.984 --    14 C    1.514     5 C    1.201    16 C    1.080
    16   6 C    3.970 --    17 C    1.439     2 C    1.178    15 C    1.080
    17   6 C    3.936 --    16 C    1.439    18 C    1.113    20 C    1.108
    18   6 C    3.942 --    19 N    2.722    17 C    1.113
    19   7 N    2.953 --    18 C    2.722
    20   6 C    3.940 --    21 N    2.741    17 C    1.108
    21   7 N    2.950 --    20 C    2.741
    22   6 C    3.921 --     1 C    1.387    23 C    1.239    59 S    1.070
    23   6 C    3.946 --    39 C    1.277    22 C    1.239    24 N    1.173
    24   7 N    3.534 --    23 C    1.173    32 C    1.034    25 C    1.024
    25   6 C    3.959 --    31 C    1.379    26 C    1.365    24 N    1.024
    26   6 C    3.982 --    27 C    1.463    25 C    1.365   169 H    0.968
                            30 C    0.102
    27   6 C    3.989 --    26 C    1.463    28 C    1.396   170 H    0.968
                            31 C    0.104
    28   6 C    3.972 --    30 C    1.406    27 C    1.396    29 C    1.029
    29   6 C    3.995 --    28 C    1.029   171 H    0.984   172 H    0.972
                           173 H    0.967
    30   6 C    3.989 --    31 C    1.452    28 C    1.406   174 H    0.968
                            26 C    0.102
    31   6 C    3.975 --    30 C    1.452    25 C    1.379   175 H    0.967
                            27 C    0.104
    32   6 C    3.958 --    33 C    1.367    38 C    1.367    24 N    1.034
    33   6 C    3.979 --    34 C    1.455    32 C    1.367   176 H    0.966
    34   6 C    3.990 --    33 C    1.455    35 C    1.404   177 H    0.968
                            38 C    0.106
    35   6 C    3.978 --    34 C    1.404    37 C    1.398    36 C    1.028
    36   6 C    3.995 --    35 C    1.028   180 H    0.985   179 H    0.975
                           178 H    0.967
    37   6 C    3.989 --    38 C    1.460    35 C    1.398   181 H    0.968
    38   6 C    3.985 --    37 C    1.460    32 C    1.367   182 H    0.968
                            34 C    0.106
    39   6 C    3.927 --    58 C    1.333    23 C    1.277    40 S    1.089
    40  16 S    2.547 --    41 C    1.091    39 C    1.089
    41   6 C    3.903 --    42 C    1.388    60 C    1.209    40 S    1.091
    42   6 C    3.943 --    41 C    1.388    58 C    1.244    43 N    1.062
    43   7 N    3.469 --    51 C    1.068    42 C    1.062    44 C    1.027
    44   6 C    3.963 --    50 C    1.374    45 C    1.373    43 N    1.027
    45   6 C    3.985 --    46 C    1.458    44 C    1.373   183 H    0.967
                            49 C    0.104
    46   6 C    3.990 --    45 C    1.458    47 C    1.401   184 H    0.969
                            50 C    0.104
    47   6 C    3.977 --    49 C    1.405    46 C    1.401    48 C    1.027
    48   6 C    3.996 --    47 C    1.027   186 H    0.983   187 H    0.981
                           185 H    0.966
    49   6 C    3.991 --    50 C    1.455    47 C    1.405   188 H    0.969
                            45 C    0.104
    50   6 C    3.985 --    49 C    1.455    44 C    1.374   189 H    0.968
                            46 C    0.104
    51   6 C    3.964 --    57 C    1.357    52 C    1.351    43 N    1.068
    52   6 C    3.981 --    53 C    1.463    51 C    1.351   190 H    0.967
                            56 C    0.104
    53   6 C    3.990 --    52 C    1.463    54 C    1.400   191 H    0.968
    54   6 C    3.975 --    56 C    1.400    53 C    1.400    55 C    1.025
    55   6 C    3.996 --    54 C    1.025   193 H    0.985   194 H    0.976
                           192 H    0.969
    56   6 C    3.991 --    57 C    1.462    54 C    1.400   195 H    0.970
                            52 C    0.104
    57   6 C    3.985 --    56 C    1.462    51 C    1.357   196 H    0.967
    58   6 C    3.942 --    39 C    1.333    42 C    1.244    59 S    1.134
    59  16 S    2.674 --    58 C    1.134    22 C    1.070     4 O    0.126
    60   6 C    3.915 --    61 C    1.416    41 C    1.209   102 S    1.075
    61   6 C    3.947 --    60 C    1.416    70 C    1.274    62 C    1.026
    62   6 C    3.986 --    69 C    1.399    63 C    1.378    61 C    1.026
                            65 C    0.103
    63   6 C    3.987 --    64 C    1.444    62 C    1.378   197 H    0.969
                            66 C    0.105
    64   6 C    3.990 --    63 C    1.444    65 C    1.439   198 H    0.970
                            69 C    0.106
    65   6 C    3.985 --    64 C    1.439    66 C    1.409   199 H    0.968
                            62 C    0.103
    66   6 C    3.985 --    69 C    1.414    65 C    1.409    67 C    1.012
                            63 C    0.105
    67   6 C    3.996 --    66 C    1.012    68 C    1.000   201 H    0.974
                           200 H    0.972
    68   6 C    3.995 --    67 C    1.000   204 H    0.988   202 H    0.987
                           203 H    0.986
    69   6 C    3.984 --    66 C    1.414    62 C    1.399   205 H    0.967
                            64 C    0.106
    70   6 C    3.926 --   101 C    1.343    61 C    1.274    71 S    1.088
    71  16 S    2.497 --    72 C    1.104    70 C    1.088
    72   6 C    3.918 --   100 C    1.318    73 C    1.265    71 S    1.104
    73   6 C    3.959 --    98 C    1.275    72 C    1.265    74 C    1.176
    74   6 C    3.972 --    78 N    1.423    73 C    1.176    75 C    1.164
                            77 S    0.104
    75   6 C    3.972 --    76 N    1.421    79 C    1.177    74 C    1.164
                            77 S    0.104
    76   7 N    3.061 --    75 C    1.421    77 S    1.385    78 N    0.146
    77  16 S    3.100 --    76 N    1.385    78 N    1.384    75 C    0.104
                            74 C    0.104
    78   7 N    3.061 --    74 C    1.423    77 S    1.384    76 N    0.146
    79   6 C    3.957 --    97 C    1.279    80 C    1.259    75 C    1.177
    80   6 C    3.930 --    95 C    1.324    79 C    1.259    81 S    1.104
    81  16 S    2.515 --    80 C    1.104    82 C    1.099
    82   6 C    3.927 --    94 C    1.368    83 C    1.240    81 S    1.099
    83   6 C    3.969 --    92 C    1.466    82 C    1.240    84 C    1.051
    84   6 C    3.987 --    91 C    1.385    85 C    1.381    83 C    1.051
                            87 C    0.101
    85   6 C    3.987 --    86 C    1.448    84 C    1.381   206 H    0.964
                            88 C    0.103
    86   6 C    3.990 --    85 C    1.448    87 C    1.438   207 H    0.970
                            91 C    0.106
    87   6 C    3.983 --    86 C    1.438    88 C    1.404   208 H    0.969
                            84 C    0.101
    88   6 C    3.987 --    91 C    1.422    87 C    1.404    89 C    1.011
                            85 C    0.103
    89   6 C    3.996 --    88 C    1.011    90 C    1.002   209 H    0.976
                           210 H    0.970
    90   6 C    3.996 --    89 C    1.002   212 H    0.987   213 H    0.985
                           211 H    0.984
    91   6 C    3.988 --    88 C    1.422    84 C    1.385   214 H    0.965
                            86 C    0.106
    92   6 C    3.912 --    83 C    1.466   107 C    1.120    93 S    1.082
    93  16 S    2.545 --    94 C    1.111    92 C    1.082
    94   6 C    3.933 --    82 C    1.368    95 C    1.230    93 S    1.111
    95   6 C    3.940 --    80 C    1.324    94 C    1.230    96 N    1.160
    96   7 N    3.551 --    97 C    1.163    95 C    1.160   105 C    0.979
    97   6 C    3.937 --    79 C    1.279    98 C    1.222    96 N    1.163
    98   6 C    3.932 --    73 C    1.275    97 C    1.222    99 N    1.166
    99   7 N    3.554 --    98 C    1.166   100 C    1.159   103 C    0.979
   100   6 C    3.940 --    72 C    1.318   101 C    1.235    99 N    1.159
   101   6 C    3.923 --    70 C    1.343   100 C    1.235   102 S    1.118
   102  16 S    2.575 --   101 C    1.118    60 C    1.075
   103   6 C    3.959 --   104 C    1.007    99 N    0.979   215 H    0.961
                           216 H    0.954
   104   6 C    3.989 --   103 C    1.007   219 H    0.986   218 H    0.983
                           217 H    0.982
   105   6 C    3.959 --   106 C    1.008    96 N    0.979   220 H    0.962
                           221 H    0.954
   106   6 C    3.988 --   105 C    1.008   223 H    0.984   224 H    0.983
                           222 H    0.982
   107   6 C    3.891 --   108 C    1.401    92 C    1.120   144 S    1.098
   108   6 C    3.958 --   107 C    1.401   124 C    1.220   109 N    1.112
   109   7 N    3.495 --   108 C    1.112   117 C    1.044   110 C    1.032
   110   6 C    3.962 --   116 C    1.374   111 C    1.370   109 N    1.032
   111   6 C    3.985 --   112 C    1.462   110 C    1.370   225 H    0.968
                           115 C    0.105
   112   6 C    3.990 --   111 C    1.462   113 C    1.398   226 H    0.969
                           116 C    0.104
   113   6 C    3.978 --   115 C    1.409   112 C    1.398   114 C    1.027
   114   6 C    3.995 --   113 C    1.027   229 H    0.983   227 H    0.980
                           228 H    0.966
   115   6 C    3.990 --   116 C    1.450   113 C    1.409   230 H    0.968
                           111 C    0.105
   116   6 C    3.987 --   115 C    1.450   110 C    1.374   231 H    0.962
                           112 C    0.104
   117   6 C    3.963 --   118 C    1.373   123 C    1.366   109 N    1.044
   118   6 C    3.987 --   119 C    1.451   117 C    1.373   232 H    0.968
                           122 C    0.103
   119   6 C    3.990 --   118 C    1.451   120 C    1.407   233 H    0.968
                           123 C    0.103
   120   6 C    3.983 --   119 C    1.407   122 C    1.397   121 C    1.026
   121   6 C    3.996 --   120 C    1.026   236 H    0.981   234 H    0.980
                           235 H    0.966
   122   6 C    3.990 --   123 C    1.463   120 C    1.397   237 H    0.969
                           118 C    0.103
   123   6 C    3.986 --   122 C    1.463   117 C    1.366   238 H    0.965
                           119 C    0.103
   124   6 C    3.933 --   143 C    1.357   108 C    1.220   125 S    1.123
   125  16 S    2.513 --   124 C    1.123   126 C    1.053
   126   6 C    3.925 --   145 C    1.382   127 C    1.261   125 S    1.053
   127   6 C    3.945 --   126 C    1.261   143 C    1.242   128 N    1.194
   128   7 N    3.573 --   127 C    1.194   129 C    1.052   136 C    1.006
   129   6 C    3.962 --   130 C    1.362   135 C    1.352   128 N    1.052
   130   6 C    3.981 --   131 C    1.444   129 C    1.362   239 H    0.966
   131   6 C    3.990 --   130 C    1.444   132 C    1.413   240 H    0.968
                           135 C    0.102
   132   6 C    3.979 --   131 C    1.413   134 C    1.381   133 C    1.031
   133   6 C    3.994 --   132 C    1.031   243 H    0.985   241 H    0.969
                           242 H    0.967
   134   6 C    3.988 --   135 C    1.476   132 C    1.381   244 H    0.968
   135   6 C    3.986 --   134 C    1.476   129 C    1.352   245 H    0.967
                           131 C    0.102
   136   6 C    3.956 --   142 C    1.385   137 C    1.369   128 N    1.006
   137   6 C    3.984 --   138 C    1.461   136 C    1.369   246 H    0.962
                           141 C    0.104
   138   6 C    3.989 --   137 C    1.461   139 C    1.397   247 H    0.968
                           142 C    0.105
   139   6 C    3.975 --   141 C    1.408   138 C    1.397   140 C    1.029
   140   6 C    3.995 --   139 C    1.029   249 H    0.985   248 H    0.975
                           250 H    0.967
   141   6 C    3.989 --   142 C    1.449   139 C    1.408   251 H    0.968
                           137 C    0.104
   142   6 C    3.978 --   141 C    1.449   136 C    1.385   252 H    0.968
                           138 C    0.105
   143   6 C    3.935 --   124 C    1.357   127 C    1.242   144 S    1.102
   144  16 S    2.552 --   143 C    1.102   107 C    1.098
   145   6 C    3.948 --   146 C    1.392   126 C    1.382   253 H    0.948
   146   6 C    3.956 --   145 C    1.392   157 C    1.195   147 C    1.071
   147   6 C    3.930 --   148 O    1.689   146 C    1.071   149 C    1.003
   148   8 O    2.001 --   147 C    1.689
   149   6 C    3.975 --   155 C    1.394   150 C    1.292   147 C    1.003
   150   6 C    3.985 --   151 C    1.412   149 C    1.292   157 C    1.070
   151   6 C    3.974 --   150 C    1.412   152 C    1.411   254 H    0.957
   152   6 C    3.974 --   153 C    1.422   151 C    1.411   255 H    0.963
   153   6 C    3.929 --   152 C    1.422   155 C    1.330   154 Br   1.001
   154  35 Br   1.147 --   153 C    1.001
   155   6 C    3.919 --   149 C    1.394   153 C    1.330   156 Cl   1.010
   156  17 Cl   1.185 --   155 C    1.010
   157   6 C    3.971 --   158 C    1.437   146 C    1.195   150 C    1.070
   158   6 C    3.944 --   157 C    1.437   159 C    1.112   161 C    1.106
   159   6 C    3.942 --   160 N    2.742   158 C    1.112
   160   7 N    2.948 --   159 C    2.742
   161   6 C    3.943 --   162 N    2.748   158 C    1.106
   162   7 N    2.957 --   161 C    2.748
   163   1 H    0.994 --     1 C    0.931
   164   1 H    0.995 --     6 C    0.963
   165   1 H    0.996 --     8 C    0.966
   166   1 H    0.995 --     9 C    0.965
   167   1 H    0.994 --    12 C    0.963
   168   1 H    0.995 --    14 C    0.957
   169   1 H    0.998 --    26 C    0.968
   170   1 H    0.997 --    27 C    0.968
   171   1 H    0.997 --    29 C    0.984
   172   1 H    0.996 --    29 C    0.972
   173   1 H    0.995 --    29 C    0.967
   174   1 H    0.997 --    30 C    0.968
   175   1 H    0.998 --    31 C    0.967
   176   1 H    0.997 --    33 C    0.966
   177   1 H    0.997 --    34 C    0.968
   178   1 H    0.996 --    36 C    0.967
   179   1 H    0.996 --    36 C    0.975
   180   1 H    0.997 --    36 C    0.985
   181   1 H    0.998 --    37 C    0.968
   182   1 H    0.999 --    38 C    0.968
   183   1 H    0.998 --    45 C    0.967
   184   1 H    0.998 --    46 C    0.969
   185   1 H    0.996 --    48 C    0.966
   186   1 H    0.997 --    48 C    0.983
   187   1 H    0.997 --    48 C    0.981
   188   1 H    0.998 --    49 C    0.969
   189   1 H    0.999 --    50 C    0.968
   190   1 H    0.998 --    52 C    0.967
   191   1 H    0.998 --    53 C    0.968
   192   1 H    0.996 --    55 C    0.969
   193   1 H    0.998 --    55 C    0.985
   194   1 H    0.997 --    55 C    0.976
   195   1 H    0.998 --    56 C    0.970
   196   1 H    0.999 --    57 C    0.967
   197   1 H    0.998 --    63 C    0.969
   198   1 H    0.997 --    64 C    0.970
   199   1 H    0.998 --    65 C    0.968
   200   1 H    0.998 --    67 C    0.972
   201   1 H    0.998 --    67 C    0.974
   202   1 H    0.998 --    68 C    0.987
   203   1 H    0.997 --    68 C    0.986
   204   1 H    0.999 --    68 C    0.988
   205   1 H    0.998 --    69 C    0.967
   206   1 H    0.998 --    85 C    0.964
   207   1 H    0.997 --    86 C    0.970
   208   1 H    0.998 --    87 C    0.969
   209   1 H    0.998 --    89 C    0.976
   210   1 H    0.998 --    89 C    0.970
   211   1 H    0.999 --    90 C    0.984
   212   1 H    0.999 --    90 C    0.987
   213   1 H    0.998 --    90 C    0.985
   214   1 H    0.999 --    91 C    0.965
   215   1 H    0.994 --   103 C    0.961
   216   1 H    0.993 --   103 C    0.954
   217   1 H    0.996 --   104 C    0.982
   218   1 H    0.997 --   104 C    0.983
   219   1 H    0.997 --   104 C    0.986
   220   1 H    0.994 --   105 C    0.962
   221   1 H    0.993 --   105 C    0.954
   222   1 H    0.997 --   106 C    0.982
   223   1 H    0.997 --   106 C    0.984
   224   1 H    0.996 --   106 C    0.983
   225   1 H    0.998 --   111 C    0.968
   226   1 H    0.998 --   112 C    0.969
   227   1 H    0.997 --   114 C    0.980
   228   1 H    0.996 --   114 C    0.966
   229   1 H    0.997 --   114 C    0.983
   230   1 H    0.998 --   115 C    0.968
   231   1 H    0.998 --   116 C    0.962
   232   1 H    0.999 --   118 C    0.968
   233   1 H    0.998 --   119 C    0.968
   234   1 H    0.997 --   121 C    0.980
   235   1 H    0.996 --   121 C    0.966
   236   1 H    0.998 --   121 C    0.981
   237   1 H    0.998 --   122 C    0.969
   238   1 H    0.998 --   123 C    0.965
   239   1 H    0.998 --   130 C    0.966
   240   1 H    0.998 --   131 C    0.968
   241   1 H    0.995 --   133 C    0.969
   242   1 H    0.994 --   133 C    0.967
   243   1 H    0.997 --   133 C    0.985
   244   1 H    0.997 --   134 C    0.968
   245   1 H    0.998 --   135 C    0.967
   246   1 H    0.996 --   137 C    0.962
   247   1 H    0.997 --   138 C    0.968
   248   1 H    0.996 --   140 C    0.975
   249   1 H    0.997 --   140 C    0.985
   250   1 H    0.995 --   140 C    0.967
   251   1 H    0.997 --   141 C    0.968
   252   1 H    0.998 --   142 C    0.968
   253   1 H    0.992 --   145 C    0.948
   254   1 H    0.993 --   151 C    0.957
   255   1 H    0.992 --   152 C    0.963
 ---------------------------------------------------------------------------

Topologies differ in bond orders
Writing corrected topology to xtbtopo.mol

molecular dipole:
                 x           y           z       tot (Debye)
 q only:        1.344       0.403      -0.645
   full:        1.304       0.238      -0.440       3.551
molecular quadrupole (traceless):
                xx          xy          yy          xz          yz          zz
 q only:      126.711      53.847      42.446     -73.927     144.376    -169.158
  q+dip:       99.842      51.477      81.512    -102.423     135.823    -181.355
   full:       96.292      49.118      79.209    -110.009     135.939    -175.502


           -------------------------------------------------
          | TOTAL ENERGY             -424.748296617529 Eh   |
          | GRADIENT NORM               0.024109500365 Eh/α |
          | HOMO-LUMO GAP               0.569421148134 eV   |
           -------------------------------------------------

------------------------------------------------------------------------
 * finished run on 2022/02/05 at 20:52:56.674     
------------------------------------------------------------------------
 total:
 * wall-time:     0 d,  0 h,  0 min,  1.365 sec
 *  cpu-time:     0 d,  0 h,  0 min, 10.794 sec
 * ratio c/w:     7.907 speedup
 SCF:
 * wall-time:     0 d,  0 h,  0 min,  1.236 sec
 *  cpu-time:     0 d,  0 h,  0 min,  9.866 sec
 * ratio c/w:     7.982 speedup

