      -----------------------------------------------------------      
     |                   =====================                   |     
     |                           x T B                           |     
     |                   =====================                   |     
     |                         S. Grimme                         |     
     |          Mulliken Center for Theoretical Chemistry        |     
     |                    University of Bonn                     |     
      -----------------------------------------------------------      

   * xtb version 6.4.1 (unknown) compiled by 'oda6@login1.crc.pitt.edu' on 2021-06-25

   xtb is free software: you can redistribute it and/or modify it under
   the terms of the GNU Lesser General Public License as published by
   the Free Software Foundation, either version 3 of the License, or
   (at your option) any later version.
   
   xtb is distributed in the hope that it will be useful,
   but WITHOUT ANY WARRANTY; without even the implied warranty of
   MERCHANTABILITY or FITNESS FOR A PARTICULAR PURPOSE.  See the
   GNU Lesser General Public License for more details.
   
   Cite this work as:
   * C. Bannwarth, E. Caldeweyher, S. Ehlert, A. Hansen, P. Pracht,
     J. Seibert, S. Spicher, S. Grimme, WIREs Comput. Mol. Sci., 2020, 11,
     e01493. DOI: 10.1002/wcms.1493
   
   for GFN2-xTB:
   * C. Bannwarth, S. Ehlert and S. Grimme., J. Chem. Theory Comput., 2019,
     15, 1652-1671. DOI: 10.1021/acs.jctc.8b01176
   for GFN1-xTB:
   * S. Grimme, C. Bannwarth, P. Shushkov, J. Chem. Theory Comput., 2017,
     13, 1989-2009. DOI: 10.1021/acs.jctc.7b00118
   for GFN0-xTB:
   * P. Pracht, E. Caldeweyher, S. Ehlert, S. Grimme, ChemRxiv, 2019, preprint.
     DOI: 10.26434/chemrxiv.8326202.v1
   for GFN-FF:
   * S. Spicher and S. Grimme, Angew. Chem. Int. Ed., 2020, 59, 15665-15673.
     DOI: 10.1002/anie.202004239
   
   for DFT-D4:
   * E. Caldeweyher, C. Bannwarth and S. Grimme, J. Chem. Phys., 2017,
     147, 034112. DOI: 10.1063/1.4993215
   * E. Caldeweyher, S. Ehlert, A. Hansen, H. Neugebauer, S. Spicher,
     C. Bannwarth and S. Grimme, J. Chem. Phys., 2019, 150, 154122.
     DOI: 10.1063/1.5090222
   * E. Caldeweyher, J.-M. Mewes, S. Ehlert and S. Grimme, Phys. Chem. Chem. Phys.
     2020, 22, 8499-8512. DOI: 10.1039/D0CP00502A
   
   for sTDA-xTB:
   * S. Grimme and C. Bannwarth, J. Chem. Phys., 2016, 145, 054103.
     DOI: 10.1063/1.4959605
   
   in the mass-spec context:
   * V. Asgeirsson, C. Bauer and S. Grimme, Chem. Sci., 2017, 8, 4879.
     DOI: 10.1039/c7sc00601b
   * J. Koopman and S. Grimme, ACS Omega 2019, 4, 12, 15120-15133.
     DOI: 10.1021/acsomega.9b02011
   
   for metadynamics refer to:
   * S. Grimme, J. Chem. Theory Comput., 2019, 155, 2847-2862
     DOI: 10.1021/acs.jctc.9b00143
   
   for SPH calculations refer to:
   * S. Spicher and S. Grimme, J. Chem. Theory Comput., 2021, 17, 1701-1714
     DOI: 10.1021/acs.jctc.0c01306
   
   with help from (in alphabetical order)
   P. Atkinson, C. Bannwarth, F. Bohle, G. Brandenburg, E. Caldeweyher
   M. Checinski, S. Dohm, S. Ehlert, S. Ehrlich, I. Gerasimov, J. Koopman
   C. Lavigne, S. Lehtola, F. März, M. Müller, F. Musil, H. Neugebauer
   J. Pisarek, C. Plett, P. Pracht, J. Seibert, P. Shushkov, S. Spicher
   M. Stahn, M. Steiner, T. Strunk, J. Stückrath, T. Rose, and J. Unsleber
   
 * started run on 2022/02/10 at 19:08:06.212     

           -------------------------------------------------
          |                Calculation Setup                |
           -------------------------------------------------

          program call               : /ihome/ghutchison/oda6/xtb/xtb-641/bin/xtb ../../GFN2_output/23_103_37_26_6.mol --sp --alpb water
          hostname                   : smp-n25
          coordinate file            : ../../GFN2_output/23_103_37_26_6.mol
          omp threads                :                     8
          number of atoms            :                   123
          number of electrons        :                   412
          charge                     :                     0
          spin                       :                   0.0
          first test random number   :      0.69529034295104

   ID    Z sym.   atoms
    1    6 C      1-3, 5, 7, 9-13, 15, 17-24, 26-28, 30-32, 34-37, 39-54,
                  56-59, 61, 63-65, 69-71, 73-76, 78-82, 84
    2    8 O      4, 25, 29, 67, 72
    3   16 S      6, 33
    4   35 Br     8
    5    7 N      14, 16, 38, 55, 66, 68, 83, 85
    6    9 F      60, 62
    7   17 Cl     77
    8    1 H      86-123

           -------------------------------------------------
          |                 G F N 2 - x T B                 |
           -------------------------------------------------

        Reference                      10.1021/acs.jctc.8b01176
      * Hamiltonian:
        H0-scaling (s, p, d)           1.850000    2.230000    2.230000
        zeta-weighting                 0.500000
      * Dispersion:
        s8                             2.700000
        a1                             0.520000
        a2                             5.000000
        s9                             5.000000
      * Repulsion:
        kExp                           1.500000    1.000000
        rExp                           1.000000
      * Coulomb:
        alpha                          2.000000
        third order                    shell-resolved
        anisotropic                    true
        a3                             3.000000
        a5                             4.000000
        cn-shift                       1.200000
        cn-exp                         4.000000
        max-rad                        5.000000

      * Solvation model:               ALPB
        Solvent                        water
        Parameter file                 internal GFN2-xTB/ALPB
        Dielectric constant                8.0200E+01
        Reference state                gsolv [1 M gas/solution]
        Free energy shift                  1.0808E-03 Eh       6.7819E-01 kcal/mol
        Temperature                        2.9815E+02 K
        Density                            1.0000E+00 kg/L
        Solvent mass                       1.8000E+01 g/mol
        Interaction kernel             P16
        Born radius scaling (c1)           1.4744E+00
        Born radii integrator          GBOBC
        Born offset                        0.0000E+00 a0       0.0000E+00 AA
        H-bond correction              true
        Ion screening                  false
        Surface tension                    1.0000E-05 Eh       1.5569E+01 dyn/cm
        Grid points                               230 per atom

          ...................................................
          :                      SETUP                      :
          :.................................................:
          :  # basis functions                 402          :
          :  # atomic orbitals                 398          :
          :  # shells                          212          :
          :  # electrons                       412          :
          :  max. iterations                   250          :
          :  Hamiltonian                  GFN2-xTB          :
          :  restarted?                      false          :
          :  GBSA solvation                   true          :
          :  PC potential                    false          :
          :  electronic temp.          300.0000000     K    :
          :  accuracy                    1.0000000          :
          :  -> integral cutoff          0.2500000E+02      :
          :  -> integral neglect         0.1000000E-07      :
          :  -> SCF convergence          0.1000000E-05 Eh   :
          :  -> wf. convergence          0.1000000E-03 e    :
          :  Broyden damping             0.4000000          :
          ...................................................

 iter      E             dE          RMSdq      gap      omega  full diag
   1   -232.0502324 -0.232050E+03  0.514E+00    0.29       0.0  T
   2   -232.2815433 -0.231311E+00  0.321E+00    0.92       1.0  T
   3   -232.1447707  0.136773E+00  0.171E+00    0.25       1.0  T
   4   -232.3542541 -0.209483E+00  0.621E-01    0.82       1.0  T
   5   -232.3864263 -0.321722E-01  0.210E-01    0.55       1.0  T
   6   -232.3881474 -0.172108E-02  0.112E-01    0.41       1.0  T
   7   -232.3884480 -0.300676E-03  0.682E-02    0.43       1.0  T
   8   -232.3885336 -0.855816E-04  0.437E-02    0.41       1.0  T
   9   -232.3886014 -0.678160E-04  0.309E-02    0.43       1.0  T
  10   -232.3886214 -0.199411E-04  0.229E-02    0.43       1.0  T
  11   -232.3886360 -0.145656E-04  0.131E-02    0.43       1.0  T
  12   -232.3886424 -0.646221E-05  0.727E-03    0.43       1.2  T
  13   -232.3886443 -0.188967E-05  0.396E-03    0.43       2.3  T
  14   -232.3886450 -0.681546E-06  0.198E-03    0.43       4.6  T
  15   -232.3886451 -0.769735E-07  0.121E-03    0.43       7.4  T
  16   -232.3886451 -0.503372E-07  0.704E-04    0.43      12.8  T
  17   -232.3886451 -0.683977E-08  0.426E-04    0.43      21.2  T

   *** convergence criteria satisfied after 17 iterations ***

         #    Occupation            Energy/Eh            Energy/eV
      -------------------------------------------------------------
         1        2.0000           -1.0765990             -29.2958
       ...           ...                  ...                  ...
       200        2.0000           -0.4075718             -11.0906
       201        2.0000           -0.4005232             -10.8988
       202        2.0000           -0.3914291             -10.6513
       203        2.0000           -0.3830843             -10.4243
       204        2.0000           -0.3795618             -10.3284
       205        2.0000           -0.3749007             -10.2016
       206        1.9995           -0.3606608              -9.8141 (HOMO)
       207        0.0005           -0.3448528              -9.3839 (LUMO)
       208        0.0000           -0.3409577              -9.2779
       209                         -0.3329136              -9.0590
       210                         -0.3237740              -8.8103
       211                         -0.3150508              -8.5730
       ...                                ...                  ...
       398                          1.1485850              31.2546
      -------------------------------------------------------------
                  HL-Gap            0.0158080 Eh            0.4302 eV
             Fermi-level           -0.3527646 Eh           -9.5992 eV

 SCC (total)                   0 d,  0 h,  0 min,  0.359 sec
 SCC setup                      ...        0 min,  0.003 sec (  0.892%)
 Dispersion                     ...        0 min,  0.004 sec (  1.074%)
 classical contributions        ...        0 min,  0.000 sec (  0.047%)
 integral evaluation            ...        0 min,  0.014 sec (  3.963%)
 iterations                     ...        0 min,  0.293 sec ( 81.610%)
 molecular gradient             ...        0 min,  0.043 sec ( 12.038%)
 printout                       ...        0 min,  0.001 sec (  0.351%)

         :::::::::::::::::::::::::::::::::::::::::::::::::::::
         ::                     SUMMARY                     ::
         :::::::::::::::::::::::::::::::::::::::::::::::::::::
         :: total energy            -228.915230201480 Eh    ::
         :: total w/o Gsasa/hb      -228.890057929340 Eh    ::
         :: gradient norm              0.041867870382 Eh/a0 ::
         :: HOMO-LUMO gap              0.430157773883 eV    ::
         ::.................................................::
         :: SCC energy              -232.388645119482 Eh    ::
         :: -> isotropic ES            0.198719772761 Eh    ::
         :: -> anisotropic ES          0.009881621059 Eh    ::
         :: -> anisotropic XC          0.129981113144 Eh    ::
         :: -> dispersion             -0.180766333917 Eh    ::
         :: -> Gsolv                  -0.065183326671 Eh    ::
         ::    -> Gelec               -0.040011054531 Eh    ::
         ::    -> Gsasa               -0.019998368033 Eh    ::
         ::    -> Ghb                 -0.006254663805 Eh    ::
         ::    -> Gshift               0.001080759698 Eh    ::
         :: repulsion energy           3.475251176490 Eh    ::
         :: add. restraining           0.000000000000 Eh    ::
         :: total charge              -0.000000000184 e     ::
         :::::::::::::::::::::::::::::::::::::::::::::::::::::

           -------------------------------------------------
          |                Property Printout                |
           -------------------------------------------------

    * Orbital Energies and Occupations

         #    Occupation            Energy/Eh            Energy/eV
      -------------------------------------------------------------
         1        2.0000           -1.0765990             -29.2958
       ...           ...                  ...                  ...
       194        2.0000           -0.4228174             -11.5054
       195        2.0000           -0.4199360             -11.4270
       196        2.0000           -0.4182631             -11.3815
       197        2.0000           -0.4158545             -11.3160
       198        2.0000           -0.4143519             -11.2751
       199        2.0000           -0.4094631             -11.1421
       200        2.0000           -0.4075718             -11.0906
       201        2.0000           -0.4005232             -10.8988
       202        2.0000           -0.3914291             -10.6513
       203        2.0000           -0.3830843             -10.4243
       204        2.0000           -0.3795618             -10.3284
       205        2.0000           -0.3749007             -10.2016
       206        1.9995           -0.3606608              -9.8141 (HOMO)
       207        0.0005           -0.3448528              -9.3839 (LUMO)
       208        0.0000           -0.3409577              -9.2779
       209                         -0.3329136              -9.0590
       210                         -0.3237740              -8.8103
       211                         -0.3150508              -8.5730
       212                         -0.2749243              -7.4811
       213                         -0.2676825              -7.2840
       214                         -0.2659918              -7.2380
       215                         -0.2580101              -7.0208
       216                         -0.2560004              -6.9661
       217                         -0.2558579              -6.9622
       ...                                ...                  ...
       398                          1.1485850              31.2546
      -------------------------------------------------------------
                  HL-Gap            0.0158080 Eh            0.4302 eV
             Fermi-level           -0.3527646 Eh           -9.5992 eV

     #   Z          covCN         q      C6AA      α(0)
     1   6 C        2.918    -0.012    28.322     8.727
     2   6 C        3.025    -0.046    29.119     8.851
     3   6 C        2.872     0.231    23.173     7.891
     4   8 O        0.918    -0.405    21.755     6.255
     5   6 C        3.078    -0.021    28.451     8.745
     6  16 S        2.392     0.105   136.829    19.688
     7   6 C        2.955     0.082    26.177     8.392
     8  35 Br       1.141    -0.116   188.235    22.122
     9   6 C        3.097    -0.051    29.130     8.845
    10   6 C        3.234    -0.003    27.225     8.468
    11   6 C        3.030     0.037    27.134     8.544
    12   6 C        2.947     0.006    27.892     8.662
    13   6 C        1.937     0.134    27.825     8.519
    14   7 N        0.911    -0.275    27.114     7.531
    15   6 C        1.931     0.133    27.837     8.520
    16   7 N        0.911    -0.277    27.155     7.537
    17   6 C        2.976     0.023    27.486     8.600
    18   6 C        3.106    -0.043    28.923     8.812
    19   6 C        3.126     0.002    27.793     8.633
    20   6 C        2.973     0.016    27.659     8.627
    21   6 C        2.925    -0.079    29.978     8.979
    22   6 C        2.862     0.142    24.910     8.181
    23   6 C        2.915    -0.109    30.757     9.094
    24   6 C        2.861     0.141    24.915     8.182
    25   8 O        1.706    -0.293    18.866     5.864
    26   6 C        3.690     0.083    19.380     6.300
    27   6 C        3.751    -0.128    23.019     6.842
    28   6 C        2.925    -0.076    29.902     8.968
    29   8 O        1.706    -0.295    18.905     5.870
    30   6 C        3.690     0.083    19.373     6.299
    31   6 C        3.751    -0.129    23.039     6.845
    32   6 C        3.005     0.030    27.326     8.575
    33  16 S        2.365     0.032   139.757    19.897
    34   6 C        3.010     0.004    27.926     8.669
    35   6 C        2.927    -0.032    28.807     8.802
    36   6 C        2.908    -0.048    29.203     8.861
    37   6 C        3.079     0.054    26.710     8.473
    38   7 N        2.797    -0.020    21.642     6.909
    39   6 C        3.739    -0.009    20.812     6.509
    40   6 C        3.752    -0.121    22.886     6.822
    41   6 C        3.082     0.043    26.938     8.509
    42   6 C        3.072    -0.015    28.304     8.723
    43   6 C        3.066    -0.012    28.246     8.715
    44   6 C        2.919    -0.034    28.839     8.806
    45   6 C        2.905    -0.048    29.197     8.860
    46   6 C        3.080     0.040    27.009     8.520
    47   6 C        3.071    -0.015    28.308     8.724
    48   6 C        2.905    -0.050    29.229     8.865
    49   6 C        3.067    -0.010    28.207     8.709
    50   6 C        2.916    -0.029    28.724     8.789
    51   6 C        2.973     0.012    27.732     8.638
    52   6 C        2.926    -0.038    28.942     8.822
    53   6 C        2.907    -0.046    29.133     8.850
    54   6 C        3.075     0.057    26.638     8.462
    55   7 N        2.797    -0.008    21.404     6.871
    56   6 C        3.739    -0.012    20.865     6.518
    57   6 C        3.752    -0.125    22.953     6.832
    58   6 C        2.962    -0.005    28.148     8.702
    59   6 C        2.789     0.145    24.824     8.161
    60   9 F        0.788    -0.220    11.447     3.996
    61   6 C        2.789     0.170    24.329     8.080
    62   9 F        0.788    -0.212    11.361     3.982
    63   6 C        2.960    -0.016    28.396     8.741
    64   6 C        3.022     0.068    26.457     8.437
    65   6 C        3.009     0.067    26.491     8.443
    66   7 N        1.930    -0.109    24.130     7.284
    67   8 O        1.932    -0.017    14.673     5.173
    68   7 N        1.923    -0.132    24.623     7.358
    69   6 C        2.900    -0.001    28.046     8.683
    70   6 C        3.006    -0.025    28.612     8.774
    71   6 C        2.863     0.241    22.983     7.858
    72   8 O        0.856    -0.414    21.953     6.282
    73   6 C        3.040    -0.018    28.410     8.742
    74   6 C        2.914    -0.012    28.322     8.727
    75   6 C        2.959    -0.033    28.826     8.806
    76   6 C        2.889     0.116    25.442     8.270
    77  17 Cl       0.975    -0.159   104.151    15.613
    78   6 C        2.954    -0.034    28.841     8.808
    79   6 C        3.033     0.017    27.597     8.617
    80   6 C        3.015     0.041    27.068     8.534
    81   6 C        2.947     0.013    27.719     8.635
    82   6 C        1.937     0.137    27.745     8.506
    83   7 N        0.911    -0.266    26.892     7.500
    84   6 C        1.937     0.133    27.829     8.519
    85   7 N        0.911    -0.267    26.915     7.503
    86   1 H        0.925     0.072     2.067     2.249
    87   1 H        0.926     0.083     1.948     2.182
    88   1 H        0.926     0.066     2.135     2.285
    89   1 H        0.926     0.054     2.274     2.358
    90   1 H        0.926     0.044     2.392     2.419
    91   1 H        0.923     0.034     2.527     2.486
    92   1 H        0.923     0.038     2.480     2.463
    93   1 H        0.925     0.062     2.172     2.305
    94   1 H        0.925     0.064     2.157     2.297
    95   1 H        0.925     0.062     2.174     2.306
    96   1 H        0.926     0.053     2.282     2.362
    97   1 H        0.923     0.036     2.504     2.475
    98   1 H        0.923     0.037     2.484     2.465
    99   1 H        0.925     0.064     2.158     2.297
   100   1 H        0.925     0.062     2.181     2.310
   101   1 H        0.925     0.063     2.169     2.303
   102   1 H        0.926     0.046     2.375     2.410
   103   1 H        0.926     0.054     2.268     2.355
   104   1 H        0.924     0.068     2.107     2.270
   105   1 H        0.924     0.068     2.109     2.271
   106   1 H        0.925     0.050     2.315     2.379
   107   1 H        0.925     0.061     2.192     2.315
   108   1 H        0.925     0.052     2.292     2.368
   109   1 H        0.926     0.055     2.264     2.353
   110   1 H        0.926     0.058     2.225     2.333
   111   1 H        0.926     0.051     2.301     2.372
   112   1 H        0.926     0.056     2.243     2.342
   113   1 H        0.926     0.068     2.110     2.271
   114   1 H        0.926     0.066     2.130     2.282
   115   1 H        0.924     0.073     2.054     2.241
   116   1 H        0.924     0.074     2.043     2.235
   117   1 H        0.925     0.055     2.257     2.349
   118   1 H        0.925     0.064     2.158     2.297
   119   1 H        0.925     0.054     2.273     2.358
   120   1 H        0.925     0.085     1.926     2.170
   121   1 H        0.926     0.096     1.824     2.112
   122   1 H        0.926     0.105     1.741     2.064
   123   1 H        0.926     0.080     1.978     2.199

 Mol. C6AA /au·bohr⁶  :     263639.676671
 Mol. C8AA /au·bohr⁸  :    7206737.747609
 Mol. α(0) /au        :        813.765590


Wiberg/Mayer (AO) data.
largest (>0.10) Wiberg bond orders for each atom

 ---------------------------------------------------------------------------
     #   Z sym  total        # sym  WBO       # sym  WBO       # sym  WBO
 ---------------------------------------------------------------------------
     1   6 C    3.937 --     2 C    1.466    17 C    1.323    86 H    0.939
     2   6 C    3.955 --     1 C    1.466    11 C    1.151     3 C    1.058
     3   6 C    3.916 --     4 O    1.677     2 C    1.058     5 C    1.057
     4   8 O    2.064 --     3 C    1.677
     5   6 C    3.924 --    10 C    1.399     6 S    1.192     3 C    1.057
     6  16 S    2.689 --     5 C    1.192     7 C    1.178
     7   6 C    3.892 --     9 C    1.540     6 S    1.178     8 Br   1.031
     8  35 Br   1.177 --     7 C    1.031
     9   6 C    3.976 --     7 C    1.540    10 C    1.279    87 H    0.954
    10   6 C    3.972 --     5 C    1.399     9 C    1.279    11 C    1.083
    11   6 C    3.958 --    12 C    1.459     2 C    1.151    10 C    1.083
    12   6 C    3.950 --    11 C    1.459    15 C    1.106    13 C    1.101
    13   6 C    3.940 --    14 N    2.756    12 C    1.101
    14   7 N    2.956 --    13 C    2.756
    15   6 C    3.941 --    16 N    2.743    12 C    1.106
    16   7 N    2.949 --    15 C    2.743
    17   6 C    3.944 --    18 C    1.350     1 C    1.323    33 S    1.099
    18   6 C    3.959 --    19 C    1.399    17 C    1.350    88 H    0.960
    19   6 C    3.963 --    18 C    1.399    32 C    1.346    20 C    1.038
    20   6 C    3.987 --    21 C    1.402    28 C    1.389    19 C    1.038
    21   6 C    3.975 --    20 C    1.402    22 C    1.354    89 H    0.966
    22   6 C    3.934 --    23 C    1.370    21 C    1.354    29 O    1.068
    23   6 C    3.970 --    22 C    1.370    24 C    1.364    90 H    0.960
    24   6 C    3.936 --    23 C    1.364    28 C    1.363    25 O    1.067
    25   8 O    2.222 --    24 C    1.067    26 C    0.957
    26   6 C    3.938 --    27 C    1.015    91 H    0.968    92 H    0.968
                            25 O    0.957
    27   6 C    3.989 --    26 C    1.015    95 H    0.985    93 H    0.985
                            94 H    0.983
    28   6 C    3.976 --    20 C    1.389    24 C    1.363    96 H    0.966
    29   8 O    2.223 --    22 C    1.068    30 C    0.957
    30   6 C    3.938 --    31 C    1.015    97 H    0.968    98 H    0.968
                            29 O    0.957
    31   6 C    3.989 --    30 C    1.015   100 H    0.985   101 H    0.985
                            99 H    0.983
    32   6 C    3.923 --    19 C    1.346    33 S    1.217    34 C    1.129
    33  16 S    2.729 --    32 C    1.217    17 C    1.099
    34   6 C    3.965 --    44 C    1.371    35 C    1.299    32 C    1.129
    35   6 C    3.954 --    36 C    1.511    34 C    1.299   102 H    0.967
    36   6 C    3.973 --    35 C    1.511    37 C    1.323   103 H    0.963
    37   6 C    3.939 --    36 C    1.323    43 C    1.227    38 N    1.187
    38   7 N    3.546 --    37 C    1.187    41 C    1.145    39 C    0.988
    39   6 C    3.963 --    40 C    1.003    38 N    0.988   105 H    0.967
                           104 H    0.966
    40   6 C    3.985 --    39 C    1.003   108 H    0.986   106 H    0.986
                           107 H    0.983
    41   6 C    3.947 --    48 C    1.372    42 C    1.230    38 N    1.145
    42   6 C    3.962 --    45 C    1.388    41 C    1.230    43 C    1.144
    43   6 C    3.968 --    44 C    1.404    37 C    1.227    42 C    1.144
    44   6 C    3.956 --    43 C    1.404    34 C    1.371   109 H    0.961
    45   6 C    3.940 --    42 C    1.388    46 C    1.383   110 H    0.961
    46   6 C    3.950 --    45 C    1.383    47 C    1.233    55 N    1.129
    47   6 C    3.960 --    48 C    1.398    46 C    1.233    49 C    1.135
    48   6 C    3.946 --    47 C    1.398    41 C    1.372   111 H    0.962
    49   6 C    3.964 --    50 C    1.433    54 C    1.208    47 C    1.135
    50   6 C    3.957 --    49 C    1.433    51 C    1.341   112 H    0.964
    51   6 C    3.955 --    50 C    1.341    52 C    1.287    58 C    1.144
    52   6 C    3.958 --    53 C    1.531    51 C    1.287   113 H    0.960
    53   6 C    3.965 --    52 C    1.531    54 C    1.305   114 H    0.962
    54   6 C    3.946 --    53 C    1.305    55 N    1.220    49 C    1.208
    55   7 N    3.544 --    54 C    1.220    46 C    1.129    56 C    0.986
    56   6 C    3.958 --    57 C    1.002    55 N    0.986   115 H    0.966
                           116 H    0.964
    57   6 C    3.981 --    56 C    1.002   119 H    0.986   117 H    0.986
                           118 H    0.982
    58   6 C    3.933 --    59 C    1.387    65 C    1.156    51 C    1.144
    59   6 C    3.855 --    58 C    1.387    61 C    1.290    60 F    0.958
    60   9 F    1.089 --    59 C    0.958
    61   6 C    3.841 --    63 C    1.377    59 C    1.290    62 F    0.972
    62   9 F    1.105 --    61 C    0.972
    63   6 C    3.949 --    61 C    1.377    69 C    1.170    64 C    1.162
    64   6 C    3.972 --    68 N    1.478    63 C    1.162    65 C    1.153
    65   6 C    3.976 --    66 N    1.484    58 C    1.156    64 C    1.153
    66   7 N    2.985 --    65 C    1.484    67 O    1.152    68 N    0.237
    67   8 O    2.501 --    66 N    1.152    68 N    1.147
    68   7 N    2.974 --    64 C    1.478    67 O    1.147    66 N    0.237
    69   6 C    3.924 --    70 C    1.589    63 C    1.170   120 H    0.943
    70   6 C    3.951 --    69 C    1.589    80 C    1.130    71 C    1.015
    71   6 C    3.909 --    72 O    1.746    73 C    1.030    70 C    1.015
    72   8 O    2.023 --    71 C    1.746
    73   6 C    3.975 --    74 C    1.407    79 C    1.287    71 C    1.030
    74   6 C    3.976 --    75 C    1.432    73 C    1.407   121 H    0.960
    75   6 C    3.959 --    74 C    1.432    76 C    1.390   122 H    0.959
    76   6 C    3.908 --    75 C    1.390    78 C    1.389    77 Cl   0.992
    77  17 Cl   1.130 --    76 C    0.992
    78   6 C    3.973 --    79 C    1.407    76 C    1.389   123 H    0.957
    79   6 C    3.985 --    78 C    1.407    73 C    1.287    80 C    1.084
    80   6 C    3.964 --    81 C    1.489    70 C    1.130    79 C    1.084
    81   6 C    3.952 --    80 C    1.489    82 C    1.098    84 C    1.096
    82   6 C    3.942 --    83 N    2.759    81 C    1.098
    83   7 N    2.962 --    82 C    2.759
    84   6 C    3.942 --    85 N    2.758    81 C    1.096
    85   7 N    2.959 --    84 C    2.758
    86   1 H    0.993 --     1 C    0.939
    87   1 H    0.993 --     9 C    0.954
    88   1 H    0.995 --    18 C    0.960
    89   1 H    0.997 --    21 C    0.966
    90   1 H    0.998 --    23 C    0.960
    91   1 H    0.999 --    26 C    0.968
    92   1 H    0.999 --    26 C    0.968
    93   1 H    0.996 --    27 C    0.985
    94   1 H    0.995 --    27 C    0.983
    95   1 H    0.996 --    27 C    0.985
    96   1 H    0.997 --    28 C    0.966
    97   1 H    0.999 --    30 C    0.968
    98   1 H    0.999 --    30 C    0.968
    99   1 H    0.995 --    31 C    0.983
   100   1 H    0.996 --    31 C    0.985
   101   1 H    0.996 --    31 C    0.985
   102   1 H    0.997 --    35 C    0.967
   103   1 H    0.996 --    36 C    0.963
   104   1 H    0.993 --    39 C    0.966
   105   1 H    0.994 --    39 C    0.967
   106   1 H    0.997 --    40 C    0.986
   107   1 H    0.995 --    40 C    0.983
   108   1 H    0.997 --    40 C    0.986
   109   1 H    0.996 --    44 C    0.961
   110   1 H    0.996 --    45 C    0.961
   111   1 H    0.996 --    48 C    0.962
   112   1 H    0.996 --    50 C    0.964
   113   1 H    0.995 --    52 C    0.960
   114   1 H    0.994 --    53 C    0.962
   115   1 H    0.993 --    56 C    0.966
   116   1 H    0.992 --    56 C    0.964
   117   1 H    0.997 --    57 C    0.986
   118   1 H    0.995 --    57 C    0.982
   119   1 H    0.997 --    57 C    0.986
   120   1 H    0.990 --    69 C    0.943
   121   1 H    0.990 --    74 C    0.960
   122   1 H    0.988 --    75 C    0.959
   123   1 H    0.993 --    78 C    0.957
 ---------------------------------------------------------------------------

Topologies differ in bond orders
Writing corrected topology to xtbtopo.mol

molecular dipole:
                 x           y           z       tot (Debye)
 q only:        0.822       1.762      -3.315
   full:        0.885       1.408      -4.421      12.006
molecular quadrupole (traceless):
                xx          xy          yy          xz          yz          zz
 q only:      135.956     -61.765    -328.260       9.156      97.677     192.304
  q+dip:      133.703     -62.554    -318.214      12.536     102.838     184.510
   full:      150.219     -65.525    -327.553      16.086     103.149     177.335


           -------------------------------------------------
          | TOTAL ENERGY             -228.915230201480 Eh   |
          | GRADIENT NORM               0.041867870382 Eh/α |
          | HOMO-LUMO GAP               0.430157773883 eV   |
           -------------------------------------------------

------------------------------------------------------------------------
 * finished run on 2022/02/10 at 19:08:06.634     
------------------------------------------------------------------------
 total:
 * wall-time:     0 d,  0 h,  0 min,  0.422 sec
 *  cpu-time:     0 d,  0 h,  0 min,  3.296 sec
 * ratio c/w:     7.802 speedup
 SCF:
 * wall-time:     0 d,  0 h,  0 min,  0.361 sec
 *  cpu-time:     0 d,  0 h,  0 min,  2.881 sec
 * ratio c/w:     7.975 speedup

