      -----------------------------------------------------------      
     |                   =====================                   |     
     |                           x T B                           |     
     |                   =====================                   |     
     |                         S. Grimme                         |     
     |          Mulliken Center for Theoretical Chemistry        |     
     |                    University of Bonn                     |     
      -----------------------------------------------------------      

   * xtb version 6.4.1 (unknown) compiled by 'oda6@login1.crc.pitt.edu' on 2021-06-25

   xtb is free software: you can redistribute it and/or modify it under
   the terms of the GNU Lesser General Public License as published by
   the Free Software Foundation, either version 3 of the License, or
   (at your option) any later version.
   
   xtb is distributed in the hope that it will be useful,
   but WITHOUT ANY WARRANTY; without even the implied warranty of
   MERCHANTABILITY or FITNESS FOR A PARTICULAR PURPOSE.  See the
   GNU Lesser General Public License for more details.
   
   Cite this work as:
   * C. Bannwarth, E. Caldeweyher, S. Ehlert, A. Hansen, P. Pracht,
     J. Seibert, S. Spicher, S. Grimme, WIREs Comput. Mol. Sci., 2020, 11,
     e01493. DOI: 10.1002/wcms.1493
   
   for GFN2-xTB:
   * C. Bannwarth, S. Ehlert and S. Grimme., J. Chem. Theory Comput., 2019,
     15, 1652-1671. DOI: 10.1021/acs.jctc.8b01176
   for GFN1-xTB:
   * S. Grimme, C. Bannwarth, P. Shushkov, J. Chem. Theory Comput., 2017,
     13, 1989-2009. DOI: 10.1021/acs.jctc.7b00118
   for GFN0-xTB:
   * P. Pracht, E. Caldeweyher, S. Ehlert, S. Grimme, ChemRxiv, 2019, preprint.
     DOI: 10.26434/chemrxiv.8326202.v1
   for GFN-FF:
   * S. Spicher and S. Grimme, Angew. Chem. Int. Ed., 2020, 59, 15665-15673.
     DOI: 10.1002/anie.202004239
   
   for DFT-D4:
   * E. Caldeweyher, C. Bannwarth and S. Grimme, J. Chem. Phys., 2017,
     147, 034112. DOI: 10.1063/1.4993215
   * E. Caldeweyher, S. Ehlert, A. Hansen, H. Neugebauer, S. Spicher,
     C. Bannwarth and S. Grimme, J. Chem. Phys., 2019, 150, 154122.
     DOI: 10.1063/1.5090222
   * E. Caldeweyher, J.-M. Mewes, S. Ehlert and S. Grimme, Phys. Chem. Chem. Phys.
     2020, 22, 8499-8512. DOI: 10.1039/D0CP00502A
   
   for sTDA-xTB:
   * S. Grimme and C. Bannwarth, J. Chem. Phys., 2016, 145, 054103.
     DOI: 10.1063/1.4959605
   
   in the mass-spec context:
   * V. Asgeirsson, C. Bauer and S. Grimme, Chem. Sci., 2017, 8, 4879.
     DOI: 10.1039/c7sc00601b
   * J. Koopman and S. Grimme, ACS Omega 2019, 4, 12, 15120-15133.
     DOI: 10.1021/acsomega.9b02011
   
   for metadynamics refer to:
   * S. Grimme, J. Chem. Theory Comput., 2019, 155, 2847-2862
     DOI: 10.1021/acs.jctc.9b00143
   
   for SPH calculations refer to:
   * S. Spicher and S. Grimme, J. Chem. Theory Comput., 2021, 17, 1701-1714
     DOI: 10.1021/acs.jctc.0c01306
   
   with help from (in alphabetical order)
   P. Atkinson, C. Bannwarth, F. Bohle, G. Brandenburg, E. Caldeweyher
   M. Checinski, S. Dohm, S. Ehlert, S. Ehrlich, I. Gerasimov, J. Koopman
   C. Lavigne, S. Lehtola, F. März, M. Müller, F. Musil, H. Neugebauer
   J. Pisarek, C. Plett, P. Pracht, J. Seibert, P. Shushkov, S. Spicher
   M. Stahn, M. Steiner, T. Strunk, J. Stückrath, T. Rose, and J. Unsleber
   
 * started run on 2022/02/19 at 09:37:41.865     

           -------------------------------------------------
          |                Calculation Setup                |
           -------------------------------------------------

          program call               : /ihome/ghutchison/oda6/xtb/xtb-641/bin/xtb ../../GFN2_output/39_15_86_24_64.mol --sp --alpb water
          hostname                   : smp-n9
          coordinate file            : ../../GFN2_output/39_15_86_24_64.mol
          omp threads                :                     8
          number of atoms            :                   164
          number of electrons        :                   528
          charge                     :                     0
          spin                       :                   0.0
          first test random number   :      0.45994732440241

   ID    Z sym.   atoms
    1    6 C      1-3, 5-13, 15, 17-27, 29-48, 50-53, 57, 58, 60-70, 72, 73,
                  75, 76, 78, 79, 81-87, 89-91, 93-95, 97-99, 101, 103-107,
                  109
    2    8 O      4, 28, 88, 96
    3    7 N      14, 16, 54, 56, 74, 77, 108, 110
    4   16 S      49, 55, 59, 71, 80, 92
    5   17 Cl     100
    6    9 F      102
    7    1 H      111-164

           -------------------------------------------------
          |                 G F N 2 - x T B                 |
           -------------------------------------------------

        Reference                      10.1021/acs.jctc.8b01176
      * Hamiltonian:
        H0-scaling (s, p, d)           1.850000    2.230000    2.230000
        zeta-weighting                 0.500000
      * Dispersion:
        s8                             2.700000
        a1                             0.520000
        a2                             5.000000
        s9                             5.000000
      * Repulsion:
        kExp                           1.500000    1.000000
        rExp                           1.000000
      * Coulomb:
        alpha                          2.000000
        third order                    shell-resolved
        anisotropic                    true
        a3                             3.000000
        a5                             4.000000
        cn-shift                       1.200000
        cn-exp                         4.000000
        max-rad                        5.000000

      * Solvation model:               ALPB
        Solvent                        water
        Parameter file                 internal GFN2-xTB/ALPB
        Dielectric constant                8.0200E+01
        Reference state                gsolv [1 M gas/solution]
        Free energy shift                  1.0808E-03 Eh       6.7819E-01 kcal/mol
        Temperature                        2.9815E+02 K
        Density                            1.0000E+00 kg/L
        Solvent mass                       1.8000E+01 g/mol
        Interaction kernel             P16
        Born radius scaling (c1)           1.4744E+00
        Born radii integrator          GBOBC
        Born offset                        0.0000E+00 a0       0.0000E+00 AA
        H-bond correction              true
        Ion screening                  false
        Surface tension                    1.0000E-05 Eh       1.5569E+01 dyn/cm
        Grid points                               230 per atom

          ...................................................
          :                      SETUP                      :
          :.................................................:
          :  # basis functions                 536          :
          :  # atomic orbitals                 529          :
          :  # shells                          281          :
          :  # electrons                       528          :
          :  max. iterations                   250          :
          :  Hamiltonian                  GFN2-xTB          :
          :  restarted?                      false          :
          :  GBSA solvation                   true          :
          :  PC potential                    false          :
          :  electronic temp.          300.0000000     K    :
          :  accuracy                    1.0000000          :
          :  -> integral cutoff          0.2500000E+02      :
          :  -> integral neglect         0.1000000E-07      :
          :  -> SCF convergence          0.1000000E-05 Eh   :
          :  -> wf. convergence          0.1000000E-03 e    :
          :  Broyden damping             0.4000000          :
          ...................................................

 iter      E             dE          RMSdq      gap      omega  full diag
   1   -292.8766611 -0.292877E+03  0.440E+00    0.91       0.0  T
   2   -293.1313315 -0.254670E+00  0.260E+00    0.74       1.0  T
   3   -293.0563929  0.749386E-01  0.137E+00    0.79       1.0  T
   4   -293.2089760 -0.152583E+00  0.445E-01    0.82       1.0  T
   5   -293.2282073 -0.192313E-01  0.150E-01    0.75       1.0  T
   6   -293.2295461 -0.133883E-02  0.765E-02    0.78       1.0  T
   7   -293.2298030 -0.256872E-03  0.363E-02    0.78       1.0  T
   8   -293.2298503 -0.473701E-04  0.213E-02    0.78       1.0  T
   9   -293.2298663 -0.159798E-04  0.150E-02    0.78       1.0  T
  10   -293.2298762 -0.993159E-05  0.101E-02    0.78       1.0  T
  11   -293.2298824 -0.613614E-05  0.667E-03    0.78       1.2  T
  12   -293.2298850 -0.267346E-05  0.398E-03    0.78       2.0  T
  13   -293.2298861 -0.109794E-05  0.237E-03    0.78       3.3  T
  14   -293.2298864 -0.248912E-06  0.149E-03    0.78       5.2  T
  15   -293.2298865 -0.125645E-06  0.737E-04    0.78      10.6  T
  16   -293.2298866 -0.355462E-07  0.335E-04    0.78      23.3  T

   *** convergence criteria satisfied after 16 iterations ***

         #    Occupation            Energy/Eh            Energy/eV
      -------------------------------------------------------------
         1        2.0000           -1.0807037             -29.4074
       ...           ...                  ...                  ...
       258        2.0000           -0.3948255             -10.7437
       259        2.0000           -0.3896374             -10.6026
       260        2.0000           -0.3884707             -10.5708
       261        2.0000           -0.3807923             -10.3619
       262        2.0000           -0.3764714             -10.2443
       263        2.0000           -0.3730932             -10.1524
       264        2.0000           -0.3621953              -9.8558 (HOMO)
       265        0.0000           -0.3335943              -9.0776 (LUMO)
       266        0.0000           -0.3327797              -9.0554
       267                         -0.3218449              -8.7578
       268                         -0.3209428              -8.7333
       269                         -0.3116727              -8.4810
       ...                                ...                  ...
       529                          1.1521997              31.3529
      -------------------------------------------------------------
                  HL-Gap            0.0286010 Eh            0.7783 eV
             Fermi-level           -0.3480628 Eh           -9.4713 eV

 SCC (total)                   0 d,  0 h,  0 min,  0.790 sec
 SCC setup                      ...        0 min,  0.005 sec (  0.655%)
 Dispersion                     ...        0 min,  0.008 sec (  0.968%)
 classical contributions        ...        0 min,  0.000 sec (  0.033%)
 integral evaluation            ...        0 min,  0.026 sec (  3.345%)
 iterations                     ...        0 min,  0.667 sec ( 84.332%)
 molecular gradient             ...        0 min,  0.081 sec ( 10.259%)
 printout                       ...        0 min,  0.003 sec (  0.399%)

         :::::::::::::::::::::::::::::::::::::::::::::::::::::
         ::                     SUMMARY                     ::
         :::::::::::::::::::::::::::::::::::::::::::::::::::::
         :: total energy            -288.661975493714 Eh    ::
         :: total w/o Gsasa/hb      -288.637675329843 Eh    ::
         :: gradient norm              0.044758741277 Eh/a0 ::
         :: HOMO-LUMO gap              0.778273853799 eV    ::
         ::.................................................::
         :: SCC energy              -293.229886556259 Eh    ::
         :: -> isotropic ES            0.221834321554 Eh    ::
         :: -> anisotropic ES          0.002597921047 Eh    ::
         :: -> anisotropic XC          0.164482331369 Eh    ::
         :: -> dispersion             -0.261358997025 Eh    ::
         :: -> Gsolv                  -0.074837242767 Eh    ::
         ::    -> Gelec               -0.050537078896 Eh    ::
         ::    -> Gsasa               -0.018006323335 Eh    ::
         ::    -> Ghb                 -0.007374600234 Eh    ::
         ::    -> Gshift               0.001080759698 Eh    ::
         :: repulsion energy           4.569982045267 Eh    ::
         :: add. restraining           0.000000000000 Eh    ::
         :: total charge               0.000000000000 e     ::
         :::::::::::::::::::::::::::::::::::::::::::::::::::::

           -------------------------------------------------
          |                Property Printout                |
           -------------------------------------------------

    * Orbital Energies and Occupations

         #    Occupation            Energy/Eh            Energy/eV
      -------------------------------------------------------------
         1        2.0000           -1.0807037             -29.4074
       ...           ...                  ...                  ...
       252        2.0000           -0.4057525             -11.0411
       253        2.0000           -0.4031765             -10.9710
       254        2.0000           -0.4008089             -10.9066
       255        2.0000           -0.4003103             -10.8930
       256        2.0000           -0.3979531             -10.8289
       257        2.0000           -0.3968666             -10.7993
       258        2.0000           -0.3948255             -10.7437
       259        2.0000           -0.3896374             -10.6026
       260        2.0000           -0.3884707             -10.5708
       261        2.0000           -0.3807923             -10.3619
       262        2.0000           -0.3764714             -10.2443
       263        2.0000           -0.3730932             -10.1524
       264        2.0000           -0.3621953              -9.8558 (HOMO)
       265        0.0000           -0.3335943              -9.0776 (LUMO)
       266        0.0000           -0.3327797              -9.0554
       267                         -0.3218449              -8.7578
       268                         -0.3209428              -8.7333
       269                         -0.3116727              -8.4810
       270                         -0.3015364              -8.2052
       271                         -0.2869721              -7.8089
       272                         -0.2810637              -7.6481
       273                         -0.2646166              -7.2006
       274                         -0.2572341              -6.9997
       275                         -0.2530909              -6.8870
       ...                                ...                  ...
       529                          1.1521997              31.3529
      -------------------------------------------------------------
                  HL-Gap            0.0286010 Eh            0.7783 eV
             Fermi-level           -0.3480628 Eh           -9.4713 eV

     #   Z          covCN         q      C6AA      α(0)
     1   6 C        2.903    -0.004    28.123     8.695
     2   6 C        3.000    -0.029    28.720     8.791
     3   6 C        2.864     0.236    23.070     7.873
     4   8 O        0.856    -0.416    22.003     6.289
     5   6 C        3.057    -0.020    28.454     8.748
     6   6 C        2.904    -0.023    28.584     8.766
     7   6 C        3.259     0.018    26.464     8.314
     8   6 C        3.254     0.018    26.540     8.334
     9   6 C        2.904    -0.032    28.802     8.800
    10   6 C        3.042     0.007    27.818     8.651
    11   6 C        3.015     0.040    27.084     8.537
    12   6 C        2.947     0.007    27.875     8.659
    13   6 C        1.943     0.136    27.758     8.508
    14   7 N        0.911    -0.276    27.135     7.534
    15   6 C        1.942     0.133    27.843     8.521
    16   7 N        0.911    -0.277    27.165     7.538
    17   6 C        4.162    -0.025    20.933     6.498
    18   6 C        4.013    -0.016    20.784     6.476
    19   6 C        2.995    -0.043    29.069     8.844
    20   6 C        2.995    -0.044    29.080     8.846
    21   6 C        4.013    -0.016    20.784     6.476
    22   6 C        3.915    -0.063    21.644     6.612
    23   6 C        4.160    -0.025    20.930     6.498
    24   6 C        2.975     0.025    27.434     8.592
    25   6 C        2.916     0.000    28.024     8.681
    26   6 C        3.046    -0.024    28.562     8.765
    27   6 C        2.864     0.241    22.988     7.859
    28   8 O        0.856    -0.413    21.936     6.279
    29   6 C        3.046    -0.024    28.569     8.766
    30   6 C        3.037     0.009    27.791     8.647
    31   6 C        3.040     0.019    27.558     8.610
    32   6 C        2.911    -0.030    28.751     8.792
    33   6 C        2.927    -0.024    28.595     8.770
    34   6 C        2.912    -0.028    28.698     8.784
    35   6 C        2.924    -0.028    28.696     8.785
    36   6 C        3.018     0.019    27.572     8.613
    37   6 C        2.922    -0.021    28.521     8.758
    38   6 C        3.003     0.010    27.777     8.645
    39   6 C        3.111    -0.010    28.109     8.686
    40   6 C        2.974     0.010    27.785     8.646
    41   6 C        2.924    -0.040    28.996     8.831
    42   6 C        2.918    -0.035    28.871     8.811
    43   6 C        2.925    -0.042    29.037     8.837
    44   6 C        2.970     0.016    27.650     8.625
    45   6 C        3.807    -0.064    21.728     6.636
    46   6 C        3.754    -0.106    22.574     6.775
    47   6 C        2.931    -0.043    29.066     8.842
    48   6 C        3.198     0.010    27.249     8.508
    49  16 S        2.186    -0.070   143.968    20.195
    50   6 C        3.100    -0.002    27.951     8.664
    51   6 C        3.085    -0.043    28.971     8.823
    52   6 C        3.339     0.068    24.079     7.763
    53   6 C        3.339     0.068    24.076     7.762
    54   7 N        1.854    -0.304    28.737     7.945
    55  16 S        2.684     0.288   129.842    19.178
    56   7 N        1.854    -0.304    28.742     7.946
    57   6 C        3.083    -0.042    28.946     8.820
    58   6 C        3.097     0.004    27.823     8.644
    59  16 S        2.180    -0.056   143.379    20.153
    60   6 C        3.197     0.013    27.197     8.501
    61   6 C        3.107     0.000    27.885     8.652
    62   6 C        2.976     0.010    27.787     8.647
    63   6 C        2.926    -0.036    28.896     8.815
    64   6 C        2.918    -0.030    28.745     8.792
    65   6 C        2.926    -0.037    28.931     8.821
    66   6 C        2.971     0.018    27.611     8.619
    67   6 C        3.807    -0.064    21.714     6.634
    68   6 C        3.754    -0.106    22.590     6.777
    69   6 C        2.932    -0.040    28.999     8.832
    70   6 C        3.028     0.009    27.778     8.645
    71  16 S        2.269    -0.021   141.914    20.050
    72   6 C        3.119     0.009    27.652     8.613
    73   6 C        3.257     0.030    26.230     8.280
    74   7 N        2.794    -0.025    21.721     6.922
    75   6 C        3.076     0.034    27.164     8.545
    76   6 C        3.078     0.028    27.283     8.564
    77   7 N        2.799    -0.020    21.627     6.907
    78   6 C        3.256     0.028    26.276     8.289
    79   6 C        3.124     0.003    27.775     8.630
    80  16 S        2.287    -0.043   142.818    20.114
    81   6 C        3.742    -0.007    20.785     6.504
    82   6 C        3.752    -0.133    23.119     6.857
    83   6 C        3.746    -0.018    20.960     6.530
    84   6 C        3.752    -0.121    22.884     6.822
    85   6 C        3.033     0.032    27.246     8.562
    86   6 C        3.061    -0.086    30.086     8.995
    87   6 C        3.017     0.156    24.596     8.135
    88   8 O        1.705    -0.257    18.261     5.770
    89   6 C        3.694     0.066    19.647     6.342
    90   6 C        3.750    -0.132    23.099     6.854
    91   6 C        2.977     0.002    27.971     8.675
    92  16 S        2.357    -0.000   141.071    19.990
    93   6 C        2.918    -0.011    28.286     8.721
    94   6 C        3.011    -0.046    29.128     8.853
    95   6 C        2.874     0.231    23.176     7.892
    96   8 O        0.953    -0.401    21.659     6.242
    97   6 C        3.047    -0.016    28.357     8.734
    98   6 C        2.947    -0.030    28.738     8.792
    99   6 C        2.885     0.089    26.008     8.361
   100  17 Cl       0.961    -0.140   103.528    15.566
   101   6 C        2.819     0.175    24.241     8.067
   102   9 F        0.788    -0.221    11.456     3.998
   103   6 C        2.913    -0.045    29.126     8.850
   104   6 C        3.039     0.011    27.740     8.639
   105   6 C        3.020     0.037    27.157     8.548
   106   6 C        2.947     0.002    27.988     8.677
   107   6 C        1.947     0.132    27.845     8.522
   108   7 N        0.911    -0.286    27.387     7.569
   109   6 C        1.945     0.132    27.856     8.523
   110   7 N        0.911    -0.280    27.223     7.546
   111   1 H        0.925     0.075     2.028     2.227
   112   1 H        0.926     0.070     2.089     2.260
   113   1 H        0.926     0.059     2.211     2.325
   114   1 H        0.925     0.057     2.238     2.339
   115   1 H        0.925     0.044     2.401     2.423
   116   1 H        0.926     0.044     2.392     2.419
   117   1 H        0.926     0.045     2.378     2.411
   118   1 H        0.925     0.046     2.374     2.410
   119   1 H        0.925     0.046     2.368     2.406
   120   1 H        0.925     0.035     2.513     2.479
   121   1 H        0.925     0.058     2.218     2.329
   122   1 H        0.926     0.056     2.252     2.347
   123   1 H        0.926     0.075     2.034     2.230
   124   1 H        0.926     0.072     2.064     2.247
   125   1 H        0.926     0.068     2.103     2.268
   126   1 H        0.926     0.060     2.202     2.321
   127   1 H        0.926     0.063     2.169     2.303
   128   1 H        0.926     0.032     2.564     2.504
   129   1 H        0.926     0.040     2.448     2.447
   130   1 H        0.926     0.040     2.448     2.447
   131   1 H        0.924     0.045     2.389     2.417
   132   1 H        0.924     0.043     2.404     2.425
   133   1 H        0.925     0.038     2.478     2.461
   134   1 H        0.925     0.044     2.399     2.422
   135   1 H        0.925     0.037     2.484     2.465
   136   1 H        0.926     0.040     2.447     2.446
   137   1 H        0.926     0.037     2.490     2.468
   138   1 H        0.926     0.040     2.450     2.448
   139   1 H        0.926     0.041     2.441     2.443
   140   1 H        0.924     0.043     2.407     2.426
   141   1 H        0.924     0.044     2.397     2.421
   142   1 H        0.925     0.046     2.377     2.411
   143   1 H        0.925     0.039     2.464     2.455
   144   1 H        0.925     0.039     2.456     2.451
   145   1 H        0.926     0.039     2.456     2.451
   146   1 H        0.924     0.070     2.088     2.260
   147   1 H        0.924     0.077     2.010     2.217
   148   1 H        0.925     0.068     2.104     2.269
   149   1 H        0.925     0.071     2.075     2.253
   150   1 H        0.925     0.060     2.199     2.319
   151   1 H        0.925     0.093     1.854     2.129
   152   1 H        0.924     0.085     1.926     2.170
   153   1 H        0.925     0.072     2.067     2.248
   154   1 H        0.925     0.049     2.329     2.386
   155   1 H        0.925     0.047     2.361     2.403
   156   1 H        0.926     0.085     1.932     2.174
   157   1 H        0.924     0.061     2.191     2.315
   158   1 H        0.924     0.079     1.986     2.204
   159   1 H        0.925     0.059     2.213     2.326
   160   1 H        0.925     0.072     2.061     2.245
   161   1 H        0.925     0.058     2.218     2.329
   162   1 H        0.925     0.080     1.974     2.197
   163   1 H        0.926     0.109     1.706     2.043
   164   1 H        0.926     0.094     1.839     2.120

 Mol. C6AA /au·bohr⁶  :     472836.326847
 Mol. C8AA /au·bohr⁸  :   13124018.112620
 Mol. α(0) /au        :       1094.386991


Wiberg/Mayer (AO) data.
largest (>0.10) Wiberg bond orders for each atom

 ---------------------------------------------------------------------------
     #   Z sym  total        # sym  WBO       # sym  WBO       # sym  WBO
 ---------------------------------------------------------------------------
     1   6 C    3.938 --     2 C    1.636    24 C    1.129   111 H    0.943
     2   6 C    3.971 --     1 C    1.636    11 C    1.114     3 C    1.009
     3   6 C    3.914 --     4 O    1.746     5 C    1.038     2 C    1.009
     4   8 O    2.032 --     3 C    1.746
     5   6 C    3.973 --     6 C    1.373    10 C    1.299     3 C    1.038
     6   6 C    3.980 --     7 C    1.445     5 C    1.373   112 H    0.962
     7   6 C    3.951 --     6 C    1.445     8 C    1.313    23 C    0.995
     8   6 C    3.964 --     9 C    1.455     7 C    1.313    17 C    0.996
     9   6 C    3.977 --     8 C    1.455    10 C    1.355   113 H    0.958
    10   6 C    3.981 --     9 C    1.355     5 C    1.299    11 C    1.103
    11   6 C    3.972 --    12 C    1.486     2 C    1.114    10 C    1.103
    12   6 C    3.959 --    11 C    1.486    13 C    1.098    15 C    1.098
    13   6 C    3.941 --    14 N    2.754    12 C    1.098
    14   7 N    2.963 --    13 C    2.754
    15   6 C    3.942 --    16 N    2.750    12 C    1.098
    16   7 N    2.959 --    15 C    2.750
    17   6 C    3.983 --     8 C    0.996    23 C    0.974   114 H    0.959
                            18 C    0.949
    18   6 C    3.988 --    19 C    1.004    22 C    0.989   115 H    0.970
                            17 C    0.949
    19   6 C    3.980 --    20 C    1.923    18 C    1.004   116 H    0.970
    20   6 C    3.980 --    19 C    1.923    21 C    1.004   117 H    0.970
    21   6 C    3.986 --    20 C    1.004    22 C    0.989   118 H    0.970
                            23 C    0.948
    22   6 C    3.993 --    18 C    0.989    21 C    0.989   119 H    0.978
                           120 H    0.974
    23   6 C    3.981 --     7 C    0.995    17 C    0.974   121 H    0.958
                            21 C    0.948
    24   6 C    3.964 --    33 C    1.367    25 C    1.315     1 C    1.129
    25   6 C    3.972 --    26 C    1.466    24 C    1.315   122 H    0.965
    26   6 C    3.981 --    25 C    1.466    31 C    1.276    27 C    1.011
    27   6 C    3.910 --    28 O    1.777    26 C    1.011    29 C    1.010
    28   8 O    2.042 --    27 C    1.777
    29   6 C    3.978 --    37 C    1.463    30 C    1.279    27 C    1.010
    30   6 C    3.966 --    34 C    1.409    29 C    1.279    31 C    1.073
    31   6 C    3.969 --    32 C    1.409    26 C    1.276    30 C    1.073
    32   6 C    3.968 --    33 C    1.434    31 C    1.409   123 H    0.963
    33   6 C    3.966 --    32 C    1.434    24 C    1.367   124 H    0.966
    34   6 C    3.969 --    35 C    1.435    30 C    1.409   125 H    0.964
    35   6 C    3.973 --    34 C    1.435    36 C    1.367   126 H    0.964
    36   6 C    3.960 --    35 C    1.367    37 C    1.327    38 C    1.116
    37   6 C    3.975 --    29 C    1.463    36 C    1.327   127 H    0.958
    38   6 C    3.916 --    39 C    1.469    36 C    1.116    80 S    1.097
    39   6 C    3.973 --    38 C    1.469    48 C    1.245    40 C    1.043
    40   6 C    3.987 --    47 C    1.396    41 C    1.375    39 C    1.043
                            43 C    0.102
    41   6 C    3.989 --    42 C    1.454    40 C    1.375   128 H    0.970
                            44 C    0.105
    42   6 C    3.990 --    41 C    1.454    43 C    1.433   129 H    0.970
                            47 C    0.105
    43   6 C    3.984 --    42 C    1.433    44 C    1.410   130 H    0.969
                            40 C    0.102
    44   6 C    3.987 --    47 C    1.414    43 C    1.410    45 C    1.013
                            41 C    0.105
    45   6 C    3.996 --    44 C    1.013    46 C    1.000   132 H    0.975
                           131 H    0.971
    46   6 C    3.995 --    45 C    1.000   133 H    0.988   135 H    0.988
                           134 H    0.985
    47   6 C    3.986 --    44 C    1.414    40 C    1.396   136 H    0.964
                            42 C    0.105
    48   6 C    3.922 --    79 C    1.364    39 C    1.245    49 S    1.090
    49  16 S    2.506 --    50 C    1.104    48 C    1.090
    50   6 C    3.927 --    78 C    1.321    51 C    1.263    49 S    1.104
    51   6 C    3.956 --    76 C    1.270    50 C    1.263    52 C    1.179
    52   6 C    3.970 --    56 N    1.421    51 C    1.179    53 C    1.158
                            55 S    0.106
    53   6 C    3.969 --    54 N    1.423    57 C    1.177    52 C    1.158
                            55 S    0.107
    54   7 N    3.057 --    53 C    1.423    55 S    1.377    56 N    0.146
    55  16 S    3.091 --    54 N    1.377    56 N    1.377    53 C    0.107
                            52 C    0.106
    56   7 N    3.057 --    52 C    1.421    55 S    1.377    54 N    0.146
    57   6 C    3.957 --    75 C    1.274    58 C    1.264    53 C    1.177
    58   6 C    3.918 --    73 C    1.311    57 C    1.264    59 S    1.111
    59  16 S    2.509 --    58 C    1.111    60 C    1.089
    60   6 C    3.923 --    72 C    1.331    61 C    1.287    59 S    1.089
    61   6 C    3.955 --    70 C    1.408    60 C    1.287    62 C    1.030
    62   6 C    3.986 --    69 C    1.396    63 C    1.378    61 C    1.030
                            65 C    0.103
    63   6 C    3.988 --    64 C    1.446    62 C    1.378   137 H    0.969
                            66 C    0.105
    64   6 C    3.990 --    63 C    1.446    65 C    1.438   138 H    0.969
                            69 C    0.105
    65   6 C    3.984 --    64 C    1.438    66 C    1.409   139 H    0.969
                            62 C    0.103
    66   6 C    3.986 --    69 C    1.414    65 C    1.409    67 C    1.013
                            63 C    0.105
    67   6 C    3.995 --    66 C    1.013    68 C    1.000   140 H    0.974
                           141 H    0.973
    68   6 C    3.995 --    67 C    1.000   144 H    0.988   143 H    0.988
                           142 H    0.985
    69   6 C    3.984 --    66 C    1.414    62 C    1.396   145 H    0.967
                            64 C    0.105
    70   6 C    3.923 --    61 C    1.408    85 C    1.222    71 S    1.068
    71  16 S    2.542 --    72 C    1.126    70 C    1.068
    72   6 C    3.926 --    60 C    1.331    73 C    1.248    71 S    1.126
    73   6 C    3.942 --    58 C    1.311    72 C    1.248    74 N    1.157
    74   7 N    3.549 --    75 C    1.175    73 C    1.157    83 C    0.968
    75   6 C    3.935 --    57 C    1.274    76 C    1.219    74 N    1.175
    76   6 C    3.941 --    51 C    1.270    75 C    1.219    77 N    1.180
    77   7 N    3.567 --    76 C    1.180    78 C    1.166    81 C    0.971
    78   6 C    3.942 --    50 C    1.321    79 C    1.229    77 N    1.166
    79   6 C    3.935 --    48 C    1.364    78 C    1.229    80 S    1.122
    80  16 S    2.571 --    79 C    1.122    38 C    1.097
    81   6 C    3.951 --    82 C    1.007    77 N    0.971   146 H    0.963
                           147 H    0.960
    82   6 C    3.982 --    81 C    1.007   149 H    0.980   148 H    0.978
                           150 H    0.978
    83   6 C    3.945 --    84 C    1.006    74 N    0.968   152 H    0.961
                           151 H    0.951
    84   6 C    3.986 --    83 C    1.006   155 H    0.986   154 H    0.984
                           153 H    0.980
    85   6 C    3.936 --    86 C    1.375    70 C    1.222    92 S    1.166
    86   6 C    3.950 --    85 C    1.375    87 C    1.370   156 H    0.951
    87   6 C    3.915 --    86 C    1.370    91 C    1.219    88 O    1.131
    88   8 O    2.289 --    87 C    1.131    89 C    0.936
    89   6 C    3.913 --    90 C    1.009   158 H    0.968   157 H    0.966
                            88 O    0.936
    90   6 C    3.984 --    89 C    1.009   159 H    0.986   161 H    0.983
                           160 H    0.980
    91   6 C    3.926 --    93 C    1.393    87 C    1.219    92 S    1.090
    92  16 S    2.727 --    85 C    1.166    91 C    1.090    96 O    0.118
    93   6 C    3.945 --    94 C    1.404    91 C    1.393   162 H    0.935
    94   6 C    3.954 --    93 C    1.404   105 C    1.177    95 C    1.095
    95   6 C    3.914 --    96 O    1.677    94 C    1.095    97 C    1.011
    96   8 O    2.074 --    95 C    1.677    92 S    0.118
    97   6 C    3.975 --    98 C    1.429   104 C    1.298    95 C    1.011
    98   6 C    3.968 --    97 C    1.429    99 C    1.379   163 H    0.956
    99   6 C    3.907 --    98 C    1.379   101 C    1.352   100 Cl   0.998
   100  17 Cl   1.140 --    99 C    0.998
   101   6 C    3.874 --   103 C    1.386    99 C    1.352   102 F    0.964
   102   9 F    1.095 --   101 C    0.964
   103   6 C    3.967 --   104 C    1.405   101 C    1.386   164 H    0.953
   104   6 C    3.982 --   103 C    1.405    97 C    1.298   105 C    1.076
   105   6 C    3.964 --   106 C    1.448    94 C    1.177   104 C    1.076
   106   6 C    3.941 --   105 C    1.448   109 C    1.105   107 C    1.105
   107   6 C    3.938 --   108 N    2.743   106 C    1.105
   108   7 N    2.949 --   107 C    2.743
   109   6 C    3.941 --   110 N    2.737   106 C    1.105
   110   7 N    2.951 --   109 C    2.737
   111   1 H    0.992 --     1 C    0.943
   112   1 H    0.995 --     6 C    0.962
   113   1 H    0.996 --     9 C    0.958
   114   1 H    0.995 --    17 C    0.959
   115   1 H    0.998 --    18 C    0.970
   116   1 H    0.998 --    19 C    0.970
   117   1 H    0.998 --    20 C    0.970
   118   1 H    0.998 --    21 C    0.970
   119   1 H    0.998 --    22 C    0.978
   120   1 H    0.999 --    22 C    0.974
   121   1 H    0.994 --    23 C    0.958
   122   1 H    0.996 --    25 C    0.965
   123   1 H    0.993 --    32 C    0.963
   124   1 H    0.994 --    33 C    0.966
   125   1 H    0.994 --    34 C    0.964
   126   1 H    0.996 --    35 C    0.964
   127   1 H    0.996 --    37 C    0.958
   128   1 H    0.998 --    41 C    0.970
   129   1 H    0.997 --    42 C    0.970
   130   1 H    0.998 --    43 C    0.969
   131   1 H    0.998 --    45 C    0.971
   132   1 H    0.998 --    45 C    0.975
   133   1 H    0.999 --    46 C    0.988
   134   1 H    0.997 --    46 C    0.985
   135   1 H    0.999 --    46 C    0.988
   136   1 H    0.998 --    47 C    0.964
   137   1 H    0.998 --    63 C    0.969
   138   1 H    0.997 --    64 C    0.969
   139   1 H    0.998 --    65 C    0.969
   140   1 H    0.998 --    67 C    0.974
   141   1 H    0.998 --    67 C    0.973
   142   1 H    0.997 --    68 C    0.985
   143   1 H    0.998 --    68 C    0.988
   144   1 H    0.998 --    68 C    0.988
   145   1 H    0.998 --    69 C    0.967
   146   1 H    0.992 --    81 C    0.963
   147   1 H    0.993 --    81 C    0.960
   148   1 H    0.995 --    82 C    0.978
   149   1 H    0.994 --    82 C    0.980
   150   1 H    0.996 --    82 C    0.978
   151   1 H    0.990 --    83 C    0.951
   152   1 H    0.992 --    83 C    0.961
   153   1 H    0.994 --    84 C    0.980
   154   1 H    0.997 --    84 C    0.984
   155   1 H    0.998 --    84 C    0.986
   156   1 H    0.992 --    86 C    0.951
   157   1 H    0.995 --    89 C    0.966
   158   1 H    0.993 --    89 C    0.968
   159   1 H    0.997 --    90 C    0.986
   160   1 H    0.994 --    90 C    0.980
   161   1 H    0.997 --    90 C    0.983
   162   1 H    0.992 --    93 C    0.935
   163   1 H    0.988 --    98 C    0.956
   164   1 H    0.991 --   103 C    0.953
 ---------------------------------------------------------------------------

Topologies differ in bond orders
Writing corrected topology to xtbtopo.mol

molecular dipole:
                 x           y           z       tot (Debye)
 q only:        1.817       3.323      -4.809
   full:        0.987       2.531      -4.456      13.266
molecular quadrupole (traceless):
                xx          xy          yy          xz          yz          zz
 q only:      198.007     -22.453    -210.492       7.994     258.759      12.484
  q+dip:      183.298      -3.659    -193.392      -8.395     248.148      10.094
   full:      181.396     -13.058    -193.434     -16.911     259.011      12.038


           -------------------------------------------------
          | TOTAL ENERGY             -288.661975493714 Eh   |
          | GRADIENT NORM               0.044758741277 Eh/α |
          | HOMO-LUMO GAP               0.778273853799 eV   |
           -------------------------------------------------

------------------------------------------------------------------------
 * finished run on 2022/02/19 at 09:37:42.738     
------------------------------------------------------------------------
 total:
 * wall-time:     0 d,  0 h,  0 min,  0.873 sec
 *  cpu-time:     0 d,  0 h,  0 min,  6.020 sec
 * ratio c/w:     6.897 speedup
 SCF:
 * wall-time:     0 d,  0 h,  0 min,  0.793 sec
 *  cpu-time:     0 d,  0 h,  0 min,  5.545 sec
 * ratio c/w:     6.994 speedup

