      -----------------------------------------------------------      
     |                   =====================                   |     
     |                           x T B                           |     
     |                   =====================                   |     
     |                         S. Grimme                         |     
     |          Mulliken Center for Theoretical Chemistry        |     
     |                    University of Bonn                     |     
      -----------------------------------------------------------      

   * xtb version 6.4.1 (unknown) compiled by 'oda6@login1.crc.pitt.edu' on 2021-06-25

   xtb is free software: you can redistribute it and/or modify it under
   the terms of the GNU Lesser General Public License as published by
   the Free Software Foundation, either version 3 of the License, or
   (at your option) any later version.
   
   xtb is distributed in the hope that it will be useful,
   but WITHOUT ANY WARRANTY; without even the implied warranty of
   MERCHANTABILITY or FITNESS FOR A PARTICULAR PURPOSE.  See the
   GNU Lesser General Public License for more details.
   
   Cite this work as:
   * C. Bannwarth, E. Caldeweyher, S. Ehlert, A. Hansen, P. Pracht,
     J. Seibert, S. Spicher, S. Grimme, WIREs Comput. Mol. Sci., 2020, 11,
     e01493. DOI: 10.1002/wcms.1493
   
   for GFN2-xTB:
   * C. Bannwarth, S. Ehlert and S. Grimme., J. Chem. Theory Comput., 2019,
     15, 1652-1671. DOI: 10.1021/acs.jctc.8b01176
   for GFN1-xTB:
   * S. Grimme, C. Bannwarth, P. Shushkov, J. Chem. Theory Comput., 2017,
     13, 1989-2009. DOI: 10.1021/acs.jctc.7b00118
   for GFN0-xTB:
   * P. Pracht, E. Caldeweyher, S. Ehlert, S. Grimme, ChemRxiv, 2019, preprint.
     DOI: 10.26434/chemrxiv.8326202.v1
   for GFN-FF:
   * S. Spicher and S. Grimme, Angew. Chem. Int. Ed., 2020, 59, 15665-15673.
     DOI: 10.1002/anie.202004239
   
   for DFT-D4:
   * E. Caldeweyher, C. Bannwarth and S. Grimme, J. Chem. Phys., 2017,
     147, 034112. DOI: 10.1063/1.4993215
   * E. Caldeweyher, S. Ehlert, A. Hansen, H. Neugebauer, S. Spicher,
     C. Bannwarth and S. Grimme, J. Chem. Phys., 2019, 150, 154122.
     DOI: 10.1063/1.5090222
   * E. Caldeweyher, J.-M. Mewes, S. Ehlert and S. Grimme, Phys. Chem. Chem. Phys.
     2020, 22, 8499-8512. DOI: 10.1039/D0CP00502A
   
   for sTDA-xTB:
   * S. Grimme and C. Bannwarth, J. Chem. Phys., 2016, 145, 054103.
     DOI: 10.1063/1.4959605
   
   in the mass-spec context:
   * V. Asgeirsson, C. Bauer and S. Grimme, Chem. Sci., 2017, 8, 4879.
     DOI: 10.1039/c7sc00601b
   * J. Koopman and S. Grimme, ACS Omega 2019, 4, 12, 15120-15133.
     DOI: 10.1021/acsomega.9b02011
   
   for metadynamics refer to:
   * S. Grimme, J. Chem. Theory Comput., 2019, 155, 2847-2862
     DOI: 10.1021/acs.jctc.9b00143
   
   for SPH calculations refer to:
   * S. Spicher and S. Grimme, J. Chem. Theory Comput., 2021, 17, 1701-1714
     DOI: 10.1021/acs.jctc.0c01306
   
   with help from (in alphabetical order)
   P. Atkinson, C. Bannwarth, F. Bohle, G. Brandenburg, E. Caldeweyher
   M. Checinski, S. Dohm, S. Ehlert, S. Ehrlich, I. Gerasimov, J. Koopman
   C. Lavigne, S. Lehtola, F. März, M. Müller, F. Musil, H. Neugebauer
   J. Pisarek, C. Plett, P. Pracht, J. Seibert, P. Shushkov, S. Spicher
   M. Stahn, M. Steiner, T. Strunk, J. Stückrath, T. Rose, and J. Unsleber
   
 * started run on 2022/02/14 at 15:18:42.063     

           -------------------------------------------------
          |                Calculation Setup                |
           -------------------------------------------------

          program call               : /ihome/ghutchison/oda6/xtb/xtb-641/bin/xtb ../../GFN2_output/39_123_86_15_39.mol --sp --alpb water
          hostname                   : smp-n25
          coordinate file            : ../../GFN2_output/39_123_86_15_39.mol
          omp threads                :                     8
          number of atoms            :                   183
          number of electrons        :                   572
          charge                     :                     0
          spin                       :                   0.0
          first test random number   :      0.01752512971388

   ID    Z sym.   atoms
    1    6 C      1-3, 5-13, 15, 17-29, 32-34, 36-47, 49-52, 56, 57, 59-69,
                  71, 72, 74, 75, 77, 78, 80-87, 89-100, 102-110, 112, 114-120
    2    8 O      4, 30, 35, 88, 101
    3    7 N      14, 16, 31, 53, 55, 73, 76, 111, 113
    4   16 S      48, 54, 58, 70, 79
    5    1 H      121-183

           -------------------------------------------------
          |                 G F N 2 - x T B                 |
           -------------------------------------------------

        Reference                      10.1021/acs.jctc.8b01176
      * Hamiltonian:
        H0-scaling (s, p, d)           1.850000    2.230000    2.230000
        zeta-weighting                 0.500000
      * Dispersion:
        s8                             2.700000
        a1                             0.520000
        a2                             5.000000
        s9                             5.000000
      * Repulsion:
        kExp                           1.500000    1.000000
        rExp                           1.000000
      * Coulomb:
        alpha                          2.000000
        third order                    shell-resolved
        anisotropic                    true
        a3                             3.000000
        a5                             4.000000
        cn-shift                       1.200000
        cn-exp                         4.000000
        max-rad                        5.000000

      * Solvation model:               ALPB
        Solvent                        water
        Parameter file                 internal GFN2-xTB/ALPB
        Dielectric constant                8.0200E+01
        Reference state                gsolv [1 M gas/solution]
        Free energy shift                  1.0808E-03 Eh       6.7819E-01 kcal/mol
        Temperature                        2.9815E+02 K
        Density                            1.0000E+00 kg/L
        Solvent mass                       1.8000E+01 g/mol
        Interaction kernel             P16
        Born radius scaling (c1)           1.4744E+00
        Born radii integrator          GBOBC
        Born offset                        0.0000E+00 a0       0.0000E+00 AA
        H-bond correction              true
        Ion screening                  false
        Surface tension                    1.0000E-05 Eh       1.5569E+01 dyn/cm
        Grid points                               230 per atom

          ...................................................
          :                      SETUP                      :
          :.................................................:
          :  # basis functions                 573          :
          :  # atomic orbitals                 568          :
          :  # shells                          308          :
          :  # electrons                       572          :
          :  max. iterations                   250          :
          :  Hamiltonian                  GFN2-xTB          :
          :  restarted?                      false          :
          :  GBSA solvation                   true          :
          :  PC potential                    false          :
          :  electronic temp.          300.0000000     K    :
          :  accuracy                    1.0000000          :
          :  -> integral cutoff          0.2500000E+02      :
          :  -> integral neglect         0.1000000E-07      :
          :  -> SCF convergence          0.1000000E-05 Eh   :
          :  -> wf. convergence          0.1000000E-03 e    :
          :  Broyden damping             0.4000000          :
          ...................................................

 iter      E             dE          RMSdq      gap      omega  full diag
   1   -315.9847385 -0.315985E+03  0.442E+00    0.82       0.0  T
   2   -316.2729925 -0.288254E+00  0.261E+00    0.58       1.0  T
   3   -316.1851859  0.878066E-01  0.136E+00    0.61       1.0  T
   4   -316.3413623 -0.156176E+00  0.459E-01    0.65       1.0  T
   5   -316.3664856 -0.251234E-01  0.134E-01    0.53       1.0  T
   6   -316.3675752 -0.108955E-02  0.683E-02    0.56       1.0  T
   7   -316.3678370 -0.261836E-03  0.273E-02    0.56       1.0  T
   8   -316.3678669 -0.299121E-04  0.122E-02    0.56       1.0  T
   9   -316.3678733 -0.632673E-05  0.674E-03    0.56       1.1  T
  10   -316.3678749 -0.168129E-05  0.364E-03    0.56       2.0  T
  11   -316.3678757 -0.777632E-06  0.177E-03    0.56       4.2  T
  12   -316.3678758 -0.106834E-06  0.934E-04    0.56       7.9  T
  13   -316.3678759 -0.408749E-07  0.388E-04    0.56      19.0  T

   *** convergence criteria satisfied after 13 iterations ***

         #    Occupation            Energy/Eh            Energy/eV
      -------------------------------------------------------------
         1        2.0000           -0.7582559             -20.6332
       ...           ...                  ...                  ...
       280        2.0000           -0.3930206             -10.6946
       281        2.0000           -0.3923633             -10.6767
       282        2.0000           -0.3904855             -10.6257
       283        2.0000           -0.3797860             -10.3345
       284        2.0000           -0.3778001             -10.2805
       285        2.0000           -0.3705857             -10.0842
       286        2.0000           -0.3604816              -9.8092 (HOMO)
       287        0.0000           -0.3398852              -9.2487 (LUMO)
       288                         -0.3332081              -9.0671
       289                         -0.3235584              -8.8045
       290                         -0.3211501              -8.7389
       291                         -0.3190489              -8.6818
       ...                                ...                  ...
       568                          1.1504115              31.3043
      -------------------------------------------------------------
                  HL-Gap            0.0205964 Eh            0.5605 eV
             Fermi-level           -0.3501838 Eh           -9.5290 eV

 SCC (total)                   0 d,  0 h,  0 min,  0.557 sec
 SCC setup                      ...        0 min,  0.006 sec (  1.072%)
 Dispersion                     ...        0 min,  0.008 sec (  1.455%)
 classical contributions        ...        0 min,  0.000 sec (  0.052%)
 integral evaluation            ...        0 min,  0.030 sec (  5.394%)
 iterations                     ...        0 min,  0.425 sec ( 76.348%)
 molecular gradient             ...        0 min,  0.085 sec ( 15.192%)
 printout                       ...        0 min,  0.003 sec (  0.472%)

         :::::::::::::::::::::::::::::::::::::::::::::::::::::
         ::                     SUMMARY                     ::
         :::::::::::::::::::::::::::::::::::::::::::::::::::::
         :: total energy            -311.272765967049 Eh    ::
         :: total w/o Gsasa/hb      -311.249359610671 Eh    ::
         :: gradient norm              0.045287565150 Eh/a0 ::
         :: HOMO-LUMO gap              0.560456116691 eV    ::
         ::.................................................::
         :: SCC energy              -316.367875873290 Eh    ::
         :: -> isotropic ES            0.260391354005 Eh    ::
         :: -> anisotropic ES          0.000415090136 Eh    ::
         :: -> anisotropic XC          0.185261009435 Eh    ::
         :: -> dispersion             -0.294548366539 Eh    ::
         :: -> Gsolv                  -0.077197469181 Eh    ::
         ::    -> Gelec               -0.053791112803 Eh    ::
         ::    -> Gsasa               -0.015828815614 Eh    ::
         ::    -> Ghb                 -0.008658300462 Eh    ::
         ::    -> Gshift               0.001080759698 Eh    ::
         :: repulsion energy           5.094313845897 Eh    ::
         :: add. restraining           0.000000000000 Eh    ::
         :: total charge               0.000000000000 e     ::
         :::::::::::::::::::::::::::::::::::::::::::::::::::::

           -------------------------------------------------
          |                Property Printout                |
           -------------------------------------------------

    * Orbital Energies and Occupations

         #    Occupation            Energy/Eh            Energy/eV
      -------------------------------------------------------------
         1        2.0000           -0.7582559             -20.6332
       ...           ...                  ...                  ...
       274        2.0000           -0.4074317             -11.0868
       275        2.0000           -0.4020453             -10.9402
       276        2.0000           -0.4012315             -10.9181
       277        2.0000           -0.3996714             -10.8756
       278        2.0000           -0.3984651             -10.8428
       279        2.0000           -0.3947632             -10.7421
       280        2.0000           -0.3930206             -10.6946
       281        2.0000           -0.3923633             -10.6767
       282        2.0000           -0.3904855             -10.6257
       283        2.0000           -0.3797860             -10.3345
       284        2.0000           -0.3778001             -10.2805
       285        2.0000           -0.3705857             -10.0842
       286        2.0000           -0.3604816              -9.8092 (HOMO)
       287        0.0000           -0.3398852              -9.2487 (LUMO)
       288                         -0.3332081              -9.0671
       289                         -0.3235584              -8.8045
       290                         -0.3211501              -8.7389
       291                         -0.3190489              -8.6818
       292                         -0.3114472              -8.4749
       293                         -0.2993052              -8.1445
       294                         -0.2850625              -7.7569
       295                         -0.2784778              -7.5778
       296                         -0.2602338              -7.0813
       297                         -0.2569450              -6.9918
       ...                                ...                  ...
       568                          1.1504115              31.3043
      -------------------------------------------------------------
                  HL-Gap            0.0205964 Eh            0.5605 eV
             Fermi-level           -0.3501838 Eh           -9.5290 eV

     #   Z          covCN         q      C6AA      α(0)
     1   6 C        2.903    -0.011    28.290     8.721
     2   6 C        3.010    -0.015    28.369     8.737
     3   6 C        2.870     0.238    23.029     7.866
     4   8 O        0.856    -0.409    21.869     6.270
     5   6 C        3.058    -0.016    28.361     8.733
     6   6 C        2.904    -0.023    28.582     8.766
     7   6 C        3.258     0.020    26.451     8.314
     8   6 C        3.256     0.021    26.450     8.317
     9   6 C        2.904    -0.028    28.700     8.784
    10   6 C        3.053     0.016    27.592     8.615
    11   6 C        3.017     0.057    26.707     8.477
    12   6 C        2.947     0.001    28.008     8.680
    13   6 C        1.935     0.128    27.955     8.538
    14   7 N        0.911    -0.275    27.103     7.529
    15   6 C        1.935     0.134    27.824     8.519
    16   7 N        0.911    -0.271    27.004     7.516
    17   6 C        4.161    -0.025    20.928     6.497
    18   6 C        4.013    -0.016    20.787     6.477
    19   6 C        2.995    -0.043    29.065     8.844
    20   6 C        2.995    -0.044    29.075     8.845
    21   6 C        4.013    -0.016    20.787     6.477
    22   6 C        3.915    -0.063    21.653     6.614
    23   6 C        4.159    -0.025    20.931     6.498
    24   6 C        2.965     0.034    27.243     8.561
    25   6 C        2.925    -0.024    28.602     8.771
    26   6 C        2.924    -0.020    28.505     8.755
    27   6 C        3.002     0.037    27.148     8.547
    28   6 C        3.044    -0.037    28.873     8.813
    29   6 C        2.838     0.283    22.211     7.723
    30   8 O        0.858    -0.417    22.014     6.291
    31   7 N        2.792    -0.110    23.409     7.186
    32   6 C        3.740     0.007    20.533     6.465
    33   6 C        3.752    -0.120    22.865     6.819
    34   6 C        2.838     0.281    22.257     7.731
    35   8 O        0.857    -0.439    22.466     6.355
    36   6 C        3.044    -0.033    28.782     8.799
    37   6 C        3.005     0.010    27.790     8.647
    38   6 C        3.113    -0.005    27.996     8.668
    39   6 C        2.973     0.010    27.782     8.646
    40   6 C        2.924    -0.039    28.981     8.828
    41   6 C        2.917    -0.035    28.868     8.811
    42   6 C        2.925    -0.041    29.008     8.832
    43   6 C        2.970     0.018    27.594     8.616
    44   6 C        3.807    -0.065    21.749     6.639
    45   6 C        3.754    -0.108    22.621     6.782
    46   6 C        2.931    -0.042    29.041     8.838
    47   6 C        3.193     0.009    27.301     8.520
    48  16 S        2.184    -0.062   143.638    20.171
    49   6 C        3.097    -0.001    27.932     8.661
    50   6 C        3.087    -0.045    29.010     8.829
    51   6 C        3.339     0.068    24.081     7.764
    52   6 C        3.339     0.068    24.078     7.762
    53   7 N        1.854    -0.307    28.812     7.956
    54  16 S        2.684     0.280   130.135    19.200
    55   7 N        1.854    -0.305    28.750     7.947
    56   6 C        3.087    -0.045    29.003     8.828
    57   6 C        3.098    -0.002    27.962     8.666
    58  16 S        2.189    -0.079   144.327    20.220
    59   6 C        3.190     0.010    27.311     8.524
    60   6 C        3.109    -0.011    28.145     8.692
    61   6 C        2.974     0.010    27.789     8.647
    62   6 C        2.924    -0.040    28.990     8.830
    63   6 C        2.918    -0.035    28.862     8.810
    64   6 C        2.925    -0.042    29.033     8.836
    65   6 C        2.970     0.015    27.682     8.630
    66   6 C        3.807    -0.064    21.729     6.636
    67   6 C        3.754    -0.099    22.448     6.756
    68   6 C        2.932    -0.043    29.080     8.844
    69   6 C        3.007     0.010    27.777     8.645
    70  16 S        2.268    -0.041   142.767    20.110
    71   6 C        3.128    -0.000    27.835     8.638
    72   6 C        3.260     0.026    26.278     8.283
    73   7 N        2.798    -0.023    21.699     6.918
    74   6 C        3.076     0.031    27.234     8.556
    75   6 C        3.076     0.032    27.212     8.553
    76   7 N        2.800    -0.019    21.611     6.904
    77   6 C        3.260     0.026    26.269     8.281
    78   6 C        3.123     0.005    27.718     8.622
    79  16 S        2.268    -0.028   142.206    20.071
    80   6 C        3.744    -0.013    20.879     6.518
    81   6 C        3.752    -0.123    22.910     6.826
    82   6 C        3.743    -0.012    20.867     6.517
    83   6 C        3.752    -0.125    22.950     6.832
    84   6 C        3.014     0.019    27.562     8.612
    85   6 C        2.917    -0.015    28.392     8.738
    86   6 C        3.045    -0.025    28.572     8.767
    87   6 C        2.864     0.240    22.994     7.860
    88   8 O        0.856    -0.416    21.998     6.288
    89   6 C        3.044    -0.024    28.555     8.764
    90   6 C        3.040     0.018    27.570     8.612
    91   6 C        3.039     0.008    27.795     8.647
    92   6 C        2.911    -0.028    28.710     8.786
    93   6 C        2.927    -0.031    28.762     8.795
    94   6 C        2.911    -0.030    28.758     8.793
    95   6 C        2.928    -0.024    28.613     8.772
    96   6 C        2.976     0.025    27.434     8.592
    97   6 C        2.916     0.000    28.022     8.681
    98   6 C        2.904    -0.004    28.117     8.694
    99   6 C        3.002    -0.029    28.701     8.788
   100   6 C        2.863     0.237    23.055     7.871
   101   8 O        0.856    -0.416    21.995     6.288
   102   6 C        3.058    -0.020    28.460     8.749
   103   6 C        2.904    -0.023    28.577     8.765
   104   6 C        3.260     0.017    26.470     8.313
   105   6 C        3.255     0.018    26.524     8.329
   106   6 C        2.904    -0.031    28.784     8.797
   107   6 C        3.042     0.007    27.813     8.650
   108   6 C        3.017     0.041    27.069     8.534
   109   6 C        2.947     0.007    27.859     8.657
   110   6 C        1.939     0.132    27.851     8.523
   111   7 N        0.911    -0.275    27.114     7.531
   112   6 C        1.939     0.136    27.760     8.509
   113   7 N        0.911    -0.274    27.088     7.527
   114   6 C        4.163    -0.028    20.986     6.506
   115   6 C        4.011    -0.016    20.789     6.477
   116   6 C        2.987    -0.043    29.048     8.841
   117   6 C        2.987    -0.043    29.059     8.843
   118   6 C        4.012    -0.016    20.786     6.477
   119   6 C        3.926    -0.066    21.703     6.621
   120   6 C        4.161    -0.028    20.986     6.506
   121   1 H        0.925     0.098     1.802     2.099
   122   1 H        0.926     0.075     2.035     2.231
   123   1 H        0.926     0.058     2.223     2.331
   124   1 H        0.925     0.060     2.201     2.320
   125   1 H        0.925     0.045     2.379     2.412
   126   1 H        0.926     0.046     2.365     2.405
   127   1 H        0.926     0.047     2.361     2.403
   128   1 H        0.925     0.047     2.361     2.403
   129   1 H        0.925     0.035     2.523     2.484
   130   1 H        0.925     0.048     2.350     2.397
   131   1 H        0.925     0.061     2.188     2.313
   132   1 H        0.926     0.088     1.895     2.152
   133   1 H        0.926     0.082     1.956     2.187
   134   1 H        0.924     0.070     2.084     2.258
   135   1 H        0.924     0.077     2.013     2.219
   136   1 H        0.925     0.051     2.309     2.376
   137   1 H        0.925     0.073     2.049     2.238
   138   1 H        0.925     0.053     2.281     2.362
   139   1 H        0.926     0.022     2.708     2.574
   140   1 H        0.926     0.041     2.438     2.442
   141   1 H        0.926     0.045     2.380     2.413
   142   1 H        0.924     0.045     2.378     2.411
   143   1 H        0.924     0.045     2.383     2.414
   144   1 H        0.925     0.040     2.445     2.445
   145   1 H        0.925     0.041     2.434     2.440
   146   1 H        0.925     0.045     2.377     2.411
   147   1 H        0.926     0.045     2.383     2.414
   148   1 H        0.926     0.036     2.508     2.476
   149   1 H        0.926     0.038     2.478     2.462
   150   1 H        0.926     0.038     2.474     2.460
   151   1 H        0.924     0.044     2.402     2.424
   152   1 H        0.924     0.049     2.338     2.391
   153   1 H        0.925     0.030     2.586     2.515
   154   1 H        0.925     0.046     2.371     2.408
   155   1 H        0.925     0.030     2.583     2.513
   156   1 H        0.926     0.036     2.503     2.474
   157   1 H        0.924     0.079     1.994     2.208
   158   1 H        0.925     0.088     1.902     2.156
   159   1 H        0.925     0.070     2.087     2.259
   160   1 H        0.925     0.054     2.267     2.355
   161   1 H        0.925     0.048     2.347     2.396
   162   1 H        0.924     0.082     1.959     2.189
   163   1 H        0.924     0.084     1.936     2.176
   164   1 H        0.925     0.072     2.067     2.248
   165   1 H        0.925     0.053     2.285     2.364
   166   1 H        0.925     0.052     2.300     2.372
   167   1 H        0.926     0.048     2.351     2.398
   168   1 H        0.926     0.072     2.063     2.246
   169   1 H        0.926     0.070     2.081     2.256
   170   1 H        0.926     0.077     2.012     2.218
   171   1 H        0.926     0.073     2.058     2.243
   172   1 H        0.926     0.054     2.267     2.354
   173   1 H        0.925     0.077     2.008     2.216
   174   1 H        0.926     0.068     2.102     2.267
   175   1 H        0.926     0.061     2.192     2.315
   176   1 H        0.925     0.065     2.144     2.290
   177   1 H        0.925     0.046     2.370     2.407
   178   1 H        0.926     0.030     2.586     2.515
   179   1 H        0.926     0.030     2.585     2.514
   180   1 H        0.925     0.046     2.372     2.409
   181   1 H        0.925     0.052     2.298     2.371
   182   1 H        0.925     0.050     2.325     2.384
   183   1 H        0.925     0.065     2.138     2.287

 Mol. C6AA /au·bohr⁶  :     548113.150287
 Mol. C8AA /au·bohr⁸  :   14791237.374366
 Mol. α(0) /au        :       1174.355366


Wiberg/Mayer (AO) data.
largest (>0.10) Wiberg bond orders for each atom

 ---------------------------------------------------------------------------
     #   Z sym  total        # sym  WBO       # sym  WBO       # sym  WBO
 ---------------------------------------------------------------------------
     1   6 C    3.945 --     2 C    1.682    24 C    1.107   121 H    0.943
     2   6 C    3.973 --     1 C    1.682    11 C    1.090     3 C    0.991
     3   6 C    3.917 --     4 O    1.757     5 C    1.040     2 C    0.991
     4   8 O    2.035 --     3 C    1.757
     5   6 C    3.971 --     6 C    1.371    10 C    1.290     3 C    1.040
     6   6 C    3.979 --     7 C    1.446     5 C    1.371   122 H    0.961
     7   6 C    3.951 --     6 C    1.446     8 C    1.310    23 C    0.995
     8   6 C    3.963 --     9 C    1.454     7 C    1.310    17 C    0.996
     9   6 C    3.978 --     8 C    1.454    10 C    1.357   123 H    0.960
    10   6 C    3.981 --     9 C    1.357     5 C    1.290    11 C    1.099
    11   6 C    3.973 --    12 C    1.494    10 C    1.099     2 C    1.090
    12   6 C    3.973 --    11 C    1.494    13 C    1.100    15 C    1.099
    13   6 C    3.943 --    14 N    2.757    12 C    1.100
    14   7 N    2.968 --    13 C    2.757
    15   6 C    3.943 --    16 N    2.758    12 C    1.099
    16   7 N    2.970 --    15 C    2.758
    17   6 C    3.981 --     8 C    0.996    23 C    0.974   124 H    0.958
                            18 C    0.948
    18   6 C    3.987 --    19 C    1.004    22 C    0.989   125 H    0.970
                            17 C    0.948
    19   6 C    3.980 --    20 C    1.922    18 C    1.004   126 H    0.970
    20   6 C    3.980 --    19 C    1.922    21 C    1.004   127 H    0.970
    21   6 C    3.986 --    20 C    1.004    22 C    0.989   128 H    0.970
                            23 C    0.948
    22   6 C    3.993 --    21 C    0.989    18 C    0.989   130 H    0.977
                           129 H    0.974
    23   6 C    3.980 --     7 C    0.995    17 C    0.974   131 H    0.958
                            21 C    0.948
    24   6 C    3.973 --    36 C    1.366    25 C    1.302     1 C    1.107
    25   6 C    3.971 --    26 C    1.521    24 C    1.302   132 H    0.962
    26   6 C    3.978 --    25 C    1.521    27 C    1.300   133 H    0.961
    27   6 C    3.973 --    28 C    1.352    26 C    1.300    37 C    1.116
    28   6 C    3.968 --    27 C    1.352    36 C    1.324    29 C    1.012
    29   6 C    3.933 --    30 O    1.704    31 N    1.107    28 C    1.012
    30   8 O    2.038 --    29 C    1.704    31 N    0.120
    31   7 N    3.562 --    34 C    1.143    29 C    1.107    32 C    0.964
                            35 O    0.131    30 O    0.120
    32   6 C    3.949 --    33 C    1.007   134 H    0.968   135 H    0.967
                            31 N    0.964
    33   6 C    3.987 --    32 C    1.007   136 H    0.987   138 H    0.986
                           137 H    0.980
    34   6 C    3.936 --    35 O    1.682    31 N    1.143    36 C    1.003
    35   8 O    2.020 --    34 C    1.682    31 N    0.131
    36   6 C    3.981 --    24 C    1.366    28 C    1.324    34 C    1.003
    37   6 C    3.919 --    38 C    1.449    27 C    1.116    79 S    1.108
    38   6 C    3.973 --    37 C    1.449    47 C    1.255    39 C    1.051
    39   6 C    3.987 --    46 C    1.389    40 C    1.375    38 C    1.051
                            42 C    0.100
    40   6 C    3.989 --    41 C    1.451    39 C    1.375   139 H    0.968
                            43 C    0.104
    41   6 C    3.990 --    40 C    1.451    42 C    1.436   140 H    0.969
                            46 C    0.104
    42   6 C    3.980 --    41 C    1.436    43 C    1.405   141 H    0.968
                            39 C    0.100
    43   6 C    3.986 --    46 C    1.419    42 C    1.405    44 C    1.013
                            40 C    0.104
    44   6 C    3.995 --    43 C    1.013    45 C    1.000   142 H    0.973
                           143 H    0.973
    45   6 C    3.995 --    44 C    1.000   144 H    0.988   145 H    0.988
                           146 H    0.985
    46   6 C    3.985 --    43 C    1.419    39 C    1.389   147 H    0.964
                            41 C    0.104
    47   6 C    3.926 --    78 C    1.356    38 C    1.255    48 S    1.089
    48  16 S    2.503 --    49 C    1.102    47 C    1.089
    49   6 C    3.927 --    77 C    1.322    50 C    1.263    48 S    1.102
    50   6 C    3.958 --    75 C    1.273    49 C    1.263    51 C    1.178
    51   6 C    3.970 --    55 N    1.424    50 C    1.178    52 C    1.156
                            54 S    0.107
    52   6 C    3.970 --    53 N    1.423    56 C    1.179    51 C    1.156
                            54 S    0.107
    53   7 N    3.055 --    52 C    1.423    54 S    1.373    55 N    0.146
    54  16 S    3.084 --    55 N    1.373    53 N    1.373    52 C    0.107
                            51 C    0.107
    55   7 N    3.056 --    51 C    1.424    54 S    1.373    53 N    0.146
    56   6 C    3.959 --    74 C    1.278    57 C    1.258    52 C    1.179
    57   6 C    3.929 --    72 C    1.326    56 C    1.258    58 S    1.102
    58  16 S    2.505 --    57 C    1.102    59 C    1.091
    59   6 C    3.923 --    71 C    1.372    60 C    1.237    58 S    1.091
    60   6 C    3.975 --    69 C    1.481    59 C    1.237    61 C    1.050
    61   6 C    3.987 --    68 C    1.386    62 C    1.381    60 C    1.050
                            64 C    0.101
    62   6 C    3.987 --    63 C    1.448    61 C    1.381   148 H    0.966
                            65 C    0.104
    63   6 C    3.990 --    62 C    1.448    64 C    1.438   149 H    0.970
                            68 C    0.106
    64   6 C    3.983 --    63 C    1.438    65 C    1.405   150 H    0.969
                            61 C    0.101
    65   6 C    3.987 --    68 C    1.423    64 C    1.405    66 C    1.012
                            62 C    0.104
    66   6 C    3.995 --    65 C    1.012    67 C    1.002   151 H    0.976
                           152 H    0.970
    67   6 C    3.996 --    66 C    1.002   153 H    0.989   155 H    0.987
                           154 H    0.985
    68   6 C    3.989 --    65 C    1.423    61 C    1.386   156 H    0.966
                            63 C    0.106
    69   6 C    3.916 --    60 C    1.481    70 S    1.099    84 C    1.094
    70  16 S    2.560 --    71 C    1.118    69 C    1.099
    71   6 C    3.936 --    59 C    1.372    72 C    1.226    70 S    1.118
    72   6 C    3.943 --    57 C    1.326    71 C    1.226    73 N    1.165
    73   7 N    3.563 --    74 C    1.175    72 C    1.165    82 C    0.971
    74   6 C    3.942 --    56 C    1.278    75 C    1.215    73 N    1.175
    75   6 C    3.940 --    50 C    1.273    74 C    1.215    76 N    1.180
    76   7 N    3.570 --    75 C    1.180    77 C    1.166    80 C    0.974
    77   6 C    3.944 --    49 C    1.322    78 C    1.227    76 N    1.166
    78   6 C    3.937 --    47 C    1.356    77 C    1.227    79 S    1.133
    79  16 S    2.604 --    78 C    1.133    37 C    1.108
    80   6 C    3.950 --    81 C    1.007    76 N    0.974   157 H    0.960
                           158 H    0.950
    81   6 C    3.986 --    80 C    1.007   161 H    0.987   160 H    0.982
                           159 H    0.980
    82   6 C    3.949 --    83 C    1.008    73 N    0.971   162 H    0.962
                           163 H    0.951
    83   6 C    3.985 --    82 C    1.008   166 H    0.986   165 H    0.982
                           164 H    0.980
    84   6 C    3.960 --    93 C    1.387    85 C    1.324    69 C    1.094
    85   6 C    3.980 --    86 C    1.462    84 C    1.324   167 H    0.965
    86   6 C    3.980 --    85 C    1.462    91 C    1.278    87 C    1.009
    87   6 C    3.908 --    88 O    1.776    89 C    1.010    86 C    1.009
    88   8 O    2.041 --    87 C    1.776
    89   6 C    3.981 --    97 C    1.461    90 C    1.279    87 C    1.010
    90   6 C    3.971 --    94 C    1.411    89 C    1.279    91 C    1.071
    91   6 C    3.970 --    92 C    1.418    86 C    1.278    90 C    1.071
    92   6 C    3.968 --    93 C    1.424    91 C    1.418   168 H    0.964
    93   6 C    3.971 --    92 C    1.424    84 C    1.387   169 H    0.963
    94   6 C    3.969 --    95 C    1.432    90 C    1.411   170 H    0.963
    95   6 C    3.967 --    94 C    1.432    96 C    1.371   171 H    0.966
    96   6 C    3.964 --    95 C    1.371    97 C    1.321    98 C    1.118
    97   6 C    3.973 --    89 C    1.461    96 C    1.321   172 H    0.966
    98   6 C    3.942 --    99 C    1.648    96 C    1.118   173 H    0.944
    99   6 C    3.972 --    98 C    1.648   108 C    1.110   100 C    1.006
   100   6 C    3.914 --   101 O    1.747   102 C    1.037    99 C    1.006
   101   8 O    2.036 --   100 C    1.747
   102   6 C    3.974 --   103 C    1.375   107 C    1.297   100 C    1.037
   103   6 C    3.981 --   104 C    1.444   102 C    1.375   174 H    0.962
   104   6 C    3.952 --   103 C    1.444   105 C    1.315   120 C    0.999
   105   6 C    3.964 --   106 C    1.454   104 C    1.315   114 C    0.999
   106   6 C    3.979 --   105 C    1.454   107 C    1.357   175 H    0.958
   107   6 C    3.982 --   106 C    1.357   102 C    1.297   108 C    1.103
   108   6 C    3.974 --   109 C    1.489    99 C    1.110   107 C    1.103
   109   6 C    3.962 --   108 C    1.489   112 C    1.099   110 C    1.097
   110   6 C    3.942 --   111 N    2.754   109 C    1.097
   111   7 N    2.961 --   110 C    2.754
   112   6 C    3.942 --   113 N    2.756   109 C    1.099
   113   7 N    2.964 --   112 C    2.756
   114   6 C    3.982 --   105 C    0.999   120 C    0.977   176 H    0.956
                           115 C    0.946
   115   6 C    3.988 --   116 C    1.010   119 C    0.985   177 H    0.971
                           114 C    0.946
   116   6 C    3.987 --   117 C    1.924   115 C    1.010   178 H    0.971
   117   6 C    3.987 --   116 C    1.924   118 C    1.010   179 H    0.971
   118   6 C    3.987 --   117 C    1.010   119 C    0.985   180 H    0.971
                           120 C    0.945
   119   6 C    3.991 --   118 C    0.985   115 C    0.985   181 H    0.976
                           182 H    0.975
   120   6 C    3.981 --   104 C    0.999   114 C    0.977   183 H    0.956
                           118 C    0.945
   121   1 H    0.988 --     1 C    0.943
   122   1 H    0.994 --     6 C    0.961
   123   1 H    0.996 --     9 C    0.960
   124   1 H    0.994 --    17 C    0.958
   125   1 H    0.998 --    18 C    0.970
   126   1 H    0.998 --    19 C    0.970
   127   1 H    0.998 --    20 C    0.970
   128   1 H    0.998 --    21 C    0.970
   129   1 H    0.999 --    22 C    0.974
   130   1 H    0.998 --    22 C    0.977
   131   1 H    0.994 --    23 C    0.958
   132   1 H    0.991 --    25 C    0.962
   133   1 H    0.992 --    26 C    0.961
   134   1 H    0.994 --    32 C    0.968
   135   1 H    0.993 --    32 C    0.967
   136   1 H    0.997 --    33 C    0.987
   137   1 H    0.994 --    33 C    0.980
   138   1 H    0.997 --    33 C    0.986
   139   1 H    0.999 --    40 C    0.968
   140   1 H    0.997 --    41 C    0.969
   141   1 H    0.997 --    42 C    0.968
   142   1 H    0.997 --    44 C    0.973
   143   1 H    0.998 --    44 C    0.973
   144   1 H    0.998 --    45 C    0.988
   145   1 H    0.998 --    45 C    0.988
   146   1 H    0.997 --    45 C    0.985
   147   1 H    0.998 --    46 C    0.964
   148   1 H    0.998 --    62 C    0.966
   149   1 H    0.997 --    63 C    0.970
   150   1 H    0.998 --    64 C    0.969
   151   1 H    0.998 --    66 C    0.976
   152   1 H    0.997 --    66 C    0.970
   153   1 H    0.999 --    67 C    0.989
   154   1 H    0.997 --    67 C    0.985
   155   1 H    0.999 --    67 C    0.987
   156   1 H    0.999 --    68 C    0.966
   157   1 H    0.993 --    80 C    0.960
   158   1 H    0.990 --    80 C    0.950
   159   1 H    0.994 --    81 C    0.980
   160   1 H    0.997 --    81 C    0.982
   161   1 H    0.998 --    81 C    0.987
   162   1 H    0.993 --    82 C    0.962
   163   1 H    0.990 --    82 C    0.951
   164   1 H    0.994 --    83 C    0.980
   165   1 H    0.997 --    83 C    0.982
   166   1 H    0.997 --    83 C    0.986
   167   1 H    0.997 --    85 C    0.965
   168   1 H    0.994 --    92 C    0.964
   169   1 H    0.994 --    93 C    0.963
   170   1 H    0.993 --    94 C    0.963
   171   1 H    0.994 --    95 C    0.966
   172   1 H    0.997 --    97 C    0.966
   173   1 H    0.992 --    98 C    0.944
   174   1 H    0.995 --   103 C    0.962
   175   1 H    0.996 --   106 C    0.958
   176   1 H    0.994 --   114 C    0.956
   177   1 H    0.998 --   115 C    0.971
   178   1 H    0.999 --   116 C    0.971
   179   1 H    0.999 --   117 C    0.971
   180   1 H    0.998 --   118 C    0.971
   181   1 H    0.997 --   119 C    0.976
   182   1 H    0.995 --   119 C    0.975
   183   1 H    0.993 --   120 C    0.956
 ---------------------------------------------------------------------------

Topologies differ in bond orders
Writing corrected topology to xtbtopo.mol

molecular dipole:
                 x           y           z       tot (Debye)
 q only:       -1.704       3.851      -4.087
   full:       -0.917       3.956      -4.447      15.307
molecular quadrupole (traceless):
                xx          xy          yy          xz          yz          zz
 q only:       44.813      57.911      87.853       6.332     -47.188    -132.667
  q+dip:       50.845      60.416      79.907      -3.303     -54.077    -130.752
   full:       57.434      63.680      74.623       6.415     -57.665    -132.058


           -------------------------------------------------
          | TOTAL ENERGY             -311.272765967049 Eh   |
          | GRADIENT NORM               0.045287565150 Eh/α |
          | HOMO-LUMO GAP               0.560456116691 eV   |
           -------------------------------------------------

------------------------------------------------------------------------
 * finished run on 2022/02/14 at 15:18:42.703     
------------------------------------------------------------------------
 total:
 * wall-time:     0 d,  0 h,  0 min,  0.641 sec
 *  cpu-time:     0 d,  0 h,  0 min,  5.046 sec
 * ratio c/w:     7.877 speedup
 SCF:
 * wall-time:     0 d,  0 h,  0 min,  0.559 sec
 *  cpu-time:     0 d,  0 h,  0 min,  4.466 sec
 * ratio c/w:     7.987 speedup

