      -----------------------------------------------------------      
     |                   =====================                   |     
     |                           x T B                           |     
     |                   =====================                   |     
     |                         S. Grimme                         |     
     |          Mulliken Center for Theoretical Chemistry        |     
     |                    University of Bonn                     |     
      -----------------------------------------------------------      

   * xtb version 6.4.1 (unknown) compiled by 'oda6@login1.crc.pitt.edu' on 2021-06-25

   xtb is free software: you can redistribute it and/or modify it under
   the terms of the GNU Lesser General Public License as published by
   the Free Software Foundation, either version 3 of the License, or
   (at your option) any later version.
   
   xtb is distributed in the hope that it will be useful,
   but WITHOUT ANY WARRANTY; without even the implied warranty of
   MERCHANTABILITY or FITNESS FOR A PARTICULAR PURPOSE.  See the
   GNU Lesser General Public License for more details.
   
   Cite this work as:
   * C. Bannwarth, E. Caldeweyher, S. Ehlert, A. Hansen, P. Pracht,
     J. Seibert, S. Spicher, S. Grimme, WIREs Comput. Mol. Sci., 2020, 11,
     e01493. DOI: 10.1002/wcms.1493
   
   for GFN2-xTB:
   * C. Bannwarth, S. Ehlert and S. Grimme., J. Chem. Theory Comput., 2019,
     15, 1652-1671. DOI: 10.1021/acs.jctc.8b01176
   for GFN1-xTB:
   * S. Grimme, C. Bannwarth, P. Shushkov, J. Chem. Theory Comput., 2017,
     13, 1989-2009. DOI: 10.1021/acs.jctc.7b00118
   for GFN0-xTB:
   * P. Pracht, E. Caldeweyher, S. Ehlert, S. Grimme, ChemRxiv, 2019, preprint.
     DOI: 10.26434/chemrxiv.8326202.v1
   for GFN-FF:
   * S. Spicher and S. Grimme, Angew. Chem. Int. Ed., 2020, 59, 15665-15673.
     DOI: 10.1002/anie.202004239
   
   for DFT-D4:
   * E. Caldeweyher, C. Bannwarth and S. Grimme, J. Chem. Phys., 2017,
     147, 034112. DOI: 10.1063/1.4993215
   * E. Caldeweyher, S. Ehlert, A. Hansen, H. Neugebauer, S. Spicher,
     C. Bannwarth and S. Grimme, J. Chem. Phys., 2019, 150, 154122.
     DOI: 10.1063/1.5090222
   * E. Caldeweyher, J.-M. Mewes, S. Ehlert and S. Grimme, Phys. Chem. Chem. Phys.
     2020, 22, 8499-8512. DOI: 10.1039/D0CP00502A
   
   for sTDA-xTB:
   * S. Grimme and C. Bannwarth, J. Chem. Phys., 2016, 145, 054103.
     DOI: 10.1063/1.4959605
   
   in the mass-spec context:
   * V. Asgeirsson, C. Bauer and S. Grimme, Chem. Sci., 2017, 8, 4879.
     DOI: 10.1039/c7sc00601b
   * J. Koopman and S. Grimme, ACS Omega 2019, 4, 12, 15120-15133.
     DOI: 10.1021/acsomega.9b02011
   
   for metadynamics refer to:
   * S. Grimme, J. Chem. Theory Comput., 2019, 155, 2847-2862
     DOI: 10.1021/acs.jctc.9b00143
   
   for SPH calculations refer to:
   * S. Spicher and S. Grimme, J. Chem. Theory Comput., 2021, 17, 1701-1714
     DOI: 10.1021/acs.jctc.0c01306
   
   with help from (in alphabetical order)
   P. Atkinson, C. Bannwarth, F. Bohle, G. Brandenburg, E. Caldeweyher
   M. Checinski, S. Dohm, S. Ehlert, S. Ehrlich, I. Gerasimov, J. Koopman
   C. Lavigne, S. Lehtola, F. März, M. Müller, F. Musil, H. Neugebauer
   J. Pisarek, C. Plett, P. Pracht, J. Seibert, P. Shushkov, S. Spicher
   M. Stahn, M. Steiner, T. Strunk, J. Stückrath, T. Rose, and J. Unsleber
   
 * started run on 2022/02/15 at 01:22:22.367     

           -------------------------------------------------
          |                Calculation Setup                |
           -------------------------------------------------

          program call               : /ihome/ghutchison/oda6/xtb/xtb-641/bin/xtb ../../GFN2_output/39_153_86_133_10.mol --sp --alpb water
          hostname                   : smp-n25
          coordinate file            : ../../GFN2_output/39_153_86_133_10.mol
          omp threads                :                     8
          number of atoms            :                   176
          number of electrons        :                   574
          charge                     :                     0
          spin                       :                   0.0
          first test random number   :      0.01942504833039

   ID    Z sym.   atoms
    1    6 C      1-3, 5-13, 15, 17-24, 26-28, 30-33, 35-39, 41-52, 54-57,
                  61, 62, 64-74, 76, 77, 79, 80, 82, 83, 85-91, 95, 96,
                  100-103, 105-117, 119
    2    8 O      4, 29, 40, 104
    3    7 N      14, 16, 58, 60, 78, 81, 92, 94, 97, 99, 118, 120
    4   16 S      25, 34, 53, 59, 63, 75, 84, 93, 98
    5    1 H      121-176

           -------------------------------------------------
          |                 G F N 2 - x T B                 |
           -------------------------------------------------

        Reference                      10.1021/acs.jctc.8b01176
      * Hamiltonian:
        H0-scaling (s, p, d)           1.850000    2.230000    2.230000
        zeta-weighting                 0.500000
      * Dispersion:
        s8                             2.700000
        a1                             0.520000
        a2                             5.000000
        s9                             5.000000
      * Repulsion:
        kExp                           1.500000    1.000000
        rExp                           1.000000
      * Coulomb:
        alpha                          2.000000
        third order                    shell-resolved
        anisotropic                    true
        a3                             3.000000
        a5                             4.000000
        cn-shift                       1.200000
        cn-exp                         4.000000
        max-rad                        5.000000

      * Solvation model:               ALPB
        Solvent                        water
        Parameter file                 internal GFN2-xTB/ALPB
        Dielectric constant                8.0200E+01
        Reference state                gsolv [1 M gas/solution]
        Free energy shift                  1.0808E-03 Eh       6.7819E-01 kcal/mol
        Temperature                        2.9815E+02 K
        Density                            1.0000E+00 kg/L
        Solvent mass                       1.8000E+01 g/mol
        Interaction kernel             P16
        Born radius scaling (c1)           1.4744E+00
        Born radii integrator          GBOBC
        Born offset                        0.0000E+00 a0       0.0000E+00 AA
        H-bond correction              true
        Ion screening                  false
        Surface tension                    1.0000E-05 Eh       1.5569E+01 dyn/cm
        Grid points                               230 per atom

          ...................................................
          :                      SETUP                      :
          :.................................................:
          :  # basis functions                 590          :
          :  # atomic orbitals                 581          :
          :  # shells                          305          :
          :  # electrons                       574          :
          :  max. iterations                   250          :
          :  Hamiltonian                  GFN2-xTB          :
          :  restarted?                      false          :
          :  GBSA solvation                   true          :
          :  PC potential                    false          :
          :  electronic temp.          300.0000000     K    :
          :  accuracy                    1.0000000          :
          :  -> integral cutoff          0.2500000E+02      :
          :  -> integral neglect         0.1000000E-07      :
          :  -> SCF convergence          0.1000000E-05 Eh   :
          :  -> wf. convergence          0.1000000E-03 e    :
          :  Broyden damping             0.4000000          :
          ...................................................

 iter      E             dE          RMSdq      gap      omega  full diag
   1   -317.0107282 -0.317011E+03  0.451E+00    0.58       0.0  T
   2   -317.3267447 -0.316016E+00  0.273E+00    0.55       1.0  T
   3   -317.2626339  0.641108E-01  0.146E+00    0.60       1.0  T
   4   -317.4330265 -0.170393E+00  0.484E-01    0.53       1.0  T
   5   -317.4597916 -0.267651E-01  0.180E-01    0.53       1.0  T
   6   -317.4619898 -0.219815E-02  0.104E-01    0.53       1.0  T
   7   -317.4630454 -0.105566E-02  0.455E-02    0.53       1.0  T
   8   -317.4631897 -0.144293E-03  0.226E-02    0.53       1.0  T
   9   -317.4632259 -0.361682E-04  0.114E-02    0.53       1.0  T
  10   -317.4632297 -0.381860E-05  0.677E-03    0.53       1.1  T
  11   -317.4632321 -0.234446E-05  0.347E-03    0.53       2.2  T
  12   -317.4632325 -0.423582E-06  0.199E-03    0.53       3.8  T
  13   -317.4632327 -0.193168E-06  0.803E-04    0.53       9.4  T
  14   -317.4632327 -0.362637E-07  0.428E-04    0.53      17.6  T

   *** convergence criteria satisfied after 14 iterations ***

         #    Occupation            Energy/Eh            Energy/eV
      -------------------------------------------------------------
         1        2.0000           -0.7798345             -21.2204
       ...           ...                  ...                  ...
       281        2.0000           -0.3968148             -10.7979
       282        2.0000           -0.3943313             -10.7303
       283        2.0000           -0.3911993             -10.6451
       284        2.0000           -0.3830502             -10.4233
       285        2.0000           -0.3816340             -10.3848
       286        2.0000           -0.3758109             -10.2263
       287        1.9999           -0.3682581             -10.0208 (HOMO)
       288        0.0001           -0.3488295              -9.4921 (LUMO)
       289                         -0.3404483              -9.2641
       290                         -0.3303708              -8.9898
       291                         -0.3303312              -8.9888
       292                         -0.3192641              -8.6876
       ...                                ...                  ...
       581                          1.1504480              31.3053
      -------------------------------------------------------------
                  HL-Gap            0.0194287 Eh            0.5287 eV
             Fermi-level           -0.3585437 Eh           -9.7565 eV

 SCC (total)                   0 d,  0 h,  0 min,  0.617 sec
 SCC setup                      ...        0 min,  0.006 sec (  0.988%)
 Dispersion                     ...        0 min,  0.008 sec (  1.261%)
 classical contributions        ...        0 min,  0.000 sec (  0.047%)
 integral evaluation            ...        0 min,  0.032 sec (  5.217%)
 iterations                     ...        0 min,  0.480 sec ( 77.722%)
 molecular gradient             ...        0 min,  0.088 sec ( 14.325%)
 printout                       ...        0 min,  0.003 sec (  0.427%)

         :::::::::::::::::::::::::::::::::::::::::::::::::::::
         ::                     SUMMARY                     ::
         :::::::::::::::::::::::::::::::::::::::::::::::::::::
         :: total energy            -312.585763805586 Eh    ::
         :: total w/o Gsasa/hb      -312.560864072833 Eh    ::
         :: gradient norm              0.045850302203 Eh/a0 ::
         :: HOMO-LUMO gap              0.528680794938 eV    ::
         ::.................................................::
         :: SCC energy              -317.463232721080 Eh    ::
         :: -> isotropic ES            0.282455985739 Eh    ::
         :: -> anisotropic ES         -0.004082914246 Eh    ::
         :: -> anisotropic XC          0.186528295211 Eh    ::
         :: -> dispersion             -0.306300979596 Eh    ::
         :: -> Gsolv                  -0.085696752952 Eh    ::
         ::    -> Gelec               -0.060797020199 Eh    ::
         ::    -> Gsasa               -0.019062333768 Eh    ::
         ::    -> Ghb                 -0.006918158683 Eh    ::
         ::    -> Gshift               0.001080759698 Eh    ::
         :: repulsion energy           4.877495271292 Eh    ::
         :: add. restraining           0.000000000000 Eh    ::
         :: total charge               0.000000000000 e     ::
         :::::::::::::::::::::::::::::::::::::::::::::::::::::

           -------------------------------------------------
          |                Property Printout                |
           -------------------------------------------------

    * Orbital Energies and Occupations

         #    Occupation            Energy/Eh            Energy/eV
      -------------------------------------------------------------
         1        2.0000           -0.7798345             -21.2204
       ...           ...                  ...                  ...
       275        2.0000           -0.4073501             -11.0846
       276        2.0000           -0.4056159             -11.0374
       277        2.0000           -0.4023330             -10.9480
       278        2.0000           -0.4017909             -10.9333
       279        2.0000           -0.4004225             -10.8961
       280        2.0000           -0.3994129             -10.8686
       281        2.0000           -0.3968148             -10.7979
       282        2.0000           -0.3943313             -10.7303
       283        2.0000           -0.3911993             -10.6451
       284        2.0000           -0.3830502             -10.4233
       285        2.0000           -0.3816340             -10.3848
       286        2.0000           -0.3758109             -10.2263
       287        1.9999           -0.3682581             -10.0208 (HOMO)
       288        0.0001           -0.3488295              -9.4921 (LUMO)
       289                         -0.3404483              -9.2641
       290                         -0.3303708              -8.9898
       291                         -0.3303312              -8.9888
       292                         -0.3192641              -8.6876
       293                         -0.3100358              -8.4365
       294                         -0.3025796              -8.2336
       295                         -0.3004410              -8.1754
       296                         -0.2921340              -7.9494
       297                         -0.2837364              -7.7209
       298                         -0.2798745              -7.6158
       ...                                ...                  ...
       581                          1.1504480              31.3053
      -------------------------------------------------------------
                  HL-Gap            0.0194287 Eh            0.5287 eV
             Fermi-level           -0.3585437 Eh           -9.7565 eV

     #   Z          covCN         q      C6AA      α(0)
     1   6 C        2.943    -0.009    28.238     8.715
     2   6 C        3.014    -0.014    28.342     8.733
     3   6 C        2.869     0.248    22.854     7.836
     4   8 O        0.856    -0.435    22.383     6.343
     5   6 C        3.059    -0.014    28.309     8.725
     6   6 C        2.904    -0.022    28.549     8.761
     7   6 C        3.260     0.020    26.404     8.303
     8   6 C        3.254     0.021    26.465     8.321
     9   6 C        2.904    -0.031    28.765     8.794
    10   6 C        3.053     0.013    27.677     8.628
    11   6 C        3.018     0.044    26.997     8.523
    12   6 C        2.947     0.006    27.876     8.659
    13   6 C        1.935     0.132    27.857     8.524
    14   7 N        0.911    -0.273    27.055     7.523
    15   6 C        1.934     0.137    27.758     8.508
    16   7 N        0.911    -0.270    26.976     7.512
    17   6 C        4.162    -0.025    20.935     6.498
    18   6 C        4.013    -0.016    20.784     6.476
    19   6 C        2.995    -0.043    29.057     8.842
    20   6 C        2.995    -0.044    29.076     8.845
    21   6 C        4.013    -0.015    20.772     6.474
    22   6 C        3.914    -0.062    21.619     6.609
    23   6 C        4.159    -0.025    20.933     6.498
    24   6 C        2.983     0.038    27.134     8.545
    25  16 S        2.370     0.026   140.003    19.915
    26   6 C        2.997     0.038    27.131     8.544
    27   6 C        3.137    -0.040    28.745     8.775
    28   6 C        2.824     0.225    23.279     7.906
    29   8 O        1.027    -0.417    21.939     6.284
    30   6 C        3.163    -0.045    28.757     8.765
    31   6 C        2.981     0.042    27.052     8.532
    32   6 C        3.829    -0.065    21.719     6.631
    33   6 C        3.754    -0.112    22.690     6.792
    34  16 S        2.357     0.055   138.827    19.831
    35   6 C        2.980     0.038    27.140     8.546
    36   6 C        3.827    -0.054    21.518     6.601
    37   6 C        3.754    -0.107    22.608     6.780
    38   6 C        3.168    -0.045    28.748     8.761
    39   6 C        2.824     0.234    23.098     7.875
    40   8 O        0.858    -0.463    22.980     6.427
    41   6 C        3.138    -0.027    28.428     8.726
    42   6 C        3.042     0.006    27.838     8.654
    43   6 C        3.113    -0.004    27.969     8.663
    44   6 C        2.984     0.008    27.826     8.653
    45   6 C        2.925    -0.039    28.960     8.825
    46   6 C        2.918    -0.034    28.836     8.806
    47   6 C        2.925    -0.039    28.973     8.827
    48   6 C        2.971     0.020    27.557     8.611
    49   6 C        3.807    -0.065    21.748     6.639
    50   6 C        3.754    -0.108    22.614     6.781
    51   6 C        2.931    -0.041    29.009     8.833
    52   6 C        3.188     0.014    27.228     8.513
    53  16 S        2.169    -0.049   143.099    20.134
    54   6 C        3.095     0.007    27.752     8.634
    55   6 C        3.084    -0.036    28.790     8.796
    56   6 C        3.340     0.069    24.042     7.755
    57   6 C        3.340     0.069    24.035     7.753
    58   7 N        1.854    -0.297    28.537     7.918
    59  16 S        2.685     0.309   129.084    19.122
    60   7 N        1.854    -0.298    28.565     7.921
    61   6 C        3.084    -0.037    28.824     8.801
    62   6 C        3.099     0.008    27.711     8.627
    63  16 S        2.174    -0.026   142.148    20.067
    64   6 C        3.192     0.014    27.203     8.506
    65   6 C        3.102     0.004    27.799     8.640
    66   6 C        2.974     0.017    27.633     8.623
    67   6 C        2.925    -0.036    28.906     8.817
    68   6 C        2.918    -0.036    28.907     8.817
    69   6 C        2.925    -0.042    29.036     8.837
    70   6 C        2.971     0.020    27.550     8.610
    71   6 C        3.807    -0.067    21.783     6.644
    72   6 C        3.754    -0.109    22.643     6.785
    73   6 C        2.932    -0.039    28.978     8.828
    74   6 C        3.003     0.017    27.615     8.620
    75  16 S        2.291    -0.001   141.111    19.993
    76   6 C        3.113     0.013    27.568     8.601
    77   6 C        3.250     0.033    26.246     8.293
    78   7 N        2.799    -0.007    21.391     6.869
    79   6 C        3.075     0.037    27.086     8.533
    80   6 C        3.075     0.035    27.143     8.542
    81   7 N        2.795    -0.016    21.566     6.897
    82   6 C        3.260     0.033    26.128     8.260
    83   6 C        3.112    -0.003    27.940     8.659
    84  16 S        2.404     0.004   140.892    19.978
    85   6 C        3.746    -0.020    20.994     6.536
    86   6 C        3.752    -0.123    22.911     6.826
    87   6 C        3.743    -0.014    20.901     6.522
    88   6 C        3.752    -0.137    23.202     6.869
    89   6 C        3.004    -0.011    28.287     8.724
    90   6 C        3.354     0.064    23.859     7.687
    91   6 C        3.345     0.079    23.741     7.692
    92   7 N        1.854    -0.310    28.894     7.967
    93  16 S        2.674     0.428   124.813    18.803
    94   7 N        1.881    -0.284    28.211     7.874
    95   6 C        2.959    -0.025    28.614     8.774
    96   6 C        3.347     0.067    23.945     7.720
    97   7 N        1.853    -0.311    28.911     7.969
    98  16 S        2.669     0.414   125.303    18.840
    99   7 N        1.853    -0.287    28.303     7.885
   100   6 C        3.344     0.064    24.061     7.745
   101   6 C        2.902    -0.006    28.169     8.702
   102   6 C        3.008    -0.037    28.907     8.819
   103   6 C        2.872     0.234    23.103     7.879
   104   8 O        0.856    -0.442    22.538     6.365
   105   6 C        3.038    -0.025    28.597     8.771
   106   6 C        3.036     0.008    27.803     8.649
   107   6 C        2.909    -0.032    28.791     8.798
   108   6 C        2.921    -0.027    28.681     8.782
   109   6 C        2.985     0.020    27.543     8.609
   110   6 C        2.918    -0.034    28.851     8.808
   111   6 C        2.915    -0.026    28.654     8.778
   112   6 C        2.916    -0.026    28.659     8.779
   113   6 C        2.915    -0.032    28.789     8.799
   114   6 C        2.982     0.023    27.486     8.600
   115   6 C        3.020     0.036    27.171     8.550
   116   6 C        2.947     0.001    28.005     8.680
   117   6 C        1.943     0.131    27.881     8.527
   118   7 N        0.911    -0.289    27.447     7.577
   119   6 C        1.944     0.135    27.784     8.512
   120   7 N        0.911    -0.282    27.266     7.552
   121   1 H        0.925     0.076     2.021     2.223
   122   1 H        0.926     0.066     2.130     2.282
   123   1 H        0.926     0.063     2.169     2.303
   124   1 H        0.925     0.061     2.190     2.314
   125   1 H        0.925     0.045     2.387     2.416
   126   1 H        0.926     0.047     2.363     2.404
   127   1 H        0.926     0.049     2.336     2.390
   128   1 H        0.925     0.048     2.348     2.396
   129   1 H        0.925     0.034     2.530     2.487
   130   1 H        0.925     0.047     2.358     2.401
   131   1 H        0.925     0.063     2.169     2.303
   132   1 H        0.924     0.081     1.965     2.192
   133   1 H        0.924     0.072     2.066     2.248
   134   1 H        0.925     0.046     2.368     2.407
   135   1 H        0.925     0.050     2.323     2.383
   136   1 H        0.925     0.069     2.102     2.267
   137   1 H        0.924     0.058     2.218     2.329
   138   1 H        0.924     0.069     2.092     2.262
   139   1 H        0.925     0.055     2.256     2.349
   140   1 H        0.925     0.060     2.199     2.319
   141   1 H        0.925     0.042     2.421     2.433
   142   1 H        0.926     0.029     2.599     2.521
   143   1 H        0.926     0.044     2.396     2.420
   144   1 H        0.926     0.047     2.355     2.400
   145   1 H        0.924     0.046     2.366     2.405
   146   1 H        0.924     0.046     2.367     2.406
   147   1 H        0.925     0.047     2.357     2.401
   148   1 H        0.925     0.041     2.441     2.443
   149   1 H        0.925     0.040     2.444     2.445
   150   1 H        0.926     0.044     2.395     2.420
   151   1 H        0.926     0.016     2.793     2.614
   152   1 H        0.926     0.039     2.461     2.453
   153   1 H        0.926     0.049     2.333     2.388
   154   1 H        0.924     0.048     2.346     2.395
   155   1 H        0.924     0.050     2.326     2.385
   156   1 H        0.925     0.041     2.429     2.437
   157   1 H        0.925     0.048     2.341     2.393
   158   1 H        0.925     0.041     2.441     2.443
   159   1 H        0.926     0.051     2.312     2.378
   160   1 H        0.925     0.096     1.822     2.111
   161   1 H        0.924     0.085     1.929     2.172
   162   1 H        0.925     0.047     2.363     2.404
   163   1 H        0.925     0.072     2.059     2.244
   164   1 H        0.925     0.053     2.280     2.361
   165   1 H        0.924     0.076     2.020     2.223
   166   1 H        0.924     0.084     1.943     2.180
   167   1 H        0.925     0.062     2.172     2.305
   168   1 H        0.925     0.075     2.034     2.230
   169   1 H        0.925     0.071     2.077     2.254
   170   1 H        0.925     0.063     2.161     2.299
   171   1 H        0.926     0.055     2.262     2.352
   172   1 H        0.926     0.073     2.052     2.240
   173   1 H        0.926     0.062     2.173     2.305
   174   1 H        0.926     0.064     2.155     2.296
   175   1 H        0.926     0.059     2.205     2.322
   176   1 H        0.926     0.055     2.257     2.349

 Mol. C6AA /au·bohr⁶  :     572928.952100
 Mol. C8AA /au·bohr⁸  :   16175609.410768
 Mol. α(0) /au        :       1205.047773


Wiberg/Mayer (AO) data.
largest (>0.10) Wiberg bond orders for each atom

 ---------------------------------------------------------------------------
     #   Z sym  total        # sym  WBO       # sym  WBO       # sym  WBO
 ---------------------------------------------------------------------------
     1   6 C    3.946 --     2 C    1.643    24 C    1.156   121 H    0.942
     2   6 C    3.962 --     1 C    1.643    11 C    1.105     3 C    0.993
     3   6 C    3.911 --     4 O    1.745     5 C    1.040     2 C    0.993
     4   8 O    2.009 --     3 C    1.745
     5   6 C    3.971 --     6 C    1.370    10 C    1.291     3 C    1.040
     6   6 C    3.981 --     7 C    1.447     5 C    1.370   122 H    0.962
     7   6 C    3.948 --     6 C    1.447     8 C    1.308    23 C    0.996
     8   6 C    3.961 --     9 C    1.455     7 C    1.308    17 C    0.996
     9   6 C    3.976 --     8 C    1.455    10 C    1.356   123 H    0.959
    10   6 C    3.978 --     9 C    1.356     5 C    1.291    11 C    1.099
    11   6 C    3.970 --    12 C    1.489     2 C    1.105    10 C    1.099
    12   6 C    3.957 --    11 C    1.489    15 C    1.099    13 C    1.098
    13   6 C    3.942 --    14 N    2.757    12 C    1.098
    14   7 N    2.965 --    13 C    2.757
    15   6 C    3.943 --    16 N    2.758    12 C    1.099
    16   7 N    2.965 --    15 C    2.758
    17   6 C    3.981 --     8 C    0.996    23 C    0.974   124 H    0.958
                            18 C    0.948
    18   6 C    3.986 --    19 C    1.004    22 C    0.989   125 H    0.970
                            17 C    0.948
    19   6 C    3.979 --    20 C    1.922    18 C    1.004   126 H    0.970
    20   6 C    3.978 --    19 C    1.922    21 C    1.004   127 H    0.970
    21   6 C    3.985 --    20 C    1.004    22 C    0.989   128 H    0.970
                            23 C    0.947
    22   6 C    3.993 --    21 C    0.989    18 C    0.989   130 H    0.977
                           129 H    0.973
    23   6 C    3.980 --     7 C    0.996    17 C    0.974   131 H    0.958
                            21 C    0.947
    24   6 C    3.933 --    41 C    1.435     1 C    1.156    25 S    1.134
    25  16 S    2.642 --    26 C    1.136    24 C    1.134
    26   6 C    3.933 --    27 C    1.367    42 C    1.230    25 S    1.136
    27   6 C    3.953 --    26 C    1.367    41 C    1.220    28 C    1.093
    28   6 C    3.930 --    29 O    1.617    27 C    1.093    30 C    1.072
    29   8 O    2.072 --    28 C    1.617    84 S    0.152
    30   6 C    3.977 --    31 C    1.503    38 C    1.169    28 C    1.072
    31   6 C    3.935 --    30 C    1.503    34 S    1.178    32 C    1.038
    32   6 C    3.985 --    31 C    1.038    33 C    0.984   133 H    0.969
                           132 H    0.952
    33   6 C    3.986 --   135 H    0.987   134 H    0.987    32 C    0.984
                           136 H    0.981
    34  16 S    2.658 --    35 C    1.185    31 C    1.178
    35   6 C    3.945 --    38 C    1.497    34 S    1.185    36 C    1.038
    36   6 C    3.989 --    35 C    1.038    37 C    0.985   138 H    0.968
                           137 H    0.954
    37   6 C    3.987 --   141 H    0.987   139 H    0.987    36 C    0.985
                           140 H    0.982
    38   6 C    3.978 --    35 C    1.497    30 C    1.169    39 C    1.079
    39   6 C    3.930 --    40 O    1.666    38 C    1.079    41 C    1.042
    40   8 O    1.985 --    39 C    1.666
    41   6 C    3.964 --    24 C    1.435    27 C    1.220    39 C    1.042
    42   6 C    3.918 --    43 C    1.373    26 C    1.230    84 S    1.086
    43   6 C    3.966 --    42 C    1.373    52 C    1.313    44 C    1.032
    44   6 C    3.986 --    51 C    1.396    45 C    1.368    43 C    1.032
                            47 C    0.101
    45   6 C    3.987 --    46 C    1.451    44 C    1.368   142 H    0.970
                            48 C    0.105
    46   6 C    3.989 --    45 C    1.451    47 C    1.434   143 H    0.969
                            51 C    0.103
    47   6 C    3.983 --    46 C    1.434    48 C    1.409   144 H    0.968
                            44 C    0.101
    48   6 C    3.985 --    51 C    1.412    47 C    1.409    49 C    1.013
                            45 C    0.105
    49   6 C    3.995 --    48 C    1.013    50 C    0.999   145 H    0.974
                           146 H    0.972
    50   6 C    3.994 --    49 C    0.999   148 H    0.988   149 H    0.988
                           147 H    0.985
    51   6 C    3.983 --    48 C    1.412    44 C    1.396   150 H    0.966
                            46 C    0.103
    52   6 C    3.924 --    83 C    1.317    43 C    1.313    53 S    1.082
    53  16 S    2.500 --    54 C    1.108    52 C    1.082
    54   6 C    3.914 --    82 C    1.303    55 C    1.278    53 S    1.108
    55   6 C    3.949 --    54 C    1.278    80 C    1.262    56 C    1.172
    56   6 C    3.970 --    60 N    1.425    55 C    1.172    57 C    1.164
                            59 S    0.106
    57   6 C    3.970 --    58 N    1.425    61 C    1.172    56 C    1.164
                            59 S    0.105
    58   7 N    3.058 --    57 C    1.425    59 S    1.380    60 N    0.144
    59  16 S    3.094 --    60 N    1.381    58 N    1.380    56 C    0.106
                            57 C    0.105
    60   7 N    3.059 --    56 C    1.425    59 S    1.381    58 N    0.144
    61   6 C    3.948 --    62 C    1.289    79 C    1.249    57 C    1.172
    62   6 C    3.904 --    61 C    1.289    77 C    1.282    63 S    1.112
    63  16 S    2.516 --    62 C    1.112    64 C    1.088
    64   6 C    3.915 --    65 C    1.314    76 C    1.302    63 S    1.088
    65   6 C    3.925 --    74 C    1.355    64 C    1.314    66 C    1.049
    66   6 C    3.985 --    73 C    1.390    67 C    1.368    65 C    1.049
                            69 C    0.100
    67   6 C    3.986 --    68 C    1.455    66 C    1.368   151 H    0.970
                            70 C    0.104
    68   6 C    3.989 --    67 C    1.455    69 C    1.432   152 H    0.969
                            73 C    0.103
    69   6 C    3.980 --    68 C    1.432    70 C    1.409   153 H    0.968
                            66 C    0.100
    70   6 C    3.985 --    73 C    1.415    69 C    1.409    71 C    1.013
                            67 C    0.104
    71   6 C    3.994 --    70 C    1.013    72 C    1.000   154 H    0.974
                           155 H    0.971
    72   6 C    3.994 --    71 C    1.000   158 H    0.988   156 H    0.988
                           157 H    0.985
    73   6 C    3.982 --    70 C    1.415    66 C    1.390   159 H    0.964
                            68 C    0.103
    74   6 C    3.928 --    65 C    1.355    89 C    1.235    75 S    1.085
    75  16 S    2.596 --    76 C    1.132    74 C    1.085
    76   6 C    3.905 --    64 C    1.302    77 C    1.265    75 S    1.132
    77   6 C    3.933 --    62 C    1.282    76 C    1.265    78 N    1.165
    78   7 N    3.577 --    79 C    1.190    77 C    1.165    87 C    0.970
    79   6 C    3.920 --    61 C    1.249    80 C    1.228    78 N    1.190
    80   6 C    3.930 --    55 C    1.262    79 C    1.228    81 N    1.176
    81   7 N    3.557 --    80 C    1.176    82 C    1.167    85 C    0.967
    82   6 C    3.933 --    54 C    1.303    83 C    1.242    81 N    1.167
    83   6 C    3.943 --    52 C    1.317    82 C    1.242    84 S    1.141
    84  16 S    2.743 --    83 C    1.141    42 C    1.086    29 O    0.152
    85   6 C    3.943 --    86 C    1.005    81 N    0.967   161 H    0.961
                           160 H    0.951
    86   6 C    3.985 --    85 C    1.005   162 H    0.987   164 H    0.984
                           163 H    0.979
    87   6 C    3.947 --    88 C    1.006    78 N    0.970   165 H    0.961
                           166 H    0.959
    88   6 C    3.980 --    87 C    1.006   168 H    0.980   169 H    0.979
                           167 H    0.978
    89   6 C    3.918 --    74 C    1.235    90 C    1.222   100 C    1.215
    90   6 C    3.968 --    94 N    1.373    89 C    1.222    91 C    1.150
    91   6 C    3.962 --    92 N    1.375    95 C    1.225    90 C    1.150
    92   7 N    3.056 --    93 S    1.422    91 C    1.375    94 N    0.152
    93  16 S    3.136 --    94 N    1.426    92 N    1.422
    94   7 N    3.083 --    93 S    1.426    90 C    1.373    92 N    0.152
    95   6 C    3.920 --   101 C    1.234    91 C    1.225    96 C    1.222
    96   6 C    3.961 --    97 N    1.375    95 C    1.222   100 C    1.149
    97   7 N    3.048 --    98 S    1.417    96 C    1.375    99 N    0.155
    98  16 S    3.151 --    99 N    1.442    97 N    1.417
    99   7 N    3.065 --    98 S    1.442   100 C    1.375    97 N    0.155
   100   6 C    3.968 --    99 N    1.375    89 C    1.215    96 C    1.149
   101   6 C    3.940 --   102 C    1.530    95 C    1.234   170 H    0.945
   102   6 C    3.921 --   101 C    1.530   115 C    1.149   103 C    1.034
   103   6 C    3.908 --   104 O    1.710   105 C    1.034   102 C    1.034
   104   8 O    1.999 --   103 C    1.710
   105   6 C    3.967 --   106 C    1.360   114 C    1.274   103 C    1.034
   106   6 C    3.976 --   105 C    1.360   107 C    1.311   115 C    1.087
   107   6 C    3.982 --   108 C    1.531   106 C    1.311   171 H    0.960
   108   6 C    3.969 --   107 C    1.531   109 C    1.283   172 H    0.964
   109   6 C    3.978 --   110 C    1.284   108 C    1.283   114 C    1.228
   110   6 C    3.982 --   111 C    1.550   109 C    1.284   173 H    0.965
                           113 C    0.114
   111   6 C    3.970 --   110 C    1.550   112 C    1.319   174 H    0.968
   112   6 C    3.985 --   113 C    1.552   111 C    1.319   175 H    0.968
   113   6 C    3.975 --   112 C    1.552   114 C    1.280   176 H    0.964
                           110 C    0.114
   114   6 C    3.984 --   113 C    1.280   105 C    1.274   109 C    1.228
   115   6 C    3.966 --   116 C    1.462   102 C    1.149   106 C    1.087
   116   6 C    3.938 --   115 C    1.462   119 C    1.104   117 C    1.102
   117   6 C    3.940 --   118 N    2.742   116 C    1.102
   118   7 N    2.949 --   117 C    2.742
   119   6 C    3.940 --   120 N    2.745   116 C    1.104
   120   7 N    2.953 --   119 C    2.745
   121   1 H    0.991 --     1 C    0.942
   122   1 H    0.995 --     6 C    0.962
   123   1 H    0.996 --     9 C    0.959
   124   1 H    0.994 --    17 C    0.958
   125   1 H    0.998 --    18 C    0.970
   126   1 H    0.998 --    19 C    0.970
   127   1 H    0.997 --    20 C    0.970
   128   1 H    0.998 --    21 C    0.970
   129   1 H    0.999 --    22 C    0.973
   130   1 H    0.998 --    22 C    0.977
   131   1 H    0.993 --    23 C    0.958
   132   1 H    0.992 --    32 C    0.952
   133   1 H    0.994 --    32 C    0.969
   134   1 H    0.998 --    33 C    0.987
   135   1 H    0.997 --    33 C    0.987
   136   1 H    0.994 --    33 C    0.981
   137   1 H    0.996 --    36 C    0.954
   138   1 H    0.994 --    36 C    0.968
   139   1 H    0.997 --    37 C    0.987
   140   1 H    0.995 --    37 C    0.982
   141   1 H    0.998 --    37 C    0.987
   142   1 H    0.999 --    45 C    0.970
   143   1 H    0.997 --    46 C    0.969
   144   1 H    0.997 --    47 C    0.968
   145   1 H    0.997 --    49 C    0.974
   146   1 H    0.998 --    49 C    0.972
   147   1 H    0.997 --    50 C    0.985
   148   1 H    0.998 --    50 C    0.988
   149   1 H    0.998 --    50 C    0.988
   150   1 H    0.998 --    51 C    0.966
   151   1 H    0.999 --    67 C    0.970
   152   1 H    0.997 --    68 C    0.969
   153   1 H    0.997 --    69 C    0.968
   154   1 H    0.997 --    71 C    0.974
   155   1 H    0.997 --    71 C    0.971
   156   1 H    0.998 --    72 C    0.988
   157   1 H    0.997 --    72 C    0.985
   158   1 H    0.998 --    72 C    0.988
   159   1 H    0.997 --    73 C    0.964
   160   1 H    0.989 --    85 C    0.951
   161   1 H    0.992 --    85 C    0.961
   162   1 H    0.998 --    86 C    0.987
   163   1 H    0.994 --    86 C    0.979
   164   1 H    0.997 --    86 C    0.984
   165   1 H    0.991 --    87 C    0.961
   166   1 H    0.992 --    87 C    0.959
   167   1 H    0.996 --    88 C    0.978
   168   1 H    0.993 --    88 C    0.980
   169   1 H    0.995 --    88 C    0.979
   170   1 H    0.992 --   101 C    0.945
   171   1 H    0.996 --   107 C    0.960
   172   1 H    0.993 --   108 C    0.964
   173   1 H    0.995 --   110 C    0.965
   174   1 H    0.995 --   111 C    0.968
   175   1 H    0.996 --   112 C    0.968
   176   1 H    0.996 --   113 C    0.964
 ---------------------------------------------------------------------------

Topologies differ in bond orders
Writing corrected topology to xtbtopo.mol

molecular dipole:
                 x           y           z       tot (Debye)
 q only:       -6.414       2.390       0.520
   full:       -6.410       2.480       0.318      17.488
molecular quadrupole (traceless):
                xx          xy          yy          xz          yz          zz
 q only:     -139.167    -260.226      92.843     139.135      69.230      46.323
  q+dip:     -138.457    -246.085      78.377     139.175      76.703      60.079
   full:     -147.462    -246.548      70.437     143.246      87.202      77.025


           -------------------------------------------------
          | TOTAL ENERGY             -312.585763805586 Eh   |
          | GRADIENT NORM               0.045850302203 Eh/α |
          | HOMO-LUMO GAP               0.528680794938 eV   |
           -------------------------------------------------

------------------------------------------------------------------------
 * finished run on 2022/02/15 at 01:22:23.068     
------------------------------------------------------------------------
 total:
 * wall-time:     0 d,  0 h,  0 min,  0.701 sec
 *  cpu-time:     0 d,  0 h,  0 min,  5.518 sec
 * ratio c/w:     7.870 speedup
 SCF:
 * wall-time:     0 d,  0 h,  0 min,  0.620 sec
 *  cpu-time:     0 d,  0 h,  0 min,  4.940 sec
 * ratio c/w:     7.973 speedup

