      -----------------------------------------------------------      
     |                   =====================                   |     
     |                           x T B                           |     
     |                   =====================                   |     
     |                         S. Grimme                         |     
     |          Mulliken Center for Theoretical Chemistry        |     
     |                    University of Bonn                     |     
      -----------------------------------------------------------      

   * xtb version 6.4.1 (unknown) compiled by 'oda6@login1.crc.pitt.edu' on 2021-06-25

   xtb is free software: you can redistribute it and/or modify it under
   the terms of the GNU Lesser General Public License as published by
   the Free Software Foundation, either version 3 of the License, or
   (at your option) any later version.
   
   xtb is distributed in the hope that it will be useful,
   but WITHOUT ANY WARRANTY; without even the implied warranty of
   MERCHANTABILITY or FITNESS FOR A PARTICULAR PURPOSE.  See the
   GNU Lesser General Public License for more details.
   
   Cite this work as:
   * C. Bannwarth, E. Caldeweyher, S. Ehlert, A. Hansen, P. Pracht,
     J. Seibert, S. Spicher, S. Grimme, WIREs Comput. Mol. Sci., 2020, 11,
     e01493. DOI: 10.1002/wcms.1493
   
   for GFN2-xTB:
   * C. Bannwarth, S. Ehlert and S. Grimme., J. Chem. Theory Comput., 2019,
     15, 1652-1671. DOI: 10.1021/acs.jctc.8b01176
   for GFN1-xTB:
   * S. Grimme, C. Bannwarth, P. Shushkov, J. Chem. Theory Comput., 2017,
     13, 1989-2009. DOI: 10.1021/acs.jctc.7b00118
   for GFN0-xTB:
   * P. Pracht, E. Caldeweyher, S. Ehlert, S. Grimme, ChemRxiv, 2019, preprint.
     DOI: 10.26434/chemrxiv.8326202.v1
   for GFN-FF:
   * S. Spicher and S. Grimme, Angew. Chem. Int. Ed., 2020, 59, 15665-15673.
     DOI: 10.1002/anie.202004239
   
   for DFT-D4:
   * E. Caldeweyher, C. Bannwarth and S. Grimme, J. Chem. Phys., 2017,
     147, 034112. DOI: 10.1063/1.4993215
   * E. Caldeweyher, S. Ehlert, A. Hansen, H. Neugebauer, S. Spicher,
     C. Bannwarth and S. Grimme, J. Chem. Phys., 2019, 150, 154122.
     DOI: 10.1063/1.5090222
   * E. Caldeweyher, J.-M. Mewes, S. Ehlert and S. Grimme, Phys. Chem. Chem. Phys.
     2020, 22, 8499-8512. DOI: 10.1039/D0CP00502A
   
   for sTDA-xTB:
   * S. Grimme and C. Bannwarth, J. Chem. Phys., 2016, 145, 054103.
     DOI: 10.1063/1.4959605
   
   in the mass-spec context:
   * V. Asgeirsson, C. Bauer and S. Grimme, Chem. Sci., 2017, 8, 4879.
     DOI: 10.1039/c7sc00601b
   * J. Koopman and S. Grimme, ACS Omega 2019, 4, 12, 15120-15133.
     DOI: 10.1021/acsomega.9b02011
   
   for metadynamics refer to:
   * S. Grimme, J. Chem. Theory Comput., 2019, 155, 2847-2862
     DOI: 10.1021/acs.jctc.9b00143
   
   for SPH calculations refer to:
   * S. Spicher and S. Grimme, J. Chem. Theory Comput., 2021, 17, 1701-1714
     DOI: 10.1021/acs.jctc.0c01306
   
   with help from (in alphabetical order)
   P. Atkinson, C. Bannwarth, F. Bohle, G. Brandenburg, E. Caldeweyher
   M. Checinski, S. Dohm, S. Ehlert, S. Ehrlich, I. Gerasimov, J. Koopman
   C. Lavigne, S. Lehtola, F. März, M. Müller, F. Musil, H. Neugebauer
   J. Pisarek, C. Plett, P. Pracht, J. Seibert, P. Shushkov, S. Spicher
   M. Stahn, M. Steiner, T. Strunk, J. Stückrath, T. Rose, and J. Unsleber
   
 * started run on 2022/02/12 at 11:13:02.294     

           -------------------------------------------------
          |                Calculation Setup                |
           -------------------------------------------------

          program call               : /ihome/ghutchison/oda6/xtb/xtb-641/bin/xtb ../../GFN2_output/39_18_86_18_40.mol --sp --alpb water
          hostname                   : smp-n25
          coordinate file            : ../../GFN2_output/39_18_86_18_40.mol
          omp threads                :                     8
          number of atoms            :                   225
          number of electrons        :                   682
          charge                     :                     0
          spin                       :                   0.0
          first test random number   :      0.69316983126077

   ID    Z sym.   atoms
    1    6 C      1-3, 5-13, 15, 17-24, 26-28, 30-50, 52-62, 64-67, 71, 72,
                  74-84, 86, 87, 89, 90, 92, 93, 95-99, 101-103, 105-125,
                  127, 128, 130-132, 134, 137-139
    2    8 O      4, 29, 104, 140
    3    7 N      14, 16, 68, 70, 88, 91, 133, 135, 136
    4   16 S      25, 51, 63, 69, 73, 85, 94, 100, 126, 129
    5    1 H      141-225

           -------------------------------------------------
          |                 G F N 2 - x T B                 |
           -------------------------------------------------

        Reference                      10.1021/acs.jctc.8b01176
      * Hamiltonian:
        H0-scaling (s, p, d)           1.850000    2.230000    2.230000
        zeta-weighting                 0.500000
      * Dispersion:
        s8                             2.700000
        a1                             0.520000
        a2                             5.000000
        s9                             5.000000
      * Repulsion:
        kExp                           1.500000    1.000000
        rExp                           1.000000
      * Coulomb:
        alpha                          2.000000
        third order                    shell-resolved
        anisotropic                    true
        a3                             3.000000
        a5                             4.000000
        cn-shift                       1.200000
        cn-exp                         4.000000
        max-rad                        5.000000

      * Solvation model:               ALPB
        Solvent                        water
        Parameter file                 internal GFN2-xTB/ALPB
        Dielectric constant                8.0200E+01
        Reference state                gsolv [1 M gas/solution]
        Free energy shift                  1.0808E-03 Eh       6.7819E-01 kcal/mol
        Temperature                        2.9815E+02 K
        Density                            1.0000E+00 kg/L
        Solvent mass                       1.8000E+01 g/mol
        Interaction kernel             P16
        Born radius scaling (c1)           1.4744E+00
        Born radii integrator          GBOBC
        Born offset                        0.0000E+00 a0       0.0000E+00 AA
        H-bond correction              true
        Ion screening                  false
        Surface tension                    1.0000E-05 Eh       1.5569E+01 dyn/cm
        Grid points                               230 per atom

          ...................................................
          :                      SETUP                      :
          :.................................................:
          :  # basis functions                 705          :
          :  # atomic orbitals                 695          :
          :  # shells                          375          :
          :  # electrons                       682          :
          :  max. iterations                   250          :
          :  Hamiltonian                  GFN2-xTB          :
          :  restarted?                      false          :
          :  GBSA solvation                   true          :
          :  PC potential                    false          :
          :  electronic temp.          300.0000000     K    :
          :  accuracy                    1.0000000          :
          :  -> integral cutoff          0.2500000E+02      :
          :  -> integral neglect         0.1000000E-07      :
          :  -> SCF convergence          0.1000000E-05 Eh   :
          :  -> wf. convergence          0.1000000E-03 e    :
          :  Broyden damping             0.4000000          :
          ...................................................

 iter      E             dE          RMSdq      gap      omega  full diag
   1   -374.5094865 -0.374509E+03  0.435E+00    0.87       0.0  T
   2   -374.8052782 -0.295792E+00  0.258E+00    0.79       1.0  T
   3   -374.6895329  0.115745E+00  0.128E+00    0.75       1.0  T
   4   -374.8877571 -0.198224E+00  0.422E-01    0.85       1.0  T
   5   -374.9066293 -0.188722E-01  0.153E-01    0.76       1.0  T
   6   -374.9084813 -0.185199E-02  0.757E-02    0.80       1.0  T
   7   -374.9088764 -0.395125E-03  0.314E-02    0.79       1.0  T
   8   -374.9089189 -0.424584E-04  0.168E-02    0.80       1.0  T
   9   -374.9089331 -0.142426E-04  0.927E-03    0.79       1.0  T
  10   -374.9089381 -0.497793E-05  0.500E-03    0.79       1.3  T
  11   -374.9089394 -0.130274E-05  0.268E-03    0.79       2.5  T
  12   -374.9089397 -0.269372E-06  0.137E-03    0.79       4.8  T
  13   -374.9089398 -0.118205E-06  0.597E-04    0.79      11.2  T
  14   -374.9089398 -0.141593E-07  0.345E-04    0.79      19.3  T

   *** convergence criteria satisfied after 14 iterations ***

         #    Occupation            Energy/Eh            Energy/eV
      -------------------------------------------------------------
         1        2.0000           -0.7645961             -20.8057
       ...           ...                  ...                  ...
       335        2.0000           -0.3889020             -10.5826
       336        2.0000           -0.3875471             -10.5457
       337        2.0000           -0.3807722             -10.3613
       338        2.0000           -0.3758715             -10.2280
       339        2.0000           -0.3732271             -10.1560
       340        2.0000           -0.3648988              -9.9294
       341        2.0000           -0.3571481              -9.7185 (HOMO)
       342        0.0000           -0.3280725              -8.9273 (LUMO)
       343                         -0.3266200              -8.8878
       344                         -0.3168371              -8.6216
       345                         -0.3023070              -8.2262
       346                         -0.2931034              -7.9757
       ...                                ...                  ...
       695                          1.1577659              31.5044
      -------------------------------------------------------------
                  HL-Gap            0.0290757 Eh            0.7912 eV
             Fermi-level           -0.3427034 Eh           -9.3254 eV

 SCC (total)                   0 d,  0 h,  0 min,  0.868 sec
 SCC setup                      ...        0 min,  0.009 sec (  1.035%)
 Dispersion                     ...        0 min,  0.011 sec (  1.321%)
 classical contributions        ...        0 min,  0.000 sec (  0.048%)
 integral evaluation            ...        0 min,  0.044 sec (  5.085%)
 iterations                     ...        0 min,  0.649 sec ( 74.699%)
 molecular gradient             ...        0 min,  0.151 sec ( 17.340%)
 printout                       ...        0 min,  0.004 sec (  0.461%)

         :::::::::::::::::::::::::::::::::::::::::::::::::::::
         ::                     SUMMARY                     ::
         :::::::::::::::::::::::::::::::::::::::::::::::::::::
         :: total energy            -368.996964549137 Eh    ::
         :: total w/o Gsasa/hb      -368.971999615743 Eh    ::
         :: gradient norm              0.042300257964 Eh/a0 ::
         :: HOMO-LUMO gap              0.791189711724 eV    ::
         ::.................................................::
         :: SCC energy              -374.908939806075 Eh    ::
         :: -> isotropic ES            0.207995718356 Eh    ::
         :: -> anisotropic ES          0.025186813105 Eh    ::
         :: -> anisotropic XC          0.208957778560 Eh    ::
         :: -> dispersion             -0.357912820478 Eh    ::
         :: -> Gsolv                  -0.069567311049 Eh    ::
         ::    -> Gelec               -0.044602377655 Eh    ::
         ::    -> Gsasa               -0.018308071580 Eh    ::
         ::    -> Ghb                 -0.007737621512 Eh    ::
         ::    -> Gshift               0.001080759698 Eh    ::
         :: repulsion energy           5.910675590544 Eh    ::
         :: add. restraining           0.000000000000 Eh    ::
         :: total charge              -0.000000000310 e     ::
         :::::::::::::::::::::::::::::::::::::::::::::::::::::

           -------------------------------------------------
          |                Property Printout                |
           -------------------------------------------------

    * Orbital Energies and Occupations

         #    Occupation            Energy/Eh            Energy/eV
      -------------------------------------------------------------
         1        2.0000           -0.7645961             -20.8057
       ...           ...                  ...                  ...
       329        2.0000           -0.3979375             -10.8284
       330        2.0000           -0.3970662             -10.8047
       331        2.0000           -0.3958602             -10.7719
       332        2.0000           -0.3954023             -10.7594
       333        2.0000           -0.3939823             -10.7208
       334        2.0000           -0.3934725             -10.7069
       335        2.0000           -0.3889020             -10.5826
       336        2.0000           -0.3875471             -10.5457
       337        2.0000           -0.3807722             -10.3613
       338        2.0000           -0.3758715             -10.2280
       339        2.0000           -0.3732271             -10.1560
       340        2.0000           -0.3648988              -9.9294
       341        2.0000           -0.3571481              -9.7185 (HOMO)
       342        0.0000           -0.3280725              -8.9273 (LUMO)
       343                         -0.3266200              -8.8878
       344                         -0.3168371              -8.6216
       345                         -0.3023070              -8.2262
       346                         -0.2931034              -7.9757
       347                         -0.2921960              -7.9511
       348                         -0.2782700              -7.5721
       349                         -0.2633198              -7.1653
       350                         -0.2600571              -7.0765
       351                         -0.2564206              -6.9776
       352                         -0.2491070              -6.7785
       ...                                ...                  ...
       695                          1.1577659              31.5044
      -------------------------------------------------------------
                  HL-Gap            0.0290757 Eh            0.7912 eV
             Fermi-level           -0.3427034 Eh           -9.3254 eV

     #   Z          covCN         q      C6AA      α(0)
     1   6 C        2.918    -0.018    28.468     8.750
     2   6 C        3.006    -0.046    29.131     8.854
     3   6 C        2.878     0.226    23.258     7.906
     4   8 O        0.984    -0.414    21.900     6.277
     5   6 C        3.062    -0.023    28.521     8.758
     6   6 C        2.904    -0.026    28.645     8.776
     7   6 C        3.262     0.014    26.516     8.317
     8   6 C        3.253     0.013    26.658     8.354
     9   6 C        2.904    -0.034    28.842     8.806
    10   6 C        3.049     0.002    27.928     8.667
    11   6 C        3.024     0.034    27.211     8.556
    12   6 C        2.947    -0.005    28.152     8.702
    13   6 C        1.944     0.130    27.900     8.530
    14   7 N        0.911    -0.297    27.651     7.605
    15   6 C        1.945     0.133    27.826     8.519
    16   7 N        0.911    -0.293    27.553     7.592
    17   6 C        4.163    -0.024    20.923     6.497
    18   6 C        4.013    -0.016    20.782     6.476
    19   6 C        2.995    -0.044    29.082     8.846
    20   6 C        2.995    -0.043    29.058     8.843
    21   6 C        4.013    -0.016    20.781     6.476
    22   6 C        3.915    -0.062    21.634     6.611
    23   6 C        4.159    -0.022    20.883     6.490
    24   6 C        2.983     0.022    27.513     8.604
    25  16 S        2.375     0.015   140.439    19.946
    26   6 C        3.034     0.020    27.517     8.604
    27   6 C        3.017    -0.016    28.382     8.739
    28   6 C        3.049     0.147    24.772     8.163
    29   8 O        1.701    -0.270    18.481     5.804
    30   6 C        3.810     0.138    18.346     6.097
    31   6 C        2.979    -0.003    28.098     8.695
    32   6 C        2.921    -0.035    28.883     8.813
    33   6 C        2.926    -0.041    29.028     8.835
    34   6 C        2.971     0.015    27.669     8.628
    35   6 C        3.806    -0.065    21.745     6.638
    36   6 C        3.754    -0.107    22.596     6.778
    37   6 C        2.925    -0.041    29.020     8.834
    38   6 C        2.921    -0.039    28.980     8.828
    39   6 C        2.976    -0.011    28.291     8.725
    40   6 C        2.923    -0.033    28.833     8.806
    41   6 C        2.925    -0.040    28.984     8.829
    42   6 C        2.971     0.016    27.646     8.625
    43   6 C        3.806    -0.065    21.744     6.638
    44   6 C        3.754    -0.108    22.614     6.781
    45   6 C        2.926    -0.041    29.020     8.834
    46   6 C        2.920    -0.040    28.985     8.829
    47   6 C        3.129    -0.018    28.262     8.704
    48   6 C        3.079    -0.045    29.028     8.833
    49   6 C        3.069    -0.080    29.915     8.968
    50   6 C        3.048     0.033    27.218     8.557
    51  16 S        2.463    -0.021   141.933    20.051
    52   6 C        3.047     0.009    27.776     8.644
    53   6 C        3.102    -0.004    28.002     8.671
    54   6 C        2.973     0.010    27.795     8.648
    55   6 C        2.924    -0.038    28.953     8.824
    56   6 C        2.918    -0.034    28.845     8.807
    57   6 C        2.925    -0.041    29.010     8.833
    58   6 C        2.969     0.016    27.643     8.624
    59   6 C        3.807    -0.065    21.743     6.638
    60   6 C        3.753    -0.100    22.476     6.760
    61   6 C        2.932    -0.043    29.075     8.843
    62   6 C        3.182     0.011    27.341     8.535
    63  16 S        2.194    -0.061   143.566    20.166
    64   6 C        3.098     0.001    27.888     8.654
    65   6 C        3.074    -0.041    28.933     8.819
    66   6 C        3.335     0.068    24.157     7.786
    67   6 C        3.335     0.068    24.156     7.787
    68   7 N        1.853    -0.303    28.709     7.941
    69  16 S        2.678     0.288   129.873    19.181
    70   7 N        1.853    -0.303    28.699     7.940
    71   6 C        3.079    -0.042    28.961     8.823
    72   6 C        3.098    -0.000    27.909     8.658
    73  16 S        2.189    -0.066   143.816    20.184
    74   6 C        3.189     0.011    27.284     8.521
    75   6 C        3.105    -0.008    28.084     8.683
    76   6 C        2.974     0.009    27.812     8.651
    77   6 C        2.925    -0.039    28.970     8.827
    78   6 C        2.918    -0.034    28.848     8.808
    79   6 C        2.925    -0.040    28.990     8.830
    80   6 C        2.970     0.017    27.618     8.620
    81   6 C        3.807    -0.064    21.721     6.635
    82   6 C        3.754    -0.106    22.577     6.775
    83   6 C        2.931    -0.041    29.017     8.834
    84   6 C        3.025     0.008    27.813     8.651
    85  16 S        2.278    -0.040   142.691    20.105
    86   6 C        3.126     0.005    27.729     8.623
    87   6 C        3.268     0.029    26.107     8.243
    88   7 N        2.792    -0.024    21.718     6.921
    89   6 C        3.094     0.032    27.179     8.544
    90   6 C        3.100     0.032    27.166     8.541
    91   7 N        2.792    -0.028    21.779     6.931
    92   6 C        3.268     0.033    26.027     8.230
    93   6 C        3.130     0.010    27.589     8.599
    94  16 S        2.424    -0.022   141.945    20.052
    95   6 C        3.741    -0.009    20.818     6.510
    96   6 C        3.752    -0.126    22.981     6.836
    97   6 C        3.744    -0.016    20.936     6.527
    98   6 C        3.752    -0.124    22.940     6.830
    99   6 C        3.043     0.029    27.320     8.573
   100  16 S        2.279    -0.028   142.228    20.072
   101   6 C        3.024     0.019    27.566     8.612
   102   6 C        3.015     0.001    27.975     8.676
   103   6 C        3.026     0.143    24.858     8.178
   104   8 O        1.702    -0.276    18.581     5.820
   105   6 C        3.797     0.138    18.353     6.100
   106   6 C        2.983    -0.005    28.130     8.700
   107   6 C        2.921    -0.038    28.952     8.824
   108   6 C        2.926    -0.041    29.018     8.834
   109   6 C        2.971     0.016    27.659     8.627
   110   6 C        3.806    -0.065    21.745     6.638
   111   6 C        3.754    -0.107    22.612     6.781
   112   6 C        2.925    -0.041    29.027     8.835
   113   6 C        2.922    -0.034    28.848     8.808
   114   6 C        2.974    -0.007    28.197     8.710
   115   6 C        2.920    -0.039    28.976     8.827
   116   6 C        2.926    -0.042    29.041     8.837
   117   6 C        2.970     0.016    27.644     8.624
   118   6 C        3.806    -0.063    21.704     6.632
   119   6 C        3.753    -0.105    22.556     6.772
   120   6 C        2.925    -0.040    28.999     8.831
   121   6 C        2.924    -0.032    28.801     8.801
   122   6 C        3.149    -0.011    28.014     8.658
   123   6 C        3.089    -0.056    29.288     8.871
   124   6 C        3.074    -0.074    29.760     8.944
   125   6 C        2.988     0.030    27.326     8.575
   126  16 S        2.399    -0.014   141.640    20.031
   127   6 C        2.955    -0.028    28.695     8.786
   128   6 C        2.958    -0.013    28.338     8.731
   129  16 S        2.348    -0.034   142.444    20.087
   130   6 C        2.932     0.114    25.479     8.278
   131   6 C        2.999    -0.032    28.780     8.800
   132   6 C        1.938     0.127    27.977     8.542
   133   7 N        0.911    -0.287    27.404     7.571
   134   6 C        1.923     0.129    27.939     8.536
   135   7 N        0.911    -0.296    27.625     7.602
   136   7 N        2.840    -0.055    22.304     7.014
   137   6 C        3.744    -0.000    20.653     6.483
   138   6 C        3.752    -0.121    22.872     6.820
   139   6 C        2.898     0.272    22.426     7.765
   140   8 O        0.858    -0.464    23.010     6.431
   141   1 H        0.925     0.061     2.182     2.310
   142   1 H        0.926     0.070     2.090     2.261
   143   1 H        0.926     0.051     2.310     2.377
   144   1 H        0.925     0.052     2.297     2.370
   145   1 H        0.925     0.039     2.464     2.455
   146   1 H        0.926     0.042     2.418     2.431
   147   1 H        0.926     0.047     2.360     2.402
   148   1 H        0.925     0.047     2.358     2.401
   149   1 H        0.925     0.033     2.542     2.493
   150   1 H        0.925     0.044     2.390     2.418
   151   1 H        0.925     0.054     2.265     2.354
   152   1 H        0.926     0.041     2.437     2.441
   153   1 H        0.926     0.043     2.411     2.428
   154   1 H        0.924     0.046     2.370     2.408
   155   1 H        0.924     0.046     2.374     2.409
   156   1 H        0.925     0.046     2.376     2.411
   157   1 H        0.925     0.038     2.478     2.462
   158   1 H        0.925     0.037     2.485     2.465
   159   1 H        0.926     0.044     2.393     2.419
   160   1 H        0.926     0.035     2.521     2.483
   161   1 H        0.926     0.041     2.434     2.440
   162   1 H        0.926     0.045     2.385     2.415
   163   1 H        0.924     0.047     2.361     2.403
   164   1 H        0.924     0.045     2.386     2.415
   165   1 H        0.925     0.046     2.372     2.408
   166   1 H        0.925     0.040     2.445     2.445
   167   1 H        0.925     0.038     2.471     2.458
   168   1 H        0.926     0.042     2.423     2.434
   169   1 H        0.926     0.026     2.649     2.545
   170   1 H        0.926     0.058     2.218     2.329
   171   1 H        0.926     0.072     2.062     2.246
   172   1 H        0.926     0.040     2.449     2.447
   173   1 H        0.926     0.042     2.418     2.432
   174   1 H        0.926     0.043     2.411     2.428
   175   1 H        0.924     0.045     2.389     2.417
   176   1 H        0.924     0.047     2.360     2.402
   177   1 H        0.925     0.036     2.498     2.472
   178   1 H        0.925     0.036     2.509     2.477
   179   1 H        0.925     0.043     2.403     2.424
   180   1 H        0.926     0.039     2.456     2.451
   181   1 H        0.926     0.033     2.541     2.493
   182   1 H        0.926     0.041     2.431     2.438
   183   1 H        0.926     0.041     2.432     2.439
   184   1 H        0.924     0.044     2.402     2.424
   185   1 H        0.924     0.044     2.401     2.423
   186   1 H        0.925     0.038     2.472     2.459
   187   1 H        0.925     0.045     2.387     2.416
   188   1 H        0.925     0.039     2.457     2.451
   189   1 H        0.926     0.039     2.463     2.454
   190   1 H        0.924     0.082     1.962     2.191
   191   1 H        0.925     0.082     1.963     2.191
   192   1 H        0.925     0.056     2.252     2.347
   193   1 H        0.925     0.049     2.329     2.387
   194   1 H        0.925     0.072     2.060     2.245
   195   1 H        0.924     0.086     1.923     2.168
   196   1 H        0.925     0.085     1.927     2.171
   197   1 H        0.925     0.051     2.311     2.377
   198   1 H        0.925     0.047     2.356     2.400
   199   1 H        0.925     0.074     2.042     2.235
   200   1 H        0.926     0.040     2.443     2.444
   201   1 H        0.926     0.049     2.336     2.390
   202   1 H        0.924     0.047     2.362     2.403
   203   1 H        0.924     0.043     2.406     2.426
   204   1 H        0.925     0.038     2.482     2.464
   205   1 H        0.925     0.041     2.431     2.438
   206   1 H        0.925     0.045     2.385     2.415
   207   1 H        0.926     0.040     2.451     2.448
   208   1 H        0.926     0.029     2.598     2.521
   209   1 H        0.926     0.032     2.559     2.502
   210   1 H        0.926     0.046     2.375     2.410
   211   1 H        0.924     0.045     2.379     2.412
   212   1 H        0.924     0.046     2.365     2.405
   213   1 H        0.925     0.037     2.495     2.470
   214   1 H        0.925     0.039     2.467     2.456
   215   1 H        0.925     0.043     2.412     2.429
   216   1 H        0.926     0.045     2.384     2.415
   217   1 H        0.926     0.039     2.459     2.452
   218   1 H        0.926     0.067     2.116     2.275
   219   1 H        0.926     0.086     1.920     2.167
   220   1 H        0.925     0.097     1.809     2.103
   221   1 H        0.924     0.092     1.862     2.134
   222   1 H        0.924     0.067     2.124     2.279
   223   1 H        0.925     0.047     2.354     2.399
   224   1 H        0.925     0.060     2.198     2.319
   225   1 H        0.925     0.076     2.024     2.225

 Mol. C6AA /au·bohr⁶  :     834214.835777
 Mol. C8AA /au·bohr⁸  :   23139162.930410
 Mol. α(0) /au        :       1455.322711


Wiberg/Mayer (AO) data.
largest (>0.10) Wiberg bond orders for each atom

 ---------------------------------------------------------------------------
     #   Z sym  total        # sym  WBO       # sym  WBO       # sym  WBO
 ---------------------------------------------------------------------------
     1   6 C    3.937 --     2 C    1.454    24 C    1.333   141 H    0.942
     2   6 C    3.946 --     1 C    1.454    11 C    1.157     3 C    1.077
     3   6 C    3.909 --     4 O    1.664     2 C    1.077     5 C    1.031
     4   8 O    2.074 --     3 C    1.664    25 S    0.135
     5   6 C    3.968 --     6 C    1.381    10 C    1.308     3 C    1.031
     6   6 C    3.976 --     7 C    1.437     5 C    1.381   142 H    0.962
     7   6 C    3.953 --     6 C    1.437     8 C    1.327    23 C    0.993
     8   6 C    3.963 --     9 C    1.443     7 C    1.327    17 C    0.994
     9   6 C    3.975 --     8 C    1.443    10 C    1.369   143 H    0.959
    10   6 C    3.975 --     9 C    1.369     5 C    1.308    11 C    1.083
    11   6 C    3.957 --    12 C    1.451     2 C    1.157    10 C    1.083
    12   6 C    3.938 --    11 C    1.451    13 C    1.107    15 C    1.106
    13   6 C    3.938 --    14 N    2.733    12 C    1.107
    14   7 N    2.944 --    13 C    2.733
    15   6 C    3.938 --    16 N    2.740    12 C    1.106
    16   7 N    2.949 --    15 C    2.740
    17   6 C    3.983 --     8 C    0.994    23 C    0.974   144 H    0.960
                            18 C    0.950
    18   6 C    3.989 --    19 C    1.004    22 C    0.989   145 H    0.971
                            17 C    0.950
    19   6 C    3.981 --    20 C    1.924    18 C    1.004   146 H    0.971
    20   6 C    3.981 --    19 C    1.924    21 C    1.003   147 H    0.969
    21   6 C    3.987 --    20 C    1.003    22 C    0.989   148 H    0.970
                            23 C    0.950
    22   6 C    3.994 --    18 C    0.989    21 C    0.989   150 H    0.978
                           149 H    0.974
    23   6 C    3.982 --     7 C    0.993    17 C    0.974   151 H    0.959
                            21 C    0.950
    24   6 C    3.929 --     1 C    1.333    48 C    1.328    25 S    1.093
    25  16 S    2.738 --    26 C    1.185    24 C    1.093     4 O    0.135
    26   6 C    3.938 --    47 C    1.303    27 C    1.242    25 S    1.185
    27   6 C    3.906 --    28 C    1.311    26 C    1.242    51 S    1.110
    28   6 C    3.908 --    27 C    1.311    49 C    1.306    29 O    1.102
    29   8 O    2.252 --    28 C    1.102    30 C    0.907
    30   6 C    3.921 --    47 C    0.969    31 C    0.964    39 C    0.953
                            29 O    0.907
    31   6 C    3.980 --    32 C    1.414    38 C    1.407    30 C    0.964
                            34 C    0.106
    32   6 C    3.989 --    33 C    1.445    31 C    1.414   152 H    0.967
                            37 C    0.108
    33   6 C    3.990 --    32 C    1.445    34 C    1.412   153 H    0.968
                            38 C    0.109
    34   6 C    3.986 --    33 C    1.412    37 C    1.406    35 C    1.014
                            31 C    0.106
    35   6 C    3.996 --    34 C    1.014    36 C    1.000   155 H    0.973
                           154 H    0.973
    36   6 C    3.995 --    35 C    1.000   158 H    0.988   157 H    0.988
                           156 H    0.985
    37   6 C    3.990 --    38 C    1.452    34 C    1.406   159 H    0.968
                            32 C    0.108
    38   6 C    3.990 --    37 C    1.452    31 C    1.407   160 H    0.967
                            33 C    0.109
    39   6 C    3.975 --    46 C    1.417    40 C    1.406    30 C    0.953
                            42 C    0.106
    40   6 C    3.990 --    41 C    1.454    39 C    1.406   161 H    0.968
                            45 C    0.109
    41   6 C    3.989 --    40 C    1.454    42 C    1.405   162 H    0.968
                            46 C    0.107
    42   6 C    3.987 --    45 C    1.413    41 C    1.405    43 C    1.014
                            39 C    0.106
    43   6 C    3.996 --    42 C    1.014    44 C    0.999   164 H    0.973
                           163 H    0.973
    44   6 C    3.995 --    43 C    0.999   167 H    0.988   166 H    0.988
                           165 H    0.985
    45   6 C    3.990 --    46 C    1.443    42 C    1.413   168 H    0.968
                            40 C    0.109
    46   6 C    3.990 --    45 C    1.443    39 C    1.417   169 H    0.966
                            41 C    0.107
    47   6 C    3.955 --    48 C    1.451    26 C    1.303    30 C    0.969
    48   6 C    3.962 --    47 C    1.451    24 C    1.328   170 H    0.960
    49   6 C    3.955 --    50 C    1.436    28 C    1.306   171 H    0.953
    50   6 C    3.919 --    49 C    1.436    52 C    1.200    51 S    1.129
    51  16 S    2.561 --    50 C    1.129    27 C    1.110
    52   6 C    3.918 --    53 C    1.405    50 C    1.200    94 S    1.088
    53   6 C    3.956 --    52 C    1.405    62 C    1.267    54 C    1.051
    54   6 C    3.986 --    55 C    1.382    61 C    1.381    53 C    1.051
                            57 C    0.100
    55   6 C    3.984 --    56 C    1.447    54 C    1.382   172 H    0.966
                            58 C    0.103
    56   6 C    3.990 --    55 C    1.447    57 C    1.439   173 H    0.969
                            61 C    0.105
    57   6 C    3.981 --    56 C    1.439    58 C    1.403   174 H    0.968
                            54 C    0.100
    58   6 C    3.987 --    61 C    1.422    57 C    1.403    59 C    1.012
                            55 C    0.103
    59   6 C    3.995 --    58 C    1.012    60 C    1.001   175 H    0.975
                           176 H    0.970
    60   6 C    3.995 --    59 C    1.001   177 H    0.988   178 H    0.987
                           179 H    0.985
    61   6 C    3.985 --    58 C    1.422    54 C    1.381   180 H    0.967
                            56 C    0.105
    62   6 C    3.924 --    93 C    1.342    53 C    1.267    63 S    1.088
    63  16 S    2.501 --    64 C    1.105    62 C    1.088
    64   6 C    3.918 --    92 C    1.320    65 C    1.255    63 S    1.105
    65   6 C    3.957 --    90 C    1.276    64 C    1.255    66 C    1.178
    66   6 C    3.969 --    70 N    1.425    65 C    1.178    67 C    1.153
                            69 S    0.107
    67   6 C    3.969 --    68 N    1.427    71 C    1.175    66 C    1.153
                            69 S    0.108
    68   7 N    3.059 --    67 C    1.427    69 S    1.376    70 N    0.145
    69  16 S    3.086 --    68 N    1.376    70 N    1.376    67 C    0.108
                            66 C    0.107
    70   7 N    3.058 --    66 C    1.425    69 S    1.376    68 N    0.145
    71   6 C    3.955 --    89 C    1.276    72 C    1.260    67 C    1.175
    72   6 C    3.920 --    87 C    1.317    71 C    1.260    73 S    1.104
    73  16 S    2.503 --    72 C    1.104    74 C    1.090
    74   6 C    3.923 --    86 C    1.355    75 C    1.258    73 S    1.090
    75   6 C    3.959 --    84 C    1.435    74 C    1.258    76 C    1.044
    76   6 C    3.987 --    83 C    1.392    77 C    1.375    75 C    1.044
                            79 C    0.101
    77   6 C    3.988 --    78 C    1.450    76 C    1.375   181 H    0.969
                            80 C    0.104
    78   6 C    3.989 --    77 C    1.450    79 C    1.436   182 H    0.969
                            83 C    0.104
    79   6 C    3.982 --    78 C    1.436    80 C    1.408   183 H    0.969
                            76 C    0.101
    80   6 C    3.986 --    83 C    1.416    79 C    1.408    81 C    1.013
                            77 C    0.104
    81   6 C    3.995 --    80 C    1.013    82 C    1.000   185 H    0.975
                           184 H    0.972
    82   6 C    3.995 --    81 C    1.000   188 H    0.988   186 H    0.988
                           187 H    0.985
    83   6 C    3.984 --    80 C    1.416    76 C    1.392   189 H    0.965
                            78 C    0.104
    84   6 C    3.918 --    75 C    1.435    99 C    1.184    85 S    1.074
    85  16 S    2.540 --    86 C    1.117    84 C    1.074
    86   6 C    3.926 --    74 C    1.355    87 C    1.237    85 S    1.117
    87   6 C    3.942 --    72 C    1.317    86 C    1.237    88 N    1.162
    88   7 N    3.554 --    89 C    1.174    87 C    1.162    97 C    0.969
    89   6 C    3.941 --    71 C    1.276    90 C    1.224    88 N    1.174
    90   6 C    3.938 --    65 C    1.276    89 C    1.224    91 N    1.173
    91   7 N    3.544 --    90 C    1.173    92 C    1.153    95 C    0.967
    92   6 C    3.944 --    64 C    1.320    93 C    1.245    91 N    1.153
    93   6 C    3.926 --    62 C    1.342    92 C    1.245    94 S    1.121
    94  16 S    2.556 --    93 C    1.121    52 C    1.088
    95   6 C    3.951 --    96 C    1.007    91 N    0.967   190 H    0.962
                           191 H    0.962
    96   6 C    3.985 --    95 C    1.007   193 H    0.987   192 H    0.982
                           194 H    0.980
    97   6 C    3.947 --    98 C    1.007    88 N    0.969   195 H    0.959
                           196 H    0.954
    98   6 C    3.986 --    97 C    1.007   198 H    0.987   197 H    0.983
                           199 H    0.979
    99   6 C    3.909 --   123 C    1.444    84 C    1.184   100 S    1.124
   100  16 S    2.576 --    99 C    1.124   101 C    1.123
   101   6 C    3.927 --   122 C    1.388   102 C    1.216   100 S    1.123
   102   6 C    3.911 --   103 C    1.300   101 C    1.216   126 S    1.151
   103   6 C    3.921 --   124 C    1.345   102 C    1.300   104 O    1.096
   104   8 O    2.246 --   103 C    1.096   105 C    0.907
   105   6 C    3.920 --   122 C    0.976   114 C    0.955   106 C    0.951
                           104 O    0.907
   106   6 C    3.977 --   113 C    1.413   107 C    1.406   105 C    0.951
                           109 C    0.105
   107   6 C    3.988 --   108 C    1.451   106 C    1.406   200 H    0.966
                           112 C    0.109
   108   6 C    3.989 --   107 C    1.451   109 C    1.406   201 H    0.967
                           113 C    0.108
   109   6 C    3.985 --   112 C    1.411   108 C    1.406   110 C    1.014
                           106 C    0.105
   110   6 C    3.996 --   109 C    1.014   111 C    1.000   203 H    0.973
                           202 H    0.973
   111   6 C    3.995 --   110 C    1.000   204 H    0.988   205 H    0.988
                           206 H    0.985
   112   6 C    3.990 --   113 C    1.446   109 C    1.411   207 H    0.968
                           107 C    0.109
   113   6 C    3.991 --   112 C    1.446   106 C    1.413   208 H    0.969
                           108 C    0.108
   114   6 C    3.977 --   115 C    1.423   121 C    1.400   105 C    0.955
                           117 C    0.106
   115   6 C    3.990 --   116 C    1.438   114 C    1.423   209 H    0.965
                           120 C    0.107
   116   6 C    3.990 --   115 C    1.438   117 C    1.417   210 H    0.968
                           121 C    0.109
   117   6 C    3.986 --   116 C    1.417   120 C    1.401   118 C    1.013
                           114 C    0.106
   118   6 C    3.996 --   117 C    1.013   119 C    1.000   211 H    0.974
                           212 H    0.972
   119   6 C    3.995 --   118 C    1.000   213 H    0.988   214 H    0.988
                           215 H    0.984
   120   6 C    3.989 --   121 C    1.459   117 C    1.401   216 H    0.968
                           115 C    0.107
   121   6 C    3.990 --   120 C    1.459   114 C    1.400   217 H    0.968
                           116 C    0.109
   122   6 C    3.946 --   101 C    1.388   123 C    1.343   105 C    0.976
   123   6 C    3.958 --    99 C    1.444   122 C    1.343   218 H    0.955
   124   6 C    3.958 --   125 C    1.380   103 C    1.345   219 H    0.957
   125   6 C    3.928 --   124 C    1.380   127 C    1.282   126 S    1.099
   126  16 S    2.599 --   102 C    1.151   125 C    1.099
   127   6 C    3.950 --   128 C    1.522   125 C    1.282   220 H    0.940
   128   6 C    3.905 --   127 C    1.522   139 C    1.084   129 S    1.064
   129  16 S    2.541 --   130 C    1.101   128 C    1.064
   130   6 C    3.943 --   131 C    1.401   136 N    1.219   129 S    1.101
   131   6 C    3.927 --   130 C    1.401   134 C    1.120   132 C    1.107
   132   6 C    3.944 --   133 N    2.752   131 C    1.107
   133   7 N    2.971 --   132 C    2.752
   134   6 C    3.945 --   135 N    2.731   131 C    1.120
   135   7 N    2.965 --   134 C    2.731
   136   7 N    3.597 --   130 C    1.219   139 C    1.096   137 C    0.958
                           140 O    0.123
   137   6 C    3.944 --   138 C    1.007   222 H    0.962   221 H    0.960
                           136 N    0.958
   138   6 C    3.987 --   137 C    1.007   224 H    0.985   223 H    0.985
                           225 H    0.979
   139   6 C    3.917 --   140 O    1.631   136 N    1.096   128 C    1.084
   140   8 O    1.953 --   139 C    1.631   136 N    0.123
   141   1 H    0.995 --     1 C    0.942
   142   1 H    0.995 --     6 C    0.962
   143   1 H    0.997 --     9 C    0.959
   144   1 H    0.996 --    17 C    0.960
   145   1 H    0.998 --    18 C    0.971
   146   1 H    0.998 --    19 C    0.971
   147   1 H    0.998 --    20 C    0.969
   148   1 H    0.998 --    21 C    0.970
   149   1 H    0.999 --    22 C    0.974
   150   1 H    0.998 --    22 C    0.978
   151   1 H    0.995 --    23 C    0.959
   152   1 H    0.998 --    32 C    0.967
   153   1 H    0.998 --    33 C    0.968
   154   1 H    0.998 --    35 C    0.973
   155   1 H    0.998 --    35 C    0.973
   156   1 H    0.997 --    36 C    0.985
   157   1 H    0.999 --    36 C    0.988
   158   1 H    0.999 --    36 C    0.988
   159   1 H    0.998 --    37 C    0.968
   160   1 H    0.998 --    38 C    0.967
   161   1 H    0.998 --    40 C    0.968
   162   1 H    0.997 --    41 C    0.968
   163   1 H    0.997 --    43 C    0.973
   164   1 H    0.998 --    43 C    0.973
   165   1 H    0.997 --    44 C    0.985
   166   1 H    0.998 --    44 C    0.988
   167   1 H    0.999 --    44 C    0.988
   168   1 H    0.998 --    45 C    0.968
   169   1 H    0.999 --    46 C    0.966
   170   1 H    0.996 --    48 C    0.960
   171   1 H    0.994 --    49 C    0.953
   172   1 H    0.998 --    55 C    0.966
   173   1 H    0.997 --    56 C    0.969
   174   1 H    0.998 --    57 C    0.968
   175   1 H    0.998 --    59 C    0.975
   176   1 H    0.998 --    59 C    0.970
   177   1 H    0.999 --    60 C    0.988
   178   1 H    0.999 --    60 C    0.987
   179   1 H    0.997 --    60 C    0.985
   180   1 H    0.998 --    61 C    0.967
   181   1 H    0.998 --    77 C    0.969
   182   1 H    0.997 --    78 C    0.969
   183   1 H    0.998 --    79 C    0.969
   184   1 H    0.998 --    81 C    0.972
   185   1 H    0.998 --    81 C    0.975
   186   1 H    0.999 --    82 C    0.988
   187   1 H    0.997 --    82 C    0.985
   188   1 H    0.998 --    82 C    0.988
   189   1 H    0.998 --    83 C    0.965
   190   1 H    0.991 --    95 C    0.962
   191   1 H    0.993 --    95 C    0.962
   192   1 H    0.997 --    96 C    0.982
   193   1 H    0.998 --    96 C    0.987
   194   1 H    0.994 --    96 C    0.980
   195   1 H    0.992 --    97 C    0.959
   196   1 H    0.990 --    97 C    0.954
   197   1 H    0.997 --    98 C    0.983
   198   1 H    0.998 --    98 C    0.987
   199   1 H    0.994 --    98 C    0.979
   200   1 H    0.998 --   107 C    0.966
   201   1 H    0.997 --   108 C    0.967
   202   1 H    0.997 --   110 C    0.973
   203   1 H    0.998 --   110 C    0.973
   204   1 H    0.999 --   111 C    0.988
   205   1 H    0.998 --   111 C    0.988
   206   1 H    0.997 --   111 C    0.985
   207   1 H    0.998 --   112 C    0.968
   208   1 H    0.999 --   113 C    0.969
   209   1 H    0.999 --   115 C    0.965
   210   1 H    0.997 --   116 C    0.968
   211   1 H    0.998 --   118 C    0.974
   212   1 H    0.997 --   118 C    0.972
   213   1 H    0.999 --   119 C    0.988
   214   1 H    0.998 --   119 C    0.988
   215   1 H    0.997 --   119 C    0.984
   216   1 H    0.997 --   120 C    0.968
   217   1 H    0.998 --   121 C    0.968
   218   1 H    0.995 --   123 C    0.955
   219   1 H    0.992 --   124 C    0.957
   220   1 H    0.990 --   127 C    0.940
   221   1 H    0.991 --   137 C    0.960
   222   1 H    0.995 --   137 C    0.962
   223   1 H    0.998 --   138 C    0.985
   224   1 H    0.996 --   138 C    0.985
   225   1 H    0.993 --   138 C    0.979
 ---------------------------------------------------------------------------

Topologies differ in bond orders
Writing corrected topology to xtbtopo.mol

molecular dipole:
                 x           y           z       tot (Debye)
 q only:       -1.259       5.257      -4.630
   full:       -1.160       5.278      -4.263      17.494
molecular quadrupole (traceless):
                xx          xy          yy          xz          yz          zz
 q only:       27.571     202.212     -46.801      46.518     -35.954      19.230
  q+dip:       50.930     213.970     -63.033      51.063     -39.041      12.103
   full:       44.349     214.314     -63.279      46.895     -42.042      18.930


           -------------------------------------------------
          | TOTAL ENERGY             -368.996964549137 Eh   |
          | GRADIENT NORM               0.042300257964 Eh/α |
          | HOMO-LUMO GAP               0.791189711724 eV   |
           -------------------------------------------------

------------------------------------------------------------------------
 * finished run on 2022/02/12 at 11:13:03.276     
------------------------------------------------------------------------
 total:
 * wall-time:     0 d,  0 h,  0 min,  0.982 sec
 *  cpu-time:     0 d,  0 h,  0 min,  7.722 sec
 * ratio c/w:     7.865 speedup
 SCF:
 * wall-time:     0 d,  0 h,  0 min,  0.872 sec
 *  cpu-time:     0 d,  0 h,  0 min,  6.957 sec
 * ratio c/w:     7.976 speedup

