      -----------------------------------------------------------      
     |                   =====================                   |     
     |                           x T B                           |     
     |                   =====================                   |     
     |                         S. Grimme                         |     
     |          Mulliken Center for Theoretical Chemistry        |     
     |                    University of Bonn                     |     
      -----------------------------------------------------------      

   * xtb version 6.4.1 (unknown) compiled by 'oda6@login1.crc.pitt.edu' on 2021-06-25

   xtb is free software: you can redistribute it and/or modify it under
   the terms of the GNU Lesser General Public License as published by
   the Free Software Foundation, either version 3 of the License, or
   (at your option) any later version.
   
   xtb is distributed in the hope that it will be useful,
   but WITHOUT ANY WARRANTY; without even the implied warranty of
   MERCHANTABILITY or FITNESS FOR A PARTICULAR PURPOSE.  See the
   GNU Lesser General Public License for more details.
   
   Cite this work as:
   * C. Bannwarth, E. Caldeweyher, S. Ehlert, A. Hansen, P. Pracht,
     J. Seibert, S. Spicher, S. Grimme, WIREs Comput. Mol. Sci., 2020, 11,
     e01493. DOI: 10.1002/wcms.1493
   
   for GFN2-xTB:
   * C. Bannwarth, S. Ehlert and S. Grimme., J. Chem. Theory Comput., 2019,
     15, 1652-1671. DOI: 10.1021/acs.jctc.8b01176
   for GFN1-xTB:
   * S. Grimme, C. Bannwarth, P. Shushkov, J. Chem. Theory Comput., 2017,
     13, 1989-2009. DOI: 10.1021/acs.jctc.7b00118
   for GFN0-xTB:
   * P. Pracht, E. Caldeweyher, S. Ehlert, S. Grimme, ChemRxiv, 2019, preprint.
     DOI: 10.26434/chemrxiv.8326202.v1
   for GFN-FF:
   * S. Spicher and S. Grimme, Angew. Chem. Int. Ed., 2020, 59, 15665-15673.
     DOI: 10.1002/anie.202004239
   
   for DFT-D4:
   * E. Caldeweyher, C. Bannwarth and S. Grimme, J. Chem. Phys., 2017,
     147, 034112. DOI: 10.1063/1.4993215
   * E. Caldeweyher, S. Ehlert, A. Hansen, H. Neugebauer, S. Spicher,
     C. Bannwarth and S. Grimme, J. Chem. Phys., 2019, 150, 154122.
     DOI: 10.1063/1.5090222
   * E. Caldeweyher, J.-M. Mewes, S. Ehlert and S. Grimme, Phys. Chem. Chem. Phys.
     2020, 22, 8499-8512. DOI: 10.1039/D0CP00502A
   
   for sTDA-xTB:
   * S. Grimme and C. Bannwarth, J. Chem. Phys., 2016, 145, 054103.
     DOI: 10.1063/1.4959605
   
   in the mass-spec context:
   * V. Asgeirsson, C. Bauer and S. Grimme, Chem. Sci., 2017, 8, 4879.
     DOI: 10.1039/c7sc00601b
   * J. Koopman and S. Grimme, ACS Omega 2019, 4, 12, 15120-15133.
     DOI: 10.1021/acsomega.9b02011
   
   for metadynamics refer to:
   * S. Grimme, J. Chem. Theory Comput., 2019, 155, 2847-2862
     DOI: 10.1021/acs.jctc.9b00143
   
   for SPH calculations refer to:
   * S. Spicher and S. Grimme, J. Chem. Theory Comput., 2021, 17, 1701-1714
     DOI: 10.1021/acs.jctc.0c01306
   
   with help from (in alphabetical order)
   P. Atkinson, C. Bannwarth, F. Bohle, G. Brandenburg, E. Caldeweyher
   M. Checinski, S. Dohm, S. Ehlert, S. Ehrlich, I. Gerasimov, J. Koopman
   C. Lavigne, S. Lehtola, F. März, M. Müller, F. Musil, H. Neugebauer
   J. Pisarek, C. Plett, P. Pracht, J. Seibert, P. Shushkov, S. Spicher
   M. Stahn, M. Steiner, T. Strunk, J. Stückrath, T. Rose, and J. Unsleber
   
 * started run on 2022/02/19 at 09:42:06.374     

           -------------------------------------------------
          |                Calculation Setup                |
           -------------------------------------------------

          program call               : /ihome/ghutchison/oda6/xtb/xtb-641/bin/xtb ../../GFN2_output/39_28_86_135_16.mol --sp --alpb water
          hostname                   : smp-n9
          coordinate file            : ../../GFN2_output/39_28_86_135_16.mol
          omp threads                :                     8
          number of atoms            :                   216
          number of electrons        :                   650
          charge                     :                     0
          spin                       :                   0.0
          first test random number   :      0.63035443731589

   ID    Z sym.   atoms
    1    6 C      1-3, 5-13, 15, 17-25, 27-41, 43, 44, 46-60, 62-72, 74-77,
                  81, 82, 84-94, 96, 97, 99, 100, 102, 103, 105-110, 112-114,
                  116-119, 121-123, 125-127, 129, 132, 133
    2    8 O      4, 130, 131
    3    7 N      14, 16, 26, 45, 78, 80, 98, 101, 111, 124, 128
    4   16 S      42, 61, 73, 79, 83, 95, 104, 115, 120
    5    1 H      134-216

           -------------------------------------------------
          |                 G F N 2 - x T B                 |
           -------------------------------------------------

        Reference                      10.1021/acs.jctc.8b01176
      * Hamiltonian:
        H0-scaling (s, p, d)           1.850000    2.230000    2.230000
        zeta-weighting                 0.500000
      * Dispersion:
        s8                             2.700000
        a1                             0.520000
        a2                             5.000000
        s9                             5.000000
      * Repulsion:
        kExp                           1.500000    1.000000
        rExp                           1.000000
      * Coulomb:
        alpha                          2.000000
        third order                    shell-resolved
        anisotropic                    true
        a3                             3.000000
        a5                             4.000000
        cn-shift                       1.200000
        cn-exp                         4.000000
        max-rad                        5.000000

      * Solvation model:               ALPB
        Solvent                        water
        Parameter file                 internal GFN2-xTB/ALPB
        Dielectric constant                8.0200E+01
        Reference state                gsolv [1 M gas/solution]
        Free energy shift                  1.0808E-03 Eh       6.7819E-01 kcal/mol
        Temperature                        2.9815E+02 K
        Density                            1.0000E+00 kg/L
        Solvent mass                       1.8000E+01 g/mol
        Interaction kernel             P16
        Born radius scaling (c1)           1.4744E+00
        Born radii integrator          GBOBC
        Born offset                        0.0000E+00 a0       0.0000E+00 AA
        H-bond correction              true
        Ion screening                  false
        Surface tension                    1.0000E-05 Eh       1.5569E+01 dyn/cm
        Grid points                               230 per atom

          ...................................................
          :                      SETUP                      :
          :.................................................:
          :  # basis functions                 669          :
          :  # atomic orbitals                 660          :
          :  # shells                          358          :
          :  # electrons                       650          :
          :  max. iterations                   250          :
          :  Hamiltonian                  GFN2-xTB          :
          :  restarted?                      false          :
          :  GBSA solvation                   true          :
          :  PC potential                    false          :
          :  electronic temp.          300.0000000     K    :
          :  accuracy                    1.0000000          :
          :  -> integral cutoff          0.2500000E+02      :
          :  -> integral neglect         0.1000000E-07      :
          :  -> SCF convergence          0.1000000E-05 Eh   :
          :  -> wf. convergence          0.1000000E-03 e    :
          :  Broyden damping             0.4000000          :
          ...................................................

 iter      E             dE          RMSdq      gap      omega  full diag
   1   -356.8712206 -0.356871E+03  0.406E+00    0.60       0.0  T
   2   -357.1715493 -0.300329E+00  0.242E+00    0.79       1.0  T
   3   -357.0835554  0.879940E-01  0.120E+00    0.68       1.0  T
   4   -357.2391678 -0.155612E+00  0.447E-01    0.79       1.0  T
   5   -357.2664120 -0.272441E-01  0.151E-01    0.72       1.0  T
   6   -357.2682032 -0.179118E-02  0.744E-02    0.76       1.0  T
   7   -357.2685936 -0.390442E-03  0.326E-02    0.74       1.0  T
   8   -357.2686444 -0.507666E-04  0.175E-02    0.75       1.0  T
   9   -357.2686623 -0.179036E-04  0.103E-02    0.75       1.0  T
  10   -357.2686683 -0.605523E-05  0.576E-03    0.75       1.2  T
  11   -357.2686706 -0.224681E-05  0.312E-03    0.75       2.2  T
  12   -357.2686711 -0.469047E-06  0.181E-03    0.75       3.8  T
  13   -357.2686713 -0.236863E-06  0.824E-04    0.75       8.3  T
  14   -357.2686713 -0.580354E-07  0.425E-04    0.75      16.0  T

   *** convergence criteria satisfied after 14 iterations ***

         #    Occupation            Energy/Eh            Energy/eV
      -------------------------------------------------------------
         1        2.0000           -0.7600550             -20.6821
       ...           ...                  ...                  ...
       319        2.0000           -0.3870429             -10.5320
       320        2.0000           -0.3769486             -10.2573
       321        2.0000           -0.3762114             -10.2372
       322        2.0000           -0.3696338             -10.0582
       323        2.0000           -0.3607473              -9.8164
       324        2.0000           -0.3598260              -9.7914
       325        2.0000           -0.3507773              -9.5451 (HOMO)
       326        0.0000           -0.3232203              -8.7953 (LUMO)
       327        0.0000           -0.3222805              -8.7697
       328                         -0.3128616              -8.5134
       329                         -0.2984098              -8.1201
       330                         -0.2833616              -7.7107
       ...                                ...                  ...
       660                          1.1550336              31.4301
      -------------------------------------------------------------
                  HL-Gap            0.0275570 Eh            0.7499 eV
             Fermi-level           -0.3371490 Eh           -9.1743 eV

 SCC (total)                   0 d,  0 h,  0 min,  1.226 sec
 SCC setup                      ...        0 min,  0.008 sec (  0.630%)
 Dispersion                     ...        0 min,  0.012 sec (  1.002%)
 classical contributions        ...        0 min,  0.000 sec (  0.033%)
 integral evaluation            ...        0 min,  0.046 sec (  3.723%)
 iterations                     ...        0 min,  1.019 sec ( 83.104%)
 molecular gradient             ...        0 min,  0.136 sec ( 11.063%)
 printout                       ...        0 min,  0.005 sec (  0.439%)

         :::::::::::::::::::::::::::::::::::::::::::::::::::::
         ::                     SUMMARY                     ::
         :::::::::::::::::::::::::::::::::::::::::::::::::::::
         :: total energy            -351.637017033993 Eh    ::
         :: total w/o Gsasa/hb      -351.618369433189 Eh    ::
         :: gradient norm              0.041579692362 Eh/a0 ::
         :: HOMO-LUMO gap              0.749863076336 eV    ::
         ::.................................................::
         :: SCC energy              -357.268671346145 Eh    ::
         :: -> isotropic ES            0.205159493002 Eh    ::
         :: -> anisotropic ES          0.016022578362 Eh    ::
         :: -> anisotropic XC          0.197075294565 Eh    ::
         :: -> dispersion             -0.380524296649 Eh    ::
         :: -> Gsolv                  -0.064807135892 Eh    ::
         ::    -> Gelec               -0.046159535087 Eh    ::
         ::    -> Gsasa               -0.011751314264 Eh    ::
         ::    -> Ghb                 -0.007977046239 Eh    ::
         ::    -> Gshift               0.001080759698 Eh    ::
         :: repulsion energy           5.621301080732 Eh    ::
         :: add. restraining           0.000000000000 Eh    ::
         :: total charge              -0.000000000000 e     ::
         :::::::::::::::::::::::::::::::::::::::::::::::::::::

           -------------------------------------------------
          |                Property Printout                |
           -------------------------------------------------

    * Orbital Energies and Occupations

         #    Occupation            Energy/Eh            Energy/eV
      -------------------------------------------------------------
         1        2.0000           -0.7600550             -20.6821
       ...           ...                  ...                  ...
       313        2.0000           -0.3989380             -10.8557
       314        2.0000           -0.3962567             -10.7827
       315        2.0000           -0.3946505             -10.7390
       316        2.0000           -0.3917640             -10.6604
       317        2.0000           -0.3913876             -10.6502
       318        2.0000           -0.3892254             -10.5914
       319        2.0000           -0.3870429             -10.5320
       320        2.0000           -0.3769486             -10.2573
       321        2.0000           -0.3762114             -10.2372
       322        2.0000           -0.3696338             -10.0582
       323        2.0000           -0.3607473              -9.8164
       324        2.0000           -0.3598260              -9.7914
       325        2.0000           -0.3507773              -9.5451 (HOMO)
       326        0.0000           -0.3232203              -8.7953 (LUMO)
       327        0.0000           -0.3222805              -8.7697
       328                         -0.3128616              -8.5134
       329                         -0.2984098              -8.1201
       330                         -0.2833616              -7.7107
       331                         -0.2778307              -7.5602
       332                         -0.2734361              -7.4406
       333                         -0.2607380              -7.0950
       334                         -0.2503930              -6.8135
       335                         -0.2464764              -6.7070
       336                         -0.2463208              -6.7027
       ...                                ...                  ...
       660                          1.1550336              31.4301
      -------------------------------------------------------------
                  HL-Gap            0.0275570 Eh            0.7499 eV
             Fermi-level           -0.3371490 Eh           -9.1743 eV

     #   Z          covCN         q      C6AA      α(0)
     1   6 C        2.921    -0.019    28.473     8.750
     2   6 C        3.007    -0.052    29.278     8.876
     3   6 C        2.877     0.225    23.281     7.910
     4   8 O        0.964    -0.423    22.096     6.305
     5   6 C        3.061    -0.026    28.580     8.767
     6   6 C        2.904    -0.025    28.634     8.774
     7   6 C        3.260     0.011    26.606     8.334
     8   6 C        3.256     0.012    26.645     8.347
     9   6 C        2.905    -0.035    28.876     8.811
    10   6 C        3.050     0.001    27.946     8.670
    11   6 C        3.023     0.031    27.288     8.569
    12   6 C        2.947    -0.010    28.267     8.720
    13   6 C        1.952     0.132    27.845     8.522
    14   7 N        0.911    -0.301    27.752     7.619
    15   6 C        1.950     0.125    28.018     8.548
    16   7 N        0.911    -0.296    27.633     7.603
    17   6 C        4.162    -0.024    20.922     6.496
    18   6 C        4.013    -0.016    20.784     6.476
    19   6 C        2.995    -0.044    29.081     8.846
    20   6 C        2.995    -0.044    29.093     8.848
    21   6 C        4.013    -0.016    20.787     6.477
    22   6 C        3.915    -0.062    21.618     6.608
    23   6 C        4.160    -0.024    20.919     6.496
    24   6 C        2.986     0.005    27.893     8.663
    25   6 C        3.045     0.061    26.591     8.458
    26   7 N        2.748    -0.041    22.039     6.972
    27   6 C        2.933     0.057    26.732     8.479
    28   6 C        2.921    -0.042    29.047     8.838
    29   6 C        2.925    -0.041    29.008     8.832
    30   6 C        2.966     0.022    27.501     8.602
    31   6 C        3.758    -0.129    23.027     6.841
    32   6 C        2.925    -0.041    29.020     8.834
    33   6 C        2.920    -0.043    29.071     8.842
    34   6 C        2.926     0.055    26.761     8.484
    35   6 C        2.920    -0.049    29.215     8.864
    36   6 C        2.925    -0.043    29.079     8.843
    37   6 C        2.966     0.015    27.673     8.629
    38   6 C        3.758    -0.124    22.927     6.827
    39   6 C        2.926    -0.040    28.987     8.829
    40   6 C        2.920    -0.040    28.992     8.830
    41   6 C        3.148    -0.002    27.796     8.624
    42  16 S        2.231    -0.050   143.131    20.136
    43   6 C        3.026    -0.000    28.009     8.681
    44   6 C        3.050     0.049    26.855     8.499
    45   7 N        2.749    -0.075    22.694     7.075
    46   6 C        2.935     0.058    26.702     8.475
    47   6 C        2.922    -0.047    29.163     8.856
    48   6 C        2.926    -0.039    28.971     8.827
    49   6 C        2.966     0.016    27.660     8.627
    50   6 C        3.758    -0.118    22.816     6.810
    51   6 C        2.926    -0.041    29.031     8.836
    52   6 C        2.921    -0.047    29.165     8.856
    53   6 C        2.923     0.057    26.712     8.476
    54   6 C        2.922    -0.047    29.166     8.856
    55   6 C        2.926    -0.040    28.994     8.830
    56   6 C        2.965     0.009    27.816     8.651
    57   6 C        3.757    -0.107    22.591     6.776
    58   6 C        2.925    -0.042    29.056     8.840
    59   6 C        2.921    -0.052    29.302     8.877
    60   6 C        3.169     0.000    27.655     8.592
    61  16 S        2.318    -0.040   142.718    20.107
    62   6 C        3.027     0.007    27.833     8.654
    63   6 C        3.109    -0.011    28.149     8.692
    64   6 C        2.974     0.009    27.804     8.649
    65   6 C        2.923    -0.036    28.900     8.816
    66   6 C        2.918    -0.034    28.835     8.806
    67   6 C        2.924    -0.041    29.011     8.833
    68   6 C        2.967     0.014    27.702     8.633
    69   6 C        3.806    -0.063    21.712     6.633
    70   6 C        3.752    -0.093    22.341     6.740
    71   6 C        2.934    -0.043    29.080     8.844
    72   6 C        3.187     0.009    27.359     8.534
    73  16 S        2.192    -0.069   143.927    20.192
    74   6 C        3.102    -0.000    27.898     8.655
    75   6 C        3.083    -0.042    28.949     8.820
    76   6 C        3.336     0.069    24.126     7.780
    77   6 C        3.337     0.068    24.114     7.775
    78   7 N        1.853    -0.305    28.749     7.947
    79  16 S        2.679     0.278   130.238    19.208
    80   7 N        1.853    -0.306    28.779     7.951
    81   6 C        3.077    -0.043    28.976     8.825
    82   6 C        3.101     0.002    27.858     8.649
    83  16 S        2.184    -0.070   143.968    20.195
    84   6 C        3.193     0.009    27.306     8.521
    85   6 C        3.110    -0.008    28.071     8.680
    86   6 C        2.976     0.011    27.771     8.644
    87   6 C        2.924    -0.037    28.922     8.819
    88   6 C        2.918    -0.033    28.826     8.804
    89   6 C        2.925    -0.041    29.017     8.834
    90   6 C        2.969     0.014    27.686     8.631
    91   6 C        3.807    -0.063    21.701     6.632
    92   6 C        3.754    -0.089    22.262     6.728
    93   6 C        2.932    -0.040    28.991     8.830
    94   6 C        3.004     0.009    27.808     8.650
    95  16 S        2.292     0.001   141.028    19.987
    96   6 C        3.122     0.003    27.771     8.630
    97   6 C        3.255     0.030    26.238     8.284
    98   7 N        2.795    -0.026    21.756     6.928
    99   6 C        3.088     0.032    27.186     8.547
   100   6 C        3.083     0.031    27.229     8.554
   101   7 N        2.796    -0.021    21.655     6.912
   102   6 C        3.258     0.028    26.261     8.284
   103   6 C        3.133     0.002    27.768     8.626
   104  16 S        2.250    -0.039   142.654    20.102
   105   6 C        3.742    -0.013    20.875     6.518
   106   6 C        3.752    -0.123    22.929     6.829
   107   6 C        3.742    -0.011    20.840     6.513
   108   6 C        3.752    -0.126    22.979     6.836
   109   6 C        3.019     0.000    27.998     8.680
   110   6 C        3.212     0.064    25.943     8.290
   111   7 N        1.965    -0.237    27.013     7.707
   112   6 C        3.014     0.134    25.062     8.212
   113   6 C        3.821    -0.071    21.839     6.650
   114   6 C        3.755    -0.123    22.913     6.825
   115  16 S        2.241    -0.085   144.603    20.239
   116   6 C        2.999     0.010    27.788     8.647
   117   6 C        2.979    -0.013    28.334     8.731
   118   6 C        3.213     0.075    25.703     8.250
   119   6 C        2.994     0.002    27.964     8.674
   120  16 S        2.248    -0.058   143.441    20.158
   121   6 C        3.019     0.135    25.038     8.208
   122   6 C        3.823    -0.067    21.767     6.639
   123   6 C        3.754    -0.114    22.740     6.800
   124   7 N        1.943    -0.263    27.668     7.800
   125   6 C        2.913     0.005    27.913     8.663
   126   6 C        2.944    -0.027    28.679     8.783
   127   6 C        1.905     0.138    27.742     8.506
   128   7 N        0.911    -0.272    27.023     7.518
   129   6 C        2.736     0.367    20.780     7.463
   130   8 O        0.856    -0.474    23.208     6.459
   131   8 O        1.705    -0.279    18.630     5.828
   132   6 C        3.701     0.073    19.519     6.318
   133   6 C        3.750    -0.127    22.991     6.838
   134   1 H        0.925     0.057     2.230     2.335
   135   1 H        0.926     0.059     2.212     2.326
   136   1 H        0.926     0.050     2.315     2.379
   137   1 H        0.925     0.051     2.303     2.373
   138   1 H        0.925     0.040     2.445     2.445
   139   1 H        0.926     0.044     2.401     2.423
   140   1 H        0.926     0.044     2.390     2.417
   141   1 H        0.925     0.043     2.415     2.430
   142   1 H        0.925     0.032     2.554     2.499
   143   1 H        0.925     0.044     2.395     2.420
   144   1 H        0.925     0.053     2.283     2.363
   145   1 H        0.926     0.033     2.545     2.495
   146   1 H        0.926     0.054     2.274     2.358
   147   1 H        0.924     0.070     2.085     2.258
   148   1 H        0.925     0.060     2.201     2.320
   149   1 H        0.925     0.056     2.251     2.346
   150   1 H        0.926     0.053     2.287     2.365
   151   1 H        0.926     0.044     2.391     2.418
   152   1 H        0.926     0.031     2.566     2.505
   153   1 H        0.926     0.043     2.405     2.425
   154   1 H        0.925     0.063     2.163     2.300
   155   1 H        0.925     0.052     2.299     2.371
   156   1 H        0.925     0.055     2.258     2.350
   157   1 H        0.926     0.049     2.329     2.386
   158   1 H        0.926     0.054     2.268     2.355
   159   1 H        0.926     0.034     2.535     2.490
   160   1 H        0.926     0.037     2.496     2.470
   161   1 H        0.924     0.053     2.281     2.362
   162   1 H        0.925     0.052     2.300     2.371
   163   1 H        0.925     0.054     2.271     2.357
   164   1 H        0.926     0.041     2.439     2.442
   165   1 H        0.926     0.035     2.519     2.482
   166   1 H        0.926     0.032     2.554     2.499
   167   1 H        0.926     0.036     2.508     2.477
   168   1 H        0.925     0.034     2.524     2.484
   169   1 H        0.924     0.057     2.238     2.340
   170   1 H        0.925     0.041     2.437     2.441
   171   1 H        0.926     0.044     2.399     2.422
   172   1 H        0.926     0.034     2.526     2.485
   173   1 H        0.926     0.037     2.483     2.464
   174   1 H        0.926     0.039     2.457     2.451
   175   1 H        0.926     0.040     2.453     2.449
   176   1 H        0.924     0.049     2.333     2.389
   177   1 H        0.924     0.043     2.404     2.425
   178   1 H        0.925     0.042     2.422     2.434
   179   1 H        0.925     0.031     2.568     2.506
   180   1 H        0.925     0.027     2.630     2.536
   181   1 H        0.926     0.033     2.539     2.492
   182   1 H        0.926     0.043     2.413     2.429
   183   1 H        0.926     0.047     2.354     2.399
   184   1 H        0.926     0.044     2.400     2.422
   185   1 H        0.924     0.048     2.346     2.395
   186   1 H        0.924     0.044     2.396     2.420
   187   1 H        0.925     0.036     2.505     2.475
   188   1 H        0.925     0.012     2.855     2.643
   189   1 H        0.925     0.043     2.412     2.429
   190   1 H        0.925     0.019     2.752     2.594
   191   1 H        0.924     0.084     1.940     2.178
   192   1 H        0.924     0.081     1.969     2.195
   193   1 H        0.925     0.057     2.235     2.338
   194   1 H        0.925     0.043     2.405     2.425
   195   1 H        0.925     0.076     2.024     2.225
   196   1 H        0.925     0.084     1.942     2.179
   197   1 H        0.924     0.081     1.964     2.192
   198   1 H        0.925     0.047     2.352     2.398
   199   1 H        0.925     0.071     2.072     2.251
   200   1 H        0.925     0.053     2.281     2.362
   201   1 H        0.924     0.084     1.938     2.177
   202   1 H        0.924     0.084     1.942     2.180
   203   1 H        0.925     0.067     2.116     2.275
   204   1 H        0.925     0.060     2.194     2.316
   205   1 H        0.925     0.059     2.209     2.324
   206   1 H        0.924     0.075     2.029     2.228
   207   1 H        0.924     0.076     2.024     2.225
   208   1 H        0.925     0.049     2.330     2.387
   209   1 H        0.925     0.068     2.106     2.269
   210   1 H        0.925     0.056     2.249     2.345
   211   1 H        0.925     0.079     1.987     2.205
   212   1 H        0.924     0.060     2.196     2.317
   213   1 H        0.924     0.082     1.958     2.188
   214   1 H        0.925     0.075     2.030     2.228
   215   1 H        0.925     0.064     2.158     2.297
   216   1 H        0.925     0.053     2.281     2.362

 Mol. C6AA /au·bohr⁶  :     752693.989140
 Mol. C8AA /au·bohr⁸  :   20698938.819789
 Mol. α(0) /au        :       1381.596120


Wiberg/Mayer (AO) data.
largest (>0.10) Wiberg bond orders for each atom

 ---------------------------------------------------------------------------
     #   Z sym  total        # sym  WBO       # sym  WBO       # sym  WBO
 ---------------------------------------------------------------------------
     1   6 C    3.949 --     2 C    1.418    24 C    1.379   134 H    0.933
     2   6 C    3.951 --     1 C    1.418    11 C    1.178     3 C    1.082
     3   6 C    3.904 --     4 O    1.662     2 C    1.082     5 C    1.028
     4   8 O    2.056 --     3 C    1.662    61 S    0.123
     5   6 C    3.969 --     6 C    1.383    10 C    1.312     3 C    1.028
     6   6 C    3.978 --     7 C    1.437     5 C    1.383   135 H    0.964
     7   6 C    3.954 --     6 C    1.437     8 C    1.329    23 C    0.993
     8   6 C    3.965 --     9 C    1.442     7 C    1.329    17 C    0.994
     9   6 C    3.974 --     8 C    1.442    10 C    1.371   136 H    0.959
    10   6 C    3.976 --     9 C    1.371     5 C    1.312    11 C    1.081
    11   6 C    3.967 --    12 C    1.433     2 C    1.178    10 C    1.081
    12   6 C    3.946 --    11 C    1.433    15 C    1.113    13 C    1.110
    13   6 C    3.937 --    14 N    2.732    12 C    1.110
    14   7 N    2.943 --    13 C    2.732
    15   6 C    3.940 --    16 N    2.717    12 C    1.113
    16   7 N    2.949 --    15 C    2.717
    17   6 C    3.984 --     8 C    0.994    23 C    0.975   137 H    0.960
                            18 C    0.950
    18   6 C    3.989 --    19 C    1.004    22 C    0.989   138 H    0.971
                            17 C    0.950
    19   6 C    3.981 --    20 C    1.924    18 C    1.004   139 H    0.970
    20   6 C    3.981 --    19 C    1.924    21 C    1.004   140 H    0.970
    21   6 C    3.988 --    20 C    1.004    22 C    0.989   141 H    0.970
                            23 C    0.950
    22   6 C    3.994 --    18 C    0.989    21 C    0.989   143 H    0.978
                           142 H    0.974
    23   6 C    3.982 --     7 C    0.993    17 C    0.975   144 H    0.960
                            21 C    0.950
    24   6 C    3.927 --     1 C    1.379    25 C    1.243    61 S    1.071
    25   6 C    3.948 --    41 C    1.265    24 C    1.243    26 N    1.179
    26   7 N    3.543 --    25 C    1.179    34 C    1.032    27 C    1.024
    27   6 C    3.955 --    33 C    1.374    28 C    1.365    26 N    1.024
    28   6 C    3.982 --    29 C    1.460    27 C    1.365   145 H    0.968
                            32 C    0.102
    29   6 C    3.988 --    28 C    1.460    30 C    1.398   146 H    0.967
                            33 C    0.103
    30   6 C    3.970 --    32 C    1.401    29 C    1.398    31 C    1.031
    31   6 C    3.992 --    30 C    1.031   149 H    0.982   148 H    0.976
                           147 H    0.962
    32   6 C    3.988 --    33 C    1.457    30 C    1.401   150 H    0.967
                            28 C    0.102
    33   6 C    3.972 --    32 C    1.457    27 C    1.374   151 H    0.967
                            29 C    0.103
    34   6 C    3.958 --    35 C    1.369    40 C    1.366    26 N    1.032
    35   6 C    3.985 --    36 C    1.459    34 C    1.369   152 H    0.968
                            39 C    0.106
    36   6 C    3.988 --    35 C    1.459    37 C    1.399   153 H    0.967
    37   6 C    3.976 --    39 C    1.402    36 C    1.399    38 C    1.029
    38   6 C    3.993 --    37 C    1.029   155 H    0.985   154 H    0.971
                           156 H    0.968
    39   6 C    3.990 --    40 C    1.456    37 C    1.402   157 H    0.968
                            35 C    0.106
    40   6 C    3.980 --    39 C    1.456    34 C    1.366   158 H    0.965
    41   6 C    3.936 --    60 C    1.348    25 C    1.265    42 S    1.096
    42  16 S    2.532 --    41 C    1.096    43 C    1.093
    43   6 C    3.892 --    44 C    1.413    62 C    1.116    42 S    1.093
    44   6 C    3.958 --    43 C    1.413    60 C    1.215    45 N    1.104
    45   7 N    3.490 --    44 C    1.104    53 C    1.052    46 C    1.028
    46   6 C    3.964 --    52 C    1.377    47 C    1.370    45 N    1.028
    47   6 C    3.987 --    48 C    1.456    46 C    1.370   159 H    0.962
                            51 C    0.103
    48   6 C    3.990 --    47 C    1.456    49 C    1.402   160 H    0.969
                            52 C    0.105
    49   6 C    3.977 --    51 C    1.403    48 C    1.402    50 C    1.028
    50   6 C    3.995 --    49 C    1.028   162 H    0.983   163 H    0.979
                           161 H    0.966
    51   6 C    3.990 --    52 C    1.456    49 C    1.403   164 H    0.968
                            47 C    0.103
    52   6 C    3.985 --    51 C    1.456    46 C    1.377   165 H    0.968
                            48 C    0.105
    53   6 C    3.963 --    59 C    1.371    54 C    1.359    45 N    1.052
    54   6 C    3.987 --    55 C    1.468    53 C    1.359   166 H    0.966
                            58 C    0.102
    55   6 C    3.990 --    54 C    1.468    56 C    1.393   167 H    0.969
                            59 C    0.103
    56   6 C    3.982 --    58 C    1.410    55 C    1.393    57 C    1.026
    57   6 C    3.996 --    56 C    1.026   170 H    0.982   168 H    0.978
                           169 H    0.967
    58   6 C    3.989 --    59 C    1.448    56 C    1.410   171 H    0.964
                            54 C    0.102
    59   6 C    3.987 --    58 C    1.448    53 C    1.371   172 H    0.968
                            55 C    0.103
    60   6 C    3.940 --    41 C    1.348    44 C    1.215    61 S    1.131
    61  16 S    2.679 --    60 C    1.131    24 C    1.071     4 O    0.123
    62   6 C    3.914 --    63 C    1.467    43 C    1.116   104 S    1.083
    63   6 C    3.970 --    62 C    1.467    72 C    1.238    64 C    1.055
    64   6 C    3.987 --    71 C    1.384    65 C    1.379    63 C    1.055
    65   6 C    3.988 --    66 C    1.449    64 C    1.379   173 H    0.963
                            68 C    0.103
    66   6 C    3.990 --    65 C    1.449    67 C    1.436   174 H    0.970
                            71 C    0.106
    67   6 C    3.982 --    66 C    1.436    68 C    1.404   175 H    0.968
    68   6 C    3.987 --    71 C    1.422    67 C    1.404    69 C    1.011
                            65 C    0.103
    69   6 C    3.996 --    68 C    1.011    70 C    1.005   177 H    0.977
                           176 H    0.966
    70   6 C    3.996 --    69 C    1.005   180 H    0.986   179 H    0.986
                           178 H    0.986
    71   6 C    3.988 --    68 C    1.422    64 C    1.384   181 H    0.964
                            66 C    0.106
    72   6 C    3.925 --   103 C    1.372    63 C    1.238    73 S    1.093
    73  16 S    2.508 --    74 C    1.101    72 C    1.093
    74   6 C    3.929 --   102 C    1.322    75 C    1.259    73 S    1.101
    75   6 C    3.957 --   100 C    1.275    74 C    1.259    76 C    1.178
    76   6 C    3.970 --    80 N    1.424    75 C    1.178    77 C    1.153
                            79 S    0.108
    77   6 C    3.970 --    78 N    1.424    81 C    1.179    76 C    1.153
                            79 S    0.107
    78   7 N    3.057 --    77 C    1.424    79 S    1.374    80 N    0.146
    79  16 S    3.081 --    78 N    1.374    80 N    1.373    76 C    0.108
                            77 C    0.107
    80   7 N    3.056 --    76 C    1.424    79 S    1.373    78 N    0.146
    81   6 C    3.958 --    99 C    1.280    82 C    1.254    77 C    1.179
    82   6 C    3.924 --    97 C    1.327    81 C    1.254    83 S    1.105
    83  16 S    2.500 --    82 C    1.105    84 C    1.089
    84   6 C    3.921 --    96 C    1.348    85 C    1.262    83 S    1.089
    85   6 C    3.954 --    94 C    1.438    84 C    1.262    86 C    1.046
    86   6 C    3.988 --    93 C    1.386    87 C    1.379    85 C    1.046
                            89 C    0.101
    87   6 C    3.986 --    88 C    1.449    86 C    1.379   182 H    0.967
                            90 C    0.104
    88   6 C    3.989 --    87 C    1.449    89 C    1.438   183 H    0.969
                            93 C    0.106
    89   6 C    3.983 --    88 C    1.438    90 C    1.406   184 H    0.968
                            86 C    0.101
    90   6 C    3.987 --    93 C    1.421    89 C    1.406    91 C    1.012
                            87 C    0.104
    91   6 C    3.995 --    90 C    1.012    92 C    1.002   185 H    0.976
                           186 H    0.969
    92   6 C    3.996 --    91 C    1.002   187 H    0.988   188 H    0.987
                           189 H    0.985
    93   6 C    3.989 --    90 C    1.421    86 C    1.386   190 H    0.967
                            88 C    0.106
    94   6 C    3.919 --    85 C    1.438   109 C    1.139    95 S    1.101
    95  16 S    2.605 --    96 C    1.132    94 C    1.101
    96   6 C    3.929 --    84 C    1.348    97 C    1.235    95 S    1.132
    97   6 C    3.943 --    82 C    1.327    96 C    1.235    98 N    1.153
    98   7 N    3.548 --    99 C    1.174    97 C    1.153   107 C    0.968
    99   6 C    3.940 --    81 C    1.280   100 C    1.217    98 N    1.174
   100   6 C    3.943 --    75 C    1.275    99 C    1.217   101 N    1.178
   101   7 N    3.566 --   100 C    1.178   102 C    1.167   105 C    0.971
   102   6 C    3.943 --    74 C    1.322   103 C    1.227   101 N    1.167
   103   6 C    3.936 --    72 C    1.372   102 C    1.227   104 S    1.116
   104  16 S    2.556 --   103 C    1.116    62 C    1.083
   105   6 C    3.949 --   106 C    1.009   101 N    0.971   191 H    0.958
                           192 H    0.950
   106   6 C    3.985 --   105 C    1.009   194 H    0.980   193 H    0.980
                           195 H    0.979
   107   6 C    3.950 --   108 C    1.006    98 N    0.968   197 H    0.963
                           196 H    0.958
   108   6 C    3.985 --   107 C    1.006   198 H    0.987   200 H    0.983
                           199 H    0.980
   109   6 C    3.940 --   119 C    1.318   110 C    1.262    94 C    1.139
   110   6 C    3.965 --   116 C    1.282   109 C    1.262   111 N    1.190
   111   7 N    3.159 --   112 C    1.664   110 C    1.190   115 S    0.143
   112   6 C    3.924 --   111 N    1.664   115 S    1.065   113 C    1.034
   113   6 C    3.986 --   112 C    1.034   114 C    1.011   202 H    0.947
                           201 H    0.942
   114   6 C    3.988 --   113 C    1.011   205 H    0.986   204 H    0.985
                           203 H    0.983
   115  16 S    2.545 --   116 C    1.133   112 C    1.065   111 N    0.143
   116   6 C    3.950 --   117 C    1.304   110 C    1.282   115 S    1.133
   117   6 C    3.951 --   116 C    1.304   118 C    1.245   125 C    1.183
   118   6 C    3.969 --   119 C    1.273   117 C    1.245   124 N    1.208
   119   6 C    3.946 --   109 C    1.318   118 C    1.273   120 S    1.124
   120  16 S    2.583 --   119 C    1.124   121 C    1.100   124 N    0.151
   121   6 C    3.936 --   124 N    1.640   120 S    1.100   122 C    1.031
   122   6 C    3.987 --   121 C    1.031   123 C    0.990   207 H    0.964
                           206 H    0.956
   123   6 C    3.984 --   122 C    0.990   208 H    0.988   210 H    0.985
                           209 H    0.982
   124   7 N    3.140 --   121 C    1.640   118 C    1.208   120 S    0.151
   125   6 C    3.964 --   126 C    1.597   117 C    1.183   211 H    0.949
   126   6 C    3.934 --   125 C    1.597   127 C    1.117   129 C    0.992
   127   6 C    3.943 --   128 N    2.757   126 C    1.117
   128   7 N    2.974 --   127 C    2.757
   129   6 C    3.912 --   130 O    1.670   131 O    1.148   126 C    0.992
   130   8 O    1.983 --   129 C    1.670   131 O    0.166
   131   8 O    2.304 --   129 C    1.148   132 C    0.921   130 O    0.166
   132   6 C    3.906 --   133 C    1.011   212 H    0.969   213 H    0.969
                           131 O    0.921
   133   6 C    3.986 --   132 C    1.011   216 H    0.986   215 H    0.985
                           214 H    0.980
   134   1 H    0.995 --     1 C    0.933
   135   1 H    0.996 --     6 C    0.964
   136   1 H    0.997 --     9 C    0.959
   137   1 H    0.996 --    17 C    0.960
   138   1 H    0.998 --    18 C    0.971
   139   1 H    0.998 --    19 C    0.970
   140   1 H    0.998 --    20 C    0.970
   141   1 H    0.998 --    21 C    0.970
   142   1 H    0.999 --    22 C    0.974
   143   1 H    0.998 --    22 C    0.978
   144   1 H    0.995 --    23 C    0.960
   145   1 H    0.999 --    28 C    0.968
   146   1 H    0.996 --    29 C    0.967
   147   1 H    0.993 --    31 C    0.962
   148   1 H    0.995 --    31 C    0.976
   149   1 H    0.996 --    31 C    0.982
   150   1 H    0.997 --    32 C    0.967
   151   1 H    0.998 --    33 C    0.967
   152   1 H    0.999 --    35 C    0.968
   153   1 H    0.997 --    36 C    0.967
   154   1 H    0.995 --    38 C    0.971
   155   1 H    0.997 --    38 C    0.985
   156   1 H    0.995 --    38 C    0.968
   157   1 H    0.997 --    39 C    0.968
   158   1 H    0.997 --    40 C    0.965
   159   1 H    0.999 --    47 C    0.962
   160   1 H    0.998 --    48 C    0.969
   161   1 H    0.996 --    50 C    0.966
   162   1 H    0.997 --    50 C    0.983
   163   1 H    0.996 --    50 C    0.979
   164   1 H    0.998 --    51 C    0.968
   165   1 H    0.999 --    52 C    0.968
   166   1 H    0.999 --    54 C    0.966
   167   1 H    0.998 --    55 C    0.969
   168   1 H    0.998 --    57 C    0.978
   169   1 H    0.995 --    57 C    0.967
   170   1 H    0.998 --    57 C    0.982
   171   1 H    0.998 --    58 C    0.964
   172   1 H    0.999 --    59 C    0.968
   173   1 H    0.998 --    65 C    0.963
   174   1 H    0.997 --    66 C    0.970
   175   1 H    0.998 --    67 C    0.968
   176   1 H    0.997 --    69 C    0.966
   177   1 H    0.998 --    69 C    0.977
   178   1 H    0.998 --    70 C    0.986
   179   1 H    0.999 --    70 C    0.986
   180   1 H    0.999 --    70 C    0.986
   181   1 H    0.999 --    71 C    0.964
   182   1 H    0.998 --    87 C    0.967
   183   1 H    0.997 --    88 C    0.969
   184   1 H    0.998 --    89 C    0.968
   185   1 H    0.997 --    91 C    0.976
   186   1 H    0.998 --    91 C    0.969
   187   1 H    0.999 --    92 C    0.988
   188   1 H    1.000 --    92 C    0.987
   189   1 H    0.997 --    92 C    0.985
   190   1 H    1.000 --    93 C    0.967
   191   1 H    0.992 --   105 C    0.958
   192   1 H    0.990 --   105 C    0.950
   193   1 H    0.996 --   106 C    0.980
   194   1 H    0.998 --   106 C    0.980
   195   1 H    0.993 --   106 C    0.979
   196   1 H    0.992 --   107 C    0.958
   197   1 H    0.991 --   107 C    0.963
   198   1 H    0.998 --   108 C    0.987
   199   1 H    0.994 --   108 C    0.980
   200   1 H    0.997 --   108 C    0.983
   201   1 H    0.988 --   113 C    0.942
   202   1 H    0.989 --   113 C    0.947
   203   1 H    0.995 --   114 C    0.983
   204   1 H    0.996 --   114 C    0.985
   205   1 H    0.996 --   114 C    0.986
   206   1 H    0.991 --   122 C    0.956
   207   1 H    0.994 --   122 C    0.964
   208   1 H    0.998 --   123 C    0.988
   209   1 H    0.994 --   123 C    0.982
   210   1 H    0.997 --   123 C    0.985
   211   1 H    0.992 --   125 C    0.949
   212   1 H    0.996 --   132 C    0.969
   213   1 H    0.993 --   132 C    0.969
   214   1 H    0.994 --   133 C    0.980
   215   1 H    0.996 --   133 C    0.985
   216   1 H    0.997 --   133 C    0.986
 ---------------------------------------------------------------------------

Topologies differ in bond orders
Writing corrected topology to xtbtopo.mol

molecular dipole:
                 x           y           z       tot (Debye)
 q only:        0.167       1.215      -2.014
   full:       -0.117       0.958      -1.632       4.820
molecular quadrupole (traceless):
                xx          xy          yy          xz          yz          zz
 q only:      -58.574      70.315      15.339     -70.077     -47.123      43.235
  q+dip:      -59.730      97.822      15.895     -58.347     -31.951      43.835
   full:      -58.654     101.052       8.525     -64.130     -31.164      50.129


           -------------------------------------------------
          | TOTAL ENERGY             -351.637017033993 Eh   |
          | GRADIENT NORM               0.041579692362 Eh/α |
          | HOMO-LUMO GAP               0.749863076336 eV   |
           -------------------------------------------------

------------------------------------------------------------------------
 * finished run on 2022/02/19 at 09:42:07.709     
------------------------------------------------------------------------
 total:
 * wall-time:     0 d,  0 h,  0 min,  1.336 sec
 *  cpu-time:     0 d,  0 h,  0 min,  9.244 sec
 * ratio c/w:     6.921 speedup
 SCF:
 * wall-time:     0 d,  0 h,  0 min,  1.229 sec
 *  cpu-time:     0 d,  0 h,  0 min,  8.581 sec
 * ratio c/w:     6.982 speedup

