      -----------------------------------------------------------      
     |                   =====================                   |     
     |                           x T B                           |     
     |                   =====================                   |     
     |                         S. Grimme                         |     
     |          Mulliken Center for Theoretical Chemistry        |     
     |                    University of Bonn                     |     
      -----------------------------------------------------------      

   * xtb version 6.4.1 (unknown) compiled by 'oda6@login1.crc.pitt.edu' on 2021-06-25

   xtb is free software: you can redistribute it and/or modify it under
   the terms of the GNU Lesser General Public License as published by
   the Free Software Foundation, either version 3 of the License, or
   (at your option) any later version.
   
   xtb is distributed in the hope that it will be useful,
   but WITHOUT ANY WARRANTY; without even the implied warranty of
   MERCHANTABILITY or FITNESS FOR A PARTICULAR PURPOSE.  See the
   GNU Lesser General Public License for more details.
   
   Cite this work as:
   * C. Bannwarth, E. Caldeweyher, S. Ehlert, A. Hansen, P. Pracht,
     J. Seibert, S. Spicher, S. Grimme, WIREs Comput. Mol. Sci., 2020, 11,
     e01493. DOI: 10.1002/wcms.1493
   
   for GFN2-xTB:
   * C. Bannwarth, S. Ehlert and S. Grimme., J. Chem. Theory Comput., 2019,
     15, 1652-1671. DOI: 10.1021/acs.jctc.8b01176
   for GFN1-xTB:
   * S. Grimme, C. Bannwarth, P. Shushkov, J. Chem. Theory Comput., 2017,
     13, 1989-2009. DOI: 10.1021/acs.jctc.7b00118
   for GFN0-xTB:
   * P. Pracht, E. Caldeweyher, S. Ehlert, S. Grimme, ChemRxiv, 2019, preprint.
     DOI: 10.26434/chemrxiv.8326202.v1
   for GFN-FF:
   * S. Spicher and S. Grimme, Angew. Chem. Int. Ed., 2020, 59, 15665-15673.
     DOI: 10.1002/anie.202004239
   
   for DFT-D4:
   * E. Caldeweyher, C. Bannwarth and S. Grimme, J. Chem. Phys., 2017,
     147, 034112. DOI: 10.1063/1.4993215
   * E. Caldeweyher, S. Ehlert, A. Hansen, H. Neugebauer, S. Spicher,
     C. Bannwarth and S. Grimme, J. Chem. Phys., 2019, 150, 154122.
     DOI: 10.1063/1.5090222
   * E. Caldeweyher, J.-M. Mewes, S. Ehlert and S. Grimme, Phys. Chem. Chem. Phys.
     2020, 22, 8499-8512. DOI: 10.1039/D0CP00502A
   
   for sTDA-xTB:
   * S. Grimme and C. Bannwarth, J. Chem. Phys., 2016, 145, 054103.
     DOI: 10.1063/1.4959605
   
   in the mass-spec context:
   * V. Asgeirsson, C. Bauer and S. Grimme, Chem. Sci., 2017, 8, 4879.
     DOI: 10.1039/c7sc00601b
   * J. Koopman and S. Grimme, ACS Omega 2019, 4, 12, 15120-15133.
     DOI: 10.1021/acsomega.9b02011
   
   for metadynamics refer to:
   * S. Grimme, J. Chem. Theory Comput., 2019, 155, 2847-2862
     DOI: 10.1021/acs.jctc.9b00143
   
   for SPH calculations refer to:
   * S. Spicher and S. Grimme, J. Chem. Theory Comput., 2021, 17, 1701-1714
     DOI: 10.1021/acs.jctc.0c01306
   
   with help from (in alphabetical order)
   P. Atkinson, C. Bannwarth, F. Bohle, G. Brandenburg, E. Caldeweyher
   M. Checinski, S. Dohm, S. Ehlert, S. Ehrlich, I. Gerasimov, J. Koopman
   C. Lavigne, S. Lehtola, F. März, M. Müller, F. Musil, H. Neugebauer
   J. Pisarek, C. Plett, P. Pracht, J. Seibert, P. Shushkov, S. Spicher
   M. Stahn, M. Steiner, T. Strunk, J. Stückrath, T. Rose, and J. Unsleber
   
 * started run on 2022/02/18 at 12:05:26.764     

           -------------------------------------------------
          |                Calculation Setup                |
           -------------------------------------------------

          program call               : /ihome/ghutchison/oda6/xtb/xtb-641/bin/xtb ../../GFN2_output/39_28_86_71_57.mol --sp --alpb water
          hostname                   : smp-n9
          coordinate file            : ../../GFN2_output/39_28_86_71_57.mol
          omp threads                :                     8
          number of atoms            :                   252
          number of electrons        :                   766
          charge                     :                     0
          spin                       :                   0.0
          first test random number   :      0.82780174322573

   ID    Z sym.   atoms
    1    6 C      1-3, 5-13, 15, 17-25, 27-41, 43, 44, 46-60, 62-72, 74-77,
                  81, 82, 84-94, 96, 97, 99, 100, 102, 103, 105-117, 119-129,
                  131-134, 136, 137, 139-141, 143-146, 149-155, 157
    2    8 O      4, 142, 147, 148
    3    7 N      14, 16, 26, 45, 78, 80, 98, 101, 156, 158
    4   16 S      42, 61, 73, 79, 83, 95, 104, 118, 130, 135, 138
    5    1 H      159-252

           -------------------------------------------------
          |                 G F N 2 - x T B                 |
           -------------------------------------------------

        Reference                      10.1021/acs.jctc.8b01176
      * Hamiltonian:
        H0-scaling (s, p, d)           1.850000    2.230000    2.230000
        zeta-weighting                 0.500000
      * Dispersion:
        s8                             2.700000
        a1                             0.520000
        a2                             5.000000
        s9                             5.000000
      * Repulsion:
        kExp                           1.500000    1.000000
        rExp                           1.000000
      * Coulomb:
        alpha                          2.000000
        third order                    shell-resolved
        anisotropic                    true
        a3                             3.000000
        a5                             4.000000
        cn-shift                       1.200000
        cn-exp                         4.000000
        max-rad                        5.000000

      * Solvation model:               ALPB
        Solvent                        water
        Parameter file                 internal GFN2-xTB/ALPB
        Dielectric constant                8.0200E+01
        Reference state                gsolv [1 M gas/solution]
        Free energy shift                  1.0808E-03 Eh       6.7819E-01 kcal/mol
        Temperature                        2.9815E+02 K
        Density                            1.0000E+00 kg/L
        Solvent mass                       1.8000E+01 g/mol
        Interaction kernel             P16
        Born radius scaling (c1)           1.4744E+00
        Born radii integrator          GBOBC
        Born offset                        0.0000E+00 a0       0.0000E+00 AA
        H-bond correction              true
        Ion screening                  false
        Surface tension                    1.0000E-05 Eh       1.5569E+01 dyn/cm
        Grid points                               230 per atom

          ...................................................
          :                      SETUP                      :
          :.................................................:
          :  # basis functions                 792          :
          :  # atomic orbitals                 781          :
          :  # shells                          421          :
          :  # electrons                       766          :
          :  max. iterations                   250          :
          :  Hamiltonian                  GFN2-xTB          :
          :  restarted?                      false          :
          :  GBSA solvation                   true          :
          :  PC potential                    false          :
          :  electronic temp.          300.0000000     K    :
          :  accuracy                    1.0000000          :
          :  -> integral cutoff          0.2500000E+02      :
          :  -> integral neglect         0.1000000E-07      :
          :  -> SCF convergence          0.1000000E-05 Eh   :
          :  -> wf. convergence          0.1000000E-03 e    :
          :  Broyden damping             0.4000000          :
          ...................................................

 iter      E             dE          RMSdq      gap      omega  full diag
   1   -420.3662661 -0.420366E+03  0.435E+00    0.25       0.0  T
   2   -420.7034718 -0.337206E+00  0.256E+00    0.36       1.0  T
   3   -420.5615065  0.141965E+00  0.126E+00    0.18       1.0  T
   4   -420.7778583 -0.216352E+00  0.474E-01    0.36       1.0  T
   5   -420.8136926 -0.358343E-01  0.162E-01    0.22       1.0  T
   6   -420.8158873 -0.219472E-02  0.768E-02    0.26       1.0  T
   7   -420.8164126 -0.525253E-03  0.326E-02    0.24       1.0  T
   8   -420.8164786 -0.660030E-04  0.173E-02    0.25       1.0  T
   9   -420.8164992 -0.205671E-04  0.102E-02    0.24       1.0  T
  10   -420.8165073 -0.810090E-05  0.513E-03    0.24       1.2  T
  11   -420.8165094 -0.213178E-05  0.276E-03    0.24       2.3  T
  12   -420.8165097 -0.357979E-06  0.151E-03    0.24       4.2  T
  13   -420.8165099 -0.155707E-06  0.687E-04    0.24       9.2  T
  14   -420.8165099 -0.425151E-07  0.366E-04    0.24      17.2  T

   *** convergence criteria satisfied after 14 iterations ***

         #    Occupation            Energy/Eh            Energy/eV
      -------------------------------------------------------------
         1        2.0000           -0.7592663             -20.6607
       ...           ...                  ...                  ...
       377        2.0000           -0.3704884             -10.0815
       378        2.0000           -0.3693862             -10.0515
       379        2.0000           -0.3629614              -9.8767
       380        2.0000           -0.3614668              -9.8360
       381        2.0000           -0.3599811              -9.7956
       382        2.0000           -0.3598910              -9.7931
       383        1.9817           -0.3488909              -9.4938 (HOMO)
       384        0.0183           -0.3399844              -9.2514 (LUMO)
       385                         -0.3264345              -8.8827
       386                         -0.3229009              -8.7866
       387                         -0.3130288              -8.5179
       388                         -0.2994035              -8.1472
       ...                                ...                  ...
       781                          1.1547221              31.4216
      -------------------------------------------------------------
                  HL-Gap            0.0089065 Eh            0.2424 eV
             Fermi-level           -0.3444377 Eh           -9.3726 eV

 SCC (total)                   0 d,  0 h,  0 min,  1.034 sec
 SCC setup                      ...        0 min,  0.010 sec (  0.966%)
 Dispersion                     ...        0 min,  0.016 sec (  1.577%)
 classical contributions        ...        0 min,  0.001 sec (  0.063%)
 integral evaluation            ...        0 min,  0.054 sec (  5.206%)
 iterations                     ...        0 min,  0.798 sec ( 77.214%)
 molecular gradient             ...        0 min,  0.148 sec ( 14.293%)
 printout                       ...        0 min,  0.007 sec (  0.674%)

         :::::::::::::::::::::::::::::::::::::::::::::::::::::
         ::                     SUMMARY                     ::
         :::::::::::::::::::::::::::::::::::::::::::::::::::::
         :: total energy            -414.048575531464 Eh    ::
         :: total w/o Gsasa/hb      -414.026593026048 Eh    ::
         :: gradient norm              0.045900245609 Eh/a0 ::
         :: HOMO-LUMO gap              0.242357986571 eV    ::
         ::.................................................::
         :: SCC energy              -420.816509941896 Eh    ::
         :: -> isotropic ES            0.229976216378 Eh    ::
         :: -> anisotropic ES          0.018077688342 Eh    ::
         :: -> anisotropic XC          0.239739259511 Eh    ::
         :: -> dispersion             -0.429047379262 Eh    ::
         :: -> Gsolv                  -0.074114275361 Eh    ::
         ::    -> Gelec               -0.052131769945 Eh    ::
         ::    -> Gsasa               -0.014107803414 Eh    ::
         ::    -> Ghb                 -0.008955461700 Eh    ::
         ::    -> Gshift               0.001080759698 Eh    ::
         :: repulsion energy           6.761424735819 Eh    ::
         :: add. restraining           0.000000000000 Eh    ::
         :: total charge               0.000000000000 e     ::
         :::::::::::::::::::::::::::::::::::::::::::::::::::::

           -------------------------------------------------
          |                Property Printout                |
           -------------------------------------------------

    * Orbital Energies and Occupations

         #    Occupation            Energy/Eh            Energy/eV
      -------------------------------------------------------------
         1        2.0000           -0.7592663             -20.6607
       ...           ...                  ...                  ...
       371        2.0000           -0.3941444             -10.7252
       372        2.0000           -0.3907419             -10.6326
       373        2.0000           -0.3897074             -10.6045
       374        2.0000           -0.3875998             -10.5471
       375        2.0000           -0.3785736             -10.3015
       376        2.0000           -0.3774983             -10.2723
       377        2.0000           -0.3704884             -10.0815
       378        2.0000           -0.3693862             -10.0515
       379        2.0000           -0.3629614              -9.8767
       380        2.0000           -0.3614668              -9.8360
       381        2.0000           -0.3599811              -9.7956
       382        2.0000           -0.3598910              -9.7931
       383        1.9817           -0.3488909              -9.4938 (HOMO)
       384        0.0183           -0.3399844              -9.2514 (LUMO)
       385                         -0.3264345              -8.8827
       386                         -0.3229009              -8.7866
       387                         -0.3130288              -8.5179
       388                         -0.2994035              -8.1472
       389                         -0.2886387              -7.8543
       390                         -0.2825811              -7.6894
       391                         -0.2801708              -7.6238
       392                         -0.2680336              -7.2936
       393                         -0.2576618              -7.0113
       394                         -0.2559080              -6.9636
       ...                                ...                  ...
       781                          1.1547221              31.4216
      -------------------------------------------------------------
                  HL-Gap            0.0089065 Eh            0.2424 eV
             Fermi-level           -0.3444377 Eh           -9.3726 eV

     #   Z          covCN         q      C6AA      α(0)
     1   6 C        2.920    -0.019    28.487     8.752
     2   6 C        3.008    -0.052    29.283     8.877
     3   6 C        2.877     0.225    23.278     7.909
     4   8 O        0.960    -0.421    22.063     6.300
     5   6 C        3.062    -0.026    28.580     8.767
     6   6 C        2.904    -0.025    28.639     8.775
     7   6 C        3.260     0.011    26.607     8.334
     8   6 C        3.255     0.012    26.652     8.349
     9   6 C        2.905    -0.035    28.875     8.811
    10   6 C        3.050     0.002    27.945     8.670
    11   6 C        3.024     0.030    27.296     8.570
    12   6 C        2.947    -0.011    28.281     8.722
    13   6 C        1.951     0.132    27.850     8.522
    14   7 N        0.911    -0.302    27.766     7.621
    15   6 C        1.949     0.124    28.024     8.549
    16   7 N        0.911    -0.299    27.693     7.611
    17   6 C        4.162    -0.024    20.921     6.496
    18   6 C        4.013    -0.016    20.784     6.476
    19   6 C        2.995    -0.044    29.082     8.846
    20   6 C        2.995    -0.045    29.095     8.848
    21   6 C        4.013    -0.016    20.787     6.477
    22   6 C        3.915    -0.062    21.622     6.609
    23   6 C        4.160    -0.024    20.919     6.496
    24   6 C        2.985     0.004    27.938     8.670
    25   6 C        3.043     0.061    26.589     8.457
    26   7 N        2.748    -0.043    22.079     6.979
    27   6 C        2.926     0.056    26.749     8.482
    28   6 C        2.919    -0.049    29.227     8.865
    29   6 C        2.925    -0.044    29.083     8.844
    30   6 C        2.966     0.015    27.674     8.629
    31   6 C        3.758    -0.123    22.903     6.823
    32   6 C        2.926    -0.038    28.955     8.824
    33   6 C        2.921    -0.039    28.963     8.825
    34   6 C        2.940     0.056    26.735     8.480
    35   6 C        2.920    -0.041    29.031     8.836
    36   6 C        2.925    -0.039    28.966     8.826
    37   6 C        2.966     0.023    27.494     8.601
    38   6 C        3.758    -0.124    22.937     6.828
    39   6 C        2.926    -0.041    29.009     8.833
    40   6 C        2.922    -0.041    29.029     8.836
    41   6 C        3.150    -0.002    27.785     8.622
    42  16 S        2.252    -0.062   143.617    20.170
    43   6 C        3.027     0.003    27.932     8.669
    44   6 C        3.057     0.047    26.886     8.503
    45   7 N        2.749    -0.065    22.499     7.045
    46   6 C        2.926     0.059    26.671     8.469
    47   6 C        2.921    -0.050    29.241     8.868
    48   6 C        2.925    -0.042    29.051     8.839
    49   6 C        2.966     0.010    27.791     8.647
    50   6 C        3.757    -0.119    22.833     6.813
    51   6 C        2.924    -0.042    29.047     8.838
    52   6 C        2.922    -0.050    29.246     8.868
    53   6 C        2.935     0.058    26.690     8.473
    54   6 C        2.922    -0.046    29.151     8.854
    55   6 C        2.925    -0.041    29.019     8.834
    56   6 C        2.966     0.016    27.645     8.624
    57   6 C        3.758    -0.119    22.825     6.811
    58   6 C        2.926    -0.040    28.992     8.830
    59   6 C        2.920    -0.045    29.117     8.849
    60   6 C        3.164    -0.000    27.689     8.600
    61  16 S        2.311    -0.045   142.913    20.120
    62   6 C        3.031     0.010    27.769     8.644
    63   6 C        3.111    -0.011    28.141     8.691
    64   6 C        2.974     0.010    27.797     8.648
    65   6 C        2.926    -0.036    28.887     8.814
    66   6 C        2.918    -0.034    28.847     8.808
    67   6 C        2.926    -0.040    28.986     8.829
    68   6 C        2.971     0.018    27.609     8.619
    69   6 C        3.807    -0.062    21.686     6.629
    70   6 C        3.754    -0.106    22.590     6.777
    71   6 C        2.933    -0.041    29.025     8.835
    72   6 C        3.197     0.010    27.251     8.510
    73  16 S        2.185    -0.071   144.005    20.197
    74   6 C        3.098    -0.001    27.937     8.662
    75   6 C        3.086    -0.044    28.995     8.827
    76   6 C        3.339     0.068    24.079     7.764
    77   6 C        3.339     0.068    24.079     7.763
    78   7 N        1.854    -0.306    28.791     7.953
    79  16 S        2.684     0.279   130.183    19.203
    80   7 N        1.854    -0.305    28.763     7.949
    81   6 C        3.085    -0.044    28.997     8.827
    82   6 C        3.099    -0.000    27.918     8.659
    83  16 S        2.183    -0.070   143.954    20.194
    84   6 C        3.189     0.011    27.295     8.523
    85   6 C        3.111    -0.010    28.103     8.685
    86   6 C        2.974     0.010    27.791     8.647
    87   6 C        2.924    -0.038    28.957     8.825
    88   6 C        2.918    -0.033    28.824     8.804
    89   6 C        2.924    -0.040    29.005     8.832
    90   6 C        2.968     0.015    27.676     8.629
    91   6 C        3.806    -0.063    21.708     6.633
    92   6 C        3.752    -0.099    22.443     6.756
    93   6 C        2.932    -0.042    29.049     8.839
    94   6 C        3.028     0.008    27.807     8.650
    95  16 S        2.251    -0.032   142.362    20.082
    96   6 C        3.125     0.002    27.788     8.632
    97   6 C        3.256     0.027    26.308     8.293
    98   7 N        2.798    -0.022    21.668     6.913
    99   6 C        3.075     0.033    27.193     8.550
   100   6 C        3.075     0.032    27.218     8.554
   101   7 N        2.799    -0.019    21.617     6.905
   102   6 C        3.258     0.027    26.278     8.287
   103   6 C        3.123     0.002    27.795     8.634
   104  16 S        2.273    -0.048   143.055    20.130
   105   6 C        3.744    -0.013    20.885     6.519
   106   6 C        3.752    -0.122    22.892     6.823
   107   6 C        3.743    -0.013    20.874     6.518
   108   6 C        3.752    -0.124    22.946     6.831
   109   6 C        3.014     0.036    27.171     8.550
   110   6 C        3.066    -0.054    29.264     8.871
   111   6 C        3.130     0.005    27.702     8.617
   112   6 C        2.994    -0.003    28.093     8.694
   113   6 C        2.976     0.014    27.687     8.631
   114   6 C        2.923    -0.042    29.054     8.839
   115   6 C        2.920    -0.033    28.831     8.805
   116   6 C        2.941    -0.046    29.133     8.852
   117   6 C        2.965     0.054    26.788     8.489
   118  16 S        2.067    -0.215   150.208    20.628
   119   6 C        3.793    -0.003    20.643     6.470
   120   6 C        3.778    -0.114    22.700     6.788
   121   6 C        2.999    -0.043    29.046     8.841
   122   6 C        3.011     0.021    27.524     8.606
   123   6 C        3.118     0.001    27.838     8.642
   124   6 C        2.991     0.004    27.935     8.670
   125   6 C        2.977     0.014    27.701     8.633
   126   6 C        2.923    -0.039    28.980     8.828
   127   6 C        2.919    -0.031    28.773     8.796
   128   6 C        2.976    -0.041    29.004     8.834
   129   6 C        2.964     0.053    26.812     8.493
   130  16 S        2.071    -0.211   150.055    20.617
   131   6 C        3.792     0.005    20.501     6.448
   132   6 C        3.792    -0.115    22.700     6.785
   133   6 C        2.954    -0.047    29.165     8.858
   134   6 C        3.005     0.025    27.438     8.593
   135  16 S        2.257    -0.050   143.132    20.136
   136   6 C        3.070    -0.038    28.857     8.808
   137   6 C        2.977     0.036    27.190     8.553
   138  16 S        2.287    -0.031   142.344    20.080
   139   6 C        2.919    -0.010    28.269     8.719
   140   6 C        3.007    -0.034    28.837     8.809
   141   6 C        2.868     0.236    23.083     7.875
   142   8 O        0.910    -0.395    21.559     6.227
   143   6 C        3.042    -0.013    28.305     8.726
   144   6 C        2.917    -0.007    28.193     8.707
   145   6 C        2.974    -0.011    28.276     8.722
   146   6 C        2.732     0.360    20.894     7.484
   147   8 O        0.856    -0.461    22.946     6.422
   148   8 O        1.704    -0.262    18.338     5.782
   149   6 C        3.658     0.011    20.685     6.527
   150   6 C        2.922    -0.015    28.391     8.738
   151   6 C        2.912    -0.022    28.553     8.762
   152   6 C        3.033     0.018    27.575     8.613
   153   6 C        3.020     0.037    27.152     8.547
   154   6 C        2.947     0.007    27.860     8.657
   155   6 C        1.940     0.131    27.871     8.526
   156   7 N        0.911    -0.274    27.090     7.528
   157   6 C        1.941     0.134    27.801     8.515
   158   7 N        0.911    -0.273    27.061     7.524
   159   1 H        0.925     0.057     2.240     2.340
   160   1 H        0.926     0.060     2.199     2.319
   161   1 H        0.926     0.050     2.321     2.382
   162   1 H        0.925     0.051     2.309     2.376
   163   1 H        0.925     0.040     2.450     2.448
   164   1 H        0.926     0.043     2.407     2.426
   165   1 H        0.926     0.045     2.387     2.416
   166   1 H        0.925     0.044     2.402     2.423
   167   1 H        0.925     0.033     2.547     2.496
   168   1 H        0.925     0.045     2.389     2.417
   169   1 H        0.925     0.053     2.286     2.364
   170   1 H        0.926     0.030     2.588     2.516
   171   1 H        0.926     0.042     2.417     2.431
   172   1 H        0.925     0.063     2.170     2.303
   173   1 H        0.925     0.053     2.282     2.362
   174   1 H        0.924     0.054     2.275     2.359
   175   1 H        0.926     0.051     2.306     2.375
   176   1 H        0.926     0.053     2.287     2.365
   177   1 H        0.926     0.042     2.416     2.431
   178   1 H        0.926     0.052     2.299     2.371
   179   1 H        0.925     0.062     2.171     2.304
   180   1 H        0.925     0.055     2.254     2.348
   181   1 H        0.925     0.063     2.162     2.299
   182   1 H        0.926     0.054     2.276     2.359
   183   1 H        0.926     0.039     2.464     2.455
   184   1 H        0.926     0.015     2.809     2.621
   185   1 H        0.926     0.033     2.546     2.495
   186   1 H        0.924     0.049     2.333     2.388
   187   1 H        0.925     0.053     2.287     2.365
   188   1 H        0.925     0.053     2.288     2.366
   189   1 H        0.926     0.050     2.315     2.379
   190   1 H        0.926     0.045     2.385     2.415
   191   1 H        0.926     0.034     2.537     2.491
   192   1 H        0.926     0.039     2.456     2.451
   193   1 H        0.925     0.055     2.261     2.352
   194   1 H        0.925     0.053     2.282     2.362
   195   1 H        0.924     0.051     2.311     2.377
   196   1 H        0.926     0.043     2.412     2.429
   197   1 H        0.926     0.038     2.474     2.460
   198   1 H        0.926     0.022     2.701     2.570
   199   1 H        0.926     0.038     2.478     2.462
   200   1 H        0.926     0.043     2.406     2.425
   201   1 H        0.924     0.048     2.347     2.396
   202   1 H        0.924     0.043     2.413     2.429
   203   1 H        0.925     0.036     2.500     2.473
   204   1 H        0.925     0.039     2.465     2.455
   205   1 H        0.925     0.046     2.373     2.409
   206   1 H        0.926     0.038     2.482     2.464
   207   1 H        0.926     0.037     2.492     2.469
   208   1 H        0.926     0.040     2.442     2.444
   209   1 H        0.926     0.040     2.451     2.448
   210   1 H        0.924     0.044     2.402     2.424
   211   1 H        0.924     0.045     2.383     2.414
   212   1 H        0.925     0.037     2.491     2.468
   213   1 H        0.925     0.043     2.411     2.428
   214   1 H        0.925     0.030     2.590     2.517
   215   1 H        0.926     0.031     2.566     2.505
   216   1 H        0.924     0.080     1.982     2.202
   217   1 H        0.924     0.087     1.913     2.163
   218   1 H        0.925     0.069     2.093     2.262
   219   1 H        0.925     0.055     2.264     2.353
   220   1 H        0.925     0.050     2.319     2.381
   221   1 H        0.924     0.087     1.909     2.161
   222   1 H        0.924     0.081     1.969     2.194
   223   1 H        0.925     0.072     2.066     2.248
   224   1 H        0.925     0.050     2.325     2.384
   225   1 H        0.925     0.054     2.276     2.359
   226   1 H        0.926     0.053     2.287     2.365
   227   1 H        0.926     0.045     2.385     2.415
   228   1 H        0.926     0.046     2.374     2.409
   229   1 H        0.926     0.048     2.343     2.394
   230   1 H        0.925     0.065     2.142     2.289
   231   1 H        0.925     0.056     2.242     2.342
   232   1 H        0.925     0.058     2.219     2.330
   233   1 H        0.925     0.050     2.318     2.381
   234   1 H        0.925     0.055     2.263     2.352
   235   1 H        0.926     0.039     2.458     2.452
   236   1 H        0.926     0.051     2.306     2.374
   237   1 H        0.926     0.057     2.229     2.335
   238   1 H        0.926     0.053     2.283     2.363
   239   1 H        0.925     0.048     2.340     2.392
   240   1 H        0.925     0.050     2.321     2.382
   241   1 H        0.925     0.066     2.130     2.283
   242   1 H        0.925     0.050     2.322     2.383
   243   1 H        0.925     0.054     2.274     2.358
   244   1 H        0.926     0.043     2.404     2.425
   245   1 H        0.926     0.067     2.121     2.277
   246   1 H        0.925     0.075     2.033     2.230
   247   1 H        0.926     0.080     1.982     2.202
   248   1 H        0.924     0.076     2.023     2.224
   249   1 H        0.925     0.104     1.745     2.066
   250   1 H        0.924     0.077     2.013     2.219
   251   1 H        0.926     0.095     1.826     2.113
   252   1 H        0.926     0.077     2.015     2.220

 Mol. C6AA /au·bohr⁶  :    1062634.387615
 Mol. C8AA /au·bohr⁸  :   29543667.259786
 Mol. α(0) /au        :       1649.653064


Wiberg/Mayer (AO) data.
largest (>0.10) Wiberg bond orders for each atom

 ---------------------------------------------------------------------------
     #   Z sym  total        # sym  WBO       # sym  WBO       # sym  WBO
 ---------------------------------------------------------------------------
     1   6 C    3.948 --     2 C    1.418    24 C    1.382   159 H    0.932
     2   6 C    3.951 --     1 C    1.418    11 C    1.178     3 C    1.082
     3   6 C    3.904 --     4 O    1.664     2 C    1.082     5 C    1.027
     4   8 O    2.060 --     3 C    1.664    61 S    0.124
     5   6 C    3.968 --     6 C    1.383    10 C    1.312     3 C    1.027
     6   6 C    3.978 --     7 C    1.437     5 C    1.383   160 H    0.963
     7   6 C    3.954 --     6 C    1.437     8 C    1.329    23 C    0.993
     8   6 C    3.965 --     9 C    1.442     7 C    1.329    17 C    0.994
     9   6 C    3.974 --     8 C    1.442    10 C    1.371   161 H    0.959
    10   6 C    3.976 --     9 C    1.371     5 C    1.312    11 C    1.081
    11   6 C    3.968 --    12 C    1.431     2 C    1.178    10 C    1.081
    12   6 C    3.946 --    11 C    1.431    15 C    1.113    13 C    1.111
    13   6 C    3.937 --    14 N    2.732    12 C    1.111
    14   7 N    2.943 --    13 C    2.732
    15   6 C    3.940 --    16 N    2.717    12 C    1.113
    16   7 N    2.948 --    15 C    2.717
    17   6 C    3.984 --     8 C    0.994    23 C    0.975   162 H    0.960
                            18 C    0.951
    18   6 C    3.989 --    19 C    1.004    22 C    0.989   163 H    0.971
                            17 C    0.951
    19   6 C    3.981 --    20 C    1.924    18 C    1.004   164 H    0.970
    20   6 C    3.981 --    19 C    1.924    21 C    1.003   165 H    0.970
    21   6 C    3.988 --    20 C    1.003    22 C    0.989   166 H    0.970
                            23 C    0.950
    22   6 C    3.994 --    18 C    0.989    21 C    0.989   168 H    0.978
                           167 H    0.974
    23   6 C    3.982 --     7 C    0.993    17 C    0.975   169 H    0.960
                            21 C    0.950
    24   6 C    3.923 --     1 C    1.382    25 C    1.240    61 S    1.066
    25   6 C    3.947 --    41 C    1.264    24 C    1.240    26 N    1.189
    26   7 N    3.536 --    25 C    1.189    27 C    1.029    34 C    1.010
    27   6 C    3.958 --    33 C    1.370    28 C    1.368    26 N    1.029
    28   6 C    3.985 --    29 C    1.460    27 C    1.368   170 H    0.968
                            32 C    0.106
    29   6 C    3.988 --    28 C    1.460    30 C    1.397   171 H    0.968
    30   6 C    3.979 --    32 C    1.405    29 C    1.397    31 C    1.029
    31   6 C    3.993 --    30 C    1.029   173 H    0.984   172 H    0.974
                           174 H    0.966
    32   6 C    3.989 --    33 C    1.453    30 C    1.405   175 H    0.968
                            28 C    0.106
    33   6 C    3.980 --    32 C    1.453    27 C    1.370   176 H    0.966
    34   6 C    3.955 --    35 C    1.380    40 C    1.368    26 N    1.010
    35   6 C    3.977 --    36 C    1.454    34 C    1.380   177 H    0.967
                            39 C    0.105
    36   6 C    3.988 --    35 C    1.454    37 C    1.403   178 H    0.967
                            40 C    0.102
    37   6 C    3.973 --    36 C    1.403    39 C    1.398    38 C    1.030
    38   6 C    3.993 --    37 C    1.030   180 H    0.983   181 H    0.973
                           179 H    0.963
    39   6 C    3.988 --    40 C    1.458    37 C    1.398   182 H    0.967
                            35 C    0.105
    40   6 C    3.980 --    39 C    1.458    34 C    1.368   183 H    0.968
                            36 C    0.102
    41   6 C    3.930 --    60 C    1.344    25 C    1.264    42 S    1.095
    42  16 S    2.554 --    41 C    1.095    43 C    1.088
    43   6 C    3.899 --    44 C    1.389    62 C    1.180    42 S    1.088
    44   6 C    3.948 --    43 C    1.389    60 C    1.228    45 N    1.096
    45   7 N    3.491 --    44 C    1.096    46 C    1.060    53 C    1.030
    46   6 C    3.961 --    52 C    1.360    47 C    1.357    45 N    1.060
    47   6 C    3.984 --    48 C    1.467    46 C    1.357   184 H    0.966
                            51 C    0.101
    48   6 C    3.990 --    47 C    1.467    49 C    1.394   185 H    0.970
                            52 C    0.103
    49   6 C    3.978 --    51 C    1.405    48 C    1.394    50 C    1.027
    50   6 C    3.994 --    49 C    1.027   188 H    0.985   187 H    0.973
                           186 H    0.970
    51   6 C    3.989 --    52 C    1.456    49 C    1.405   189 H    0.966
                            47 C    0.101
    52   6 C    3.981 --    51 C    1.456    46 C    1.360   190 H    0.966
                            48 C    0.103
    53   6 C    3.962 --    59 C    1.373    54 C    1.371    45 N    1.030
    54   6 C    3.984 --    55 C    1.454    53 C    1.371   191 H    0.968
                            58 C    0.104
    55   6 C    3.990 --    54 C    1.454    56 C    1.404   192 H    0.969
                            59 C    0.104
    56   6 C    3.975 --    55 C    1.404    58 C    1.400    57 C    1.028
    57   6 C    3.994 --    56 C    1.028   194 H    0.981   193 H    0.981
                           195 H    0.966
    58   6 C    3.989 --    59 C    1.459    56 C    1.400   196 H    0.968
                            54 C    0.104
    59   6 C    3.983 --    58 C    1.459    53 C    1.373   197 H    0.967
                            55 C    0.104
    60   6 C    3.941 --    41 C    1.344    44 C    1.228    61 S    1.127
    61  16 S    2.661 --    60 C    1.127    24 C    1.066     4 O    0.124
    62   6 C    3.917 --    63 C    1.436    43 C    1.180   104 S    1.077
    63   6 C    3.956 --    62 C    1.436    72 C    1.260    64 C    1.037
    64   6 C    3.987 --    71 C    1.393    65 C    1.378    63 C    1.037
                            67 C    0.102
    65   6 C    3.988 --    66 C    1.448    64 C    1.378   198 H    0.969
                            68 C    0.105
    66   6 C    3.990 --    65 C    1.448    67 C    1.438   199 H    0.970
                            71 C    0.104
    67   6 C    3.983 --    66 C    1.438    68 C    1.407   200 H    0.968
                            64 C    0.102
    68   6 C    3.986 --    71 C    1.417    67 C    1.407    69 C    1.013
                            65 C    0.105
    69   6 C    3.995 --    68 C    1.013    70 C    0.999   201 H    0.973
                           202 H    0.973
    70   6 C    3.995 --    69 C    0.999   203 H    0.988   204 H    0.988
                           205 H    0.985
    71   6 C    3.983 --    68 C    1.417    64 C    1.393   206 H    0.966
                            66 C    0.104
    72   6 C    3.924 --   103 C    1.356    63 C    1.260    73 S    1.087
    73  16 S    2.494 --    74 C    1.101    72 C    1.087
    74   6 C    3.920 --   102 C    1.318    75 C    1.264    73 S    1.101
    75   6 C    3.958 --   100 C    1.272    74 C    1.264    76 C    1.177
    76   6 C    3.970 --    80 N    1.424    75 C    1.177    77 C    1.157
                            79 S    0.107
    77   6 C    3.970 --    78 N    1.423    81 C    1.178    76 C    1.157
                            79 S    0.107
    78   7 N    3.055 --    77 C    1.423    79 S    1.373    80 N    0.146
    79  16 S    3.085 --    80 N    1.374    78 N    1.373    77 C    0.107
                            76 C    0.107
    80   7 N    3.056 --    76 C    1.424    79 S    1.374    78 N    0.146
    81   6 C    3.957 --    99 C    1.275    82 C    1.261    77 C    1.178
    82   6 C    3.925 --    97 C    1.321    81 C    1.261    83 S    1.103
    83  16 S    2.503 --    82 C    1.103    84 C    1.092
    84   6 C    3.924 --    96 C    1.358    85 C    1.254    83 S    1.092
    85   6 C    3.964 --    94 C    1.455    84 C    1.254    86 C    1.038
    86   6 C    3.987 --    93 C    1.389    87 C    1.388    85 C    1.038
                            89 C    0.102
    87   6 C    3.987 --    88 C    1.444    86 C    1.388   207 H    0.969
                            90 C    0.104
    88   6 C    3.990 --    87 C    1.444    89 C    1.441   208 H    0.970
                            93 C    0.107
    89   6 C    3.985 --    88 C    1.441    90 C    1.403   209 H    0.969
                            86 C    0.102
    90   6 C    3.987 --    93 C    1.422    89 C    1.403    91 C    1.012
                            87 C    0.104
    91   6 C    3.995 --    90 C    1.012    92 C    1.002   210 H    0.976
                           211 H    0.970
    92   6 C    3.996 --    91 C    1.002   214 H    0.987   212 H    0.986
                           213 H    0.986
    93   6 C    3.988 --    90 C    1.422    86 C    1.389   215 H    0.967
                            88 C    0.107
    94   6 C    3.915 --    85 C    1.455   109 C    1.135    95 S    1.096
    95  16 S    2.556 --    96 C    1.120    94 C    1.096
    96   6 C    3.932 --    84 C    1.358    97 C    1.232    95 S    1.120
    97   6 C    3.942 --    82 C    1.321    96 C    1.232    98 N    1.164
    98   7 N    3.562 --    99 C    1.176    97 C    1.164   107 C    0.971
    99   6 C    3.940 --    81 C    1.275   100 C    1.217    98 N    1.176
   100   6 C    3.937 --    75 C    1.272    99 C    1.217   101 N    1.178
   101   7 N    3.567 --   100 C    1.178   102 C    1.168   105 C    0.973
   102   6 C    3.943 --    74 C    1.318   103 C    1.230   101 N    1.168
   103   6 C    3.927 --    72 C    1.356   102 C    1.230   104 S    1.119
   104  16 S    2.560 --   103 C    1.119    62 C    1.077
   105   6 C    3.948 --   106 C    1.007   101 N    0.973   216 H    0.960
                           217 H    0.950
   106   6 C    3.985 --   105 C    1.007   220 H    0.985   219 H    0.982
                           218 H    0.980
   107   6 C    3.948 --   108 C    1.008    98 N    0.971   222 H    0.962
                           221 H    0.950
   108   6 C    3.985 --   107 C    1.008   224 H    0.986   225 H    0.982
                           223 H    0.980
   109   6 C    3.919 --   110 C    1.541    94 C    1.135   135 S    1.100
   110   6 C    3.955 --   109 C    1.541   111 C    1.238   226 H    0.956
   111   6 C    3.960 --   112 C    1.289   110 C    1.238   134 C    1.224
   112   6 C    3.964 --   122 C    1.386   111 C    1.289   113 C    1.040
   113   6 C    3.987 --   121 C    1.406   114 C    1.371   112 C    1.040
   114   6 C    3.985 --   115 C    1.448   113 C    1.371   227 H    0.963
   115   6 C    3.990 --   114 C    1.448   116 C    1.433   228 H    0.968
                           121 C    0.103
   116   6 C    3.982 --   115 C    1.433   117 C    1.390   229 H    0.963
   117   6 C    3.963 --   116 C    1.390   121 C    1.385   118 S    1.045
   118  16 S    2.245 --   117 C    1.045   119 C    0.980
   119   6 C    3.970 --   120 C    1.026   118 S    0.980   231 H    0.968
                           230 H    0.968
   120   6 C    3.991 --   119 C    1.026   234 H    0.986   233 H    0.984
                           232 H    0.977
   121   6 C    3.983 --   113 C    1.406   117 C    1.385   235 H    0.964
                           115 C    0.103
   122   6 C    3.951 --   112 C    1.386   123 C    1.216   138 S    1.123
   123   6 C    3.968 --   136 C    1.310   124 C    1.241   122 C    1.216
   124   6 C    3.953 --   134 C    1.421   123 C    1.241   125 C    1.047
   125   6 C    3.986 --   126 C    1.383   133 C    1.381   124 C    1.047
   126   6 C    3.979 --   127 C    1.432   125 C    1.383   236 H    0.965
   127   6 C    3.988 --   128 C    1.453   126 C    1.432   237 H    0.967
                           133 C    0.100
   128   6 C    3.979 --   127 C    1.453   129 C    1.374   238 H    0.967
   129   6 C    3.964 --   133 C    1.404   128 C    1.374   130 S    1.045
   130  16 S    2.221 --   129 C    1.045   131 C    0.971
   131   6 C    3.971 --   132 C    1.026   239 H    0.975   240 H    0.973
                           130 S    0.971
   132   6 C    3.990 --   131 C    1.026   242 H    0.986   243 H    0.985
                           241 H    0.974
   133   6 C    3.983 --   129 C    1.404   125 C    1.381   244 H    0.963
                           127 C    0.100
   134   6 C    3.946 --   124 C    1.421   111 C    1.224   135 S    1.090
   135  16 S    2.504 --   109 C    1.100   134 C    1.090
   136   6 C    3.955 --   137 C    1.414   123 C    1.310   245 H    0.956
                           138 S    0.105
   137   6 C    3.940 --   136 C    1.414   139 C    1.278   138 S    1.094
   138  16 S    2.632 --   122 C    1.123   137 C    1.094   136 C    0.105
   139   6 C    3.937 --   140 C    1.508   137 C    1.278   246 H    0.940
   140   6 C    3.949 --   139 C    1.508   153 C    1.145   141 C    1.049
   141   6 C    3.909 --   142 O    1.720   140 C    1.049   143 C    1.017
   142   8 O    2.082 --   141 C    1.720
   143   6 C    3.972 --   144 C    1.437   152 C    1.287   141 C    1.017
   144   6 C    3.975 --   143 C    1.437   145 C    1.369   247 H    0.961
   145   6 C    3.967 --   150 C    1.388   144 C    1.369   146 C    1.000
   146   6 C    3.915 --   147 O    1.695   148 O    1.145   145 C    1.000
   147   8 O    1.994 --   146 C    1.695   148 O    0.173
   148   8 O    2.314 --   146 C    1.145   149 C    0.944   147 O    0.173
   149   6 C    3.901 --   249 H    0.976   248 H    0.974   250 H    0.974
                           148 O    0.944
   150   6 C    3.972 --   151 C    1.437   145 C    1.388   251 H    0.960
   151   6 C    3.971 --   150 C    1.437   152 C    1.398   252 H    0.959
   152   6 C    3.979 --   151 C    1.398   143 C    1.287   153 C    1.084
   153   6 C    3.957 --   154 C    1.467   140 C    1.145   152 C    1.084
   154   6 C    3.947 --   153 C    1.467   155 C    1.103   157 C    1.101
   155   6 C    3.941 --   156 N    2.742   154 C    1.103
   156   7 N    2.955 --   155 C    2.742
   157   6 C    3.940 --   158 N    2.752   154 C    1.101
   158   7 N    2.956 --   157 C    2.752
   159   1 H    0.996 --     1 C    0.932
   160   1 H    0.996 --     6 C    0.963
   161   1 H    0.997 --     9 C    0.959
   162   1 H    0.996 --    17 C    0.960
   163   1 H    0.998 --    18 C    0.971
   164   1 H    0.998 --    19 C    0.970
   165   1 H    0.998 --    20 C    0.970
   166   1 H    0.998 --    21 C    0.970
   167   1 H    0.999 --    22 C    0.974
   168   1 H    0.998 --    22 C    0.978
   169   1 H    0.995 --    23 C    0.960
   170   1 H    0.999 --    28 C    0.968
   171   1 H    0.998 --    29 C    0.968
   172   1 H    0.995 --    31 C    0.974
   173   1 H    0.997 --    31 C    0.984
   174   1 H    0.996 --    31 C    0.966
   175   1 H    0.997 --    32 C    0.968
   176   1 H    0.997 --    33 C    0.966
   177   1 H    0.998 --    35 C    0.967
   178   1 H    0.997 --    36 C    0.967
   179   1 H    0.995 --    38 C    0.963
   180   1 H    0.997 --    38 C    0.983
   181   1 H    0.995 --    38 C    0.973
   182   1 H    0.996 --    39 C    0.967
   183   1 H    0.998 --    40 C    0.968
   184   1 H    0.999 --    47 C    0.966
   185   1 H    0.998 --    48 C    0.970
   186   1 H    0.996 --    50 C    0.970
   187   1 H    0.996 --    50 C    0.973
   188   1 H    0.997 --    50 C    0.985
   189   1 H    0.997 --    51 C    0.966
   190   1 H    0.998 --    52 C    0.966
   191   1 H    0.999 --    54 C    0.968
   192   1 H    0.998 --    55 C    0.969
   193   1 H    0.996 --    57 C    0.981
   194   1 H    0.997 --    57 C    0.981
   195   1 H    0.996 --    57 C    0.966
   196   1 H    0.998 --    58 C    0.968
   197   1 H    0.998 --    59 C    0.967
   198   1 H    0.999 --    65 C    0.969
   199   1 H    0.998 --    66 C    0.970
   200   1 H    0.998 --    67 C    0.968
   201   1 H    0.997 --    69 C    0.973
   202   1 H    0.998 --    69 C    0.973
   203   1 H    0.999 --    70 C    0.988
   204   1 H    0.998 --    70 C    0.988
   205   1 H    0.997 --    70 C    0.985
   206   1 H    0.999 --    71 C    0.966
   207   1 H    0.998 --    87 C    0.969
   208   1 H    0.997 --    88 C    0.970
   209   1 H    0.998 --    89 C    0.969
   210   1 H    0.998 --    91 C    0.976
   211   1 H    0.998 --    91 C    0.970
   212   1 H    0.999 --    92 C    0.986
   213   1 H    0.997 --    92 C    0.986
   214   1 H    0.999 --    92 C    0.987
   215   1 H    0.999 --    93 C    0.967
   216   1 H    0.993 --   105 C    0.960
   217   1 H    0.990 --   105 C    0.950
   218   1 H    0.994 --   106 C    0.980
   219   1 H    0.996 --   106 C    0.982
   220   1 H    0.997 --   106 C    0.985
   221   1 H    0.990 --   107 C    0.950
   222   1 H    0.993 --   107 C    0.962
   223   1 H    0.994 --   108 C    0.980
   224   1 H    0.997 --   108 C    0.986
   225   1 H    0.997 --   108 C    0.982
   226   1 H    0.997 --   110 C    0.956
   227   1 H    0.997 --   114 C    0.963
   228   1 H    0.997 --   115 C    0.968
   229   1 H    0.997 --   116 C    0.963
   230   1 H    0.995 --   119 C    0.968
   231   1 H    0.997 --   119 C    0.968
   232   1 H    0.996 --   120 C    0.977
   233   1 H    0.997 --   120 C    0.984
   234   1 H    0.997 --   120 C    0.986
   235   1 H    0.998 --   121 C    0.964
   236   1 H    0.997 --   126 C    0.965
   237   1 H    0.995 --   127 C    0.967
   238   1 H    0.997 --   128 C    0.967
   239   1 H    0.997 --   131 C    0.975
   240   1 H    0.997 --   131 C    0.973
   241   1 H    0.995 --   132 C    0.974
   242   1 H    0.997 --   132 C    0.986
   243   1 H    0.997 --   132 C    0.985
   244   1 H    0.998 --   133 C    0.963
   245   1 H    0.995 --   136 C    0.956
   246   1 H    0.993 --   139 C    0.940
   247   1 H    0.993 --   144 C    0.961
   248   1 H    0.994 --   149 C    0.974
   249   1 H    0.989 --   149 C    0.976
   250   1 H    0.994 --   149 C    0.974
   251   1 H    0.990 --   150 C    0.960
   252   1 H    0.993 --   151 C    0.959
 ---------------------------------------------------------------------------

Topologies differ in bond orders
Writing corrected topology to xtbtopo.mol

molecular dipole:
                 x           y           z       tot (Debye)
 q only:       -0.790       0.010      -0.045
   full:       -1.200       1.045      -0.749       4.470
molecular quadrupole (traceless):
                xx          xy          yy          xz          yz          zz
 q only:     -154.607     -41.004      53.538     115.934      28.142     101.069
  q+dip:     -152.511     -17.751      56.925     121.808      11.014      95.587
   full:     -149.742     -15.826      57.147     126.215      10.415      92.596


           -------------------------------------------------
          | TOTAL ENERGY             -414.048575531464 Eh   |
          | GRADIENT NORM               0.045900245609 Eh/α |
          | HOMO-LUMO GAP               0.242357986571 eV   |
           -------------------------------------------------

------------------------------------------------------------------------
 * finished run on 2022/02/18 at 12:05:27.932     
------------------------------------------------------------------------
 total:
 * wall-time:     0 d,  0 h,  0 min,  1.168 sec
 *  cpu-time:     0 d,  0 h,  0 min,  9.125 sec
 * ratio c/w:     7.811 speedup
 SCF:
 * wall-time:     0 d,  0 h,  0 min,  1.037 sec
 *  cpu-time:     0 d,  0 h,  0 min,  8.217 sec
 * ratio c/w:     7.923 speedup

