      -----------------------------------------------------------      
     |                   =====================                   |     
     |                           x T B                           |     
     |                   =====================                   |     
     |                         S. Grimme                         |     
     |          Mulliken Center for Theoretical Chemistry        |     
     |                    University of Bonn                     |     
      -----------------------------------------------------------      

   * xtb version 6.4.1 (unknown) compiled by 'oda6@login1.crc.pitt.edu' on 2021-06-25

   xtb is free software: you can redistribute it and/or modify it under
   the terms of the GNU Lesser General Public License as published by
   the Free Software Foundation, either version 3 of the License, or
   (at your option) any later version.
   
   xtb is distributed in the hope that it will be useful,
   but WITHOUT ANY WARRANTY; without even the implied warranty of
   MERCHANTABILITY or FITNESS FOR A PARTICULAR PURPOSE.  See the
   GNU Lesser General Public License for more details.
   
   Cite this work as:
   * C. Bannwarth, E. Caldeweyher, S. Ehlert, A. Hansen, P. Pracht,
     J. Seibert, S. Spicher, S. Grimme, WIREs Comput. Mol. Sci., 2020, 11,
     e01493. DOI: 10.1002/wcms.1493
   
   for GFN2-xTB:
   * C. Bannwarth, S. Ehlert and S. Grimme., J. Chem. Theory Comput., 2019,
     15, 1652-1671. DOI: 10.1021/acs.jctc.8b01176
   for GFN1-xTB:
   * S. Grimme, C. Bannwarth, P. Shushkov, J. Chem. Theory Comput., 2017,
     13, 1989-2009. DOI: 10.1021/acs.jctc.7b00118
   for GFN0-xTB:
   * P. Pracht, E. Caldeweyher, S. Ehlert, S. Grimme, ChemRxiv, 2019, preprint.
     DOI: 10.26434/chemrxiv.8326202.v1
   for GFN-FF:
   * S. Spicher and S. Grimme, Angew. Chem. Int. Ed., 2020, 59, 15665-15673.
     DOI: 10.1002/anie.202004239
   
   for DFT-D4:
   * E. Caldeweyher, C. Bannwarth and S. Grimme, J. Chem. Phys., 2017,
     147, 034112. DOI: 10.1063/1.4993215
   * E. Caldeweyher, S. Ehlert, A. Hansen, H. Neugebauer, S. Spicher,
     C. Bannwarth and S. Grimme, J. Chem. Phys., 2019, 150, 154122.
     DOI: 10.1063/1.5090222
   * E. Caldeweyher, J.-M. Mewes, S. Ehlert and S. Grimme, Phys. Chem. Chem. Phys.
     2020, 22, 8499-8512. DOI: 10.1039/D0CP00502A
   
   for sTDA-xTB:
   * S. Grimme and C. Bannwarth, J. Chem. Phys., 2016, 145, 054103.
     DOI: 10.1063/1.4959605
   
   in the mass-spec context:
   * V. Asgeirsson, C. Bauer and S. Grimme, Chem. Sci., 2017, 8, 4879.
     DOI: 10.1039/c7sc00601b
   * J. Koopman and S. Grimme, ACS Omega 2019, 4, 12, 15120-15133.
     DOI: 10.1021/acsomega.9b02011
   
   for metadynamics refer to:
   * S. Grimme, J. Chem. Theory Comput., 2019, 155, 2847-2862
     DOI: 10.1021/acs.jctc.9b00143
   
   for SPH calculations refer to:
   * S. Spicher and S. Grimme, J. Chem. Theory Comput., 2021, 17, 1701-1714
     DOI: 10.1021/acs.jctc.0c01306
   
   with help from (in alphabetical order)
   P. Atkinson, C. Bannwarth, F. Bohle, G. Brandenburg, E. Caldeweyher
   M. Checinski, S. Dohm, S. Ehlert, S. Ehrlich, I. Gerasimov, J. Koopman
   C. Lavigne, S. Lehtola, F. März, M. Müller, F. Musil, H. Neugebauer
   J. Pisarek, C. Plett, P. Pracht, J. Seibert, P. Shushkov, S. Spicher
   M. Stahn, M. Steiner, T. Strunk, J. Stückrath, T. Rose, and J. Unsleber
   
 * started run on 2022/02/17 at 21:54:32.392     

           -------------------------------------------------
          |                Calculation Setup                |
           -------------------------------------------------

          program call               : /ihome/ghutchison/oda6/xtb/xtb-641/bin/xtb ../../GFN2_output/39_28_93_15_39.mol --sp --alpb water
          hostname                   : smp-n9
          coordinate file            : ../../GFN2_output/39_28_93_15_39.mol
          omp threads                :                     8
          number of atoms            :                   256
          number of electrons        :                   754
          charge                     :                     0
          spin                       :                   0.0
          first test random number   :      0.34859525255421

   ID    Z sym.   atoms
    1    6 C      1-3, 5-13, 15, 17-25, 27-41, 43, 44, 46-60, 62-64, 66-87,
                  89-117, 119, 120, 122-125, 127-138, 140-148, 150, 152-158
    2    8 O      4, 126, 139
    3    7 N      14, 16, 26, 45, 149, 151
    4   16 S      42, 61, 65, 88, 118, 121
    5    1 H      159-256

           -------------------------------------------------
          |                 G F N 2 - x T B                 |
           -------------------------------------------------

        Reference                      10.1021/acs.jctc.8b01176
      * Hamiltonian:
        H0-scaling (s, p, d)           1.850000    2.230000    2.230000
        zeta-weighting                 0.500000
      * Dispersion:
        s8                             2.700000
        a1                             0.520000
        a2                             5.000000
        s9                             5.000000
      * Repulsion:
        kExp                           1.500000    1.000000
        rExp                           1.000000
      * Coulomb:
        alpha                          2.000000
        third order                    shell-resolved
        anisotropic                    true
        a3                             3.000000
        a5                             4.000000
        cn-shift                       1.200000
        cn-exp                         4.000000
        max-rad                        5.000000

      * Solvation model:               ALPB
        Solvent                        water
        Parameter file                 internal GFN2-xTB/ALPB
        Dielectric constant                8.0200E+01
        Reference state                gsolv [1 M gas/solution]
        Free energy shift                  1.0808E-03 Eh       6.7819E-01 kcal/mol
        Temperature                        2.9815E+02 K
        Density                            1.0000E+00 kg/L
        Solvent mass                       1.8000E+01 g/mol
        Interaction kernel             P16
        Born radius scaling (c1)           1.4744E+00
        Born radii integrator          GBOBC
        Born offset                        0.0000E+00 a0       0.0000E+00 AA
        H-bond correction              true
        Ion screening                  false
        Surface tension                    1.0000E-05 Eh       1.5569E+01 dyn/cm
        Grid points                               230 per atom

          ...................................................
          :                      SETUP                      :
          :.................................................:
          :  # basis functions                 766          :
          :  # atomic orbitals                 760          :
          :  # shells                          420          :
          :  # electrons                       754          :
          :  max. iterations                   250          :
          :  Hamiltonian                  GFN2-xTB          :
          :  restarted?                      false          :
          :  GBSA solvation                   true          :
          :  PC potential                    false          :
          :  electronic temp.          300.0000000     K    :
          :  accuracy                    1.0000000          :
          :  -> integral cutoff          0.2500000E+02      :
          :  -> integral neglect         0.1000000E-07      :
          :  -> SCF convergence          0.1000000E-05 Eh   :
          :  -> wf. convergence          0.1000000E-03 e    :
          :  Broyden damping             0.4000000          :
          ...................................................

 iter      E             dE          RMSdq      gap      omega  full diag
   1   -412.2125973 -0.412213E+03  0.428E+00    0.31       0.0  T
   2   -412.4185843 -0.205987E+00  0.250E+00    0.47       1.0  T
   3   -412.2509320  0.167652E+00  0.113E+00    0.40       1.0  T
   4   -412.4610239 -0.210092E+00  0.382E-01    0.43       1.0  T
   5   -412.4823734 -0.213495E-01  0.124E-01    0.39       1.0  T
   6   -412.4836906 -0.131725E-02  0.559E-02    0.40       1.0  T
   7   -412.4839663 -0.275648E-03  0.244E-02    0.40       1.0  T
   8   -412.4840225 -0.562718E-04  0.121E-02    0.41       1.0  T
   9   -412.4840364 -0.138568E-04  0.592E-03    0.41       1.1  T
  10   -412.4840379 -0.152611E-05  0.339E-03    0.41       1.8  T
  11   -412.4840389 -0.976768E-06  0.173E-03    0.41       3.6  T
  12   -412.4840390 -0.116840E-06  0.976E-04    0.41       6.4  T
  13   -412.4840391 -0.657568E-07  0.424E-04    0.41      14.8  T

   *** convergence criteria satisfied after 13 iterations ***

         #    Occupation            Energy/Eh            Energy/eV
      -------------------------------------------------------------
         1        2.0000           -0.7481734             -20.3588
       ...           ...                  ...                  ...
       371        2.0000           -0.3852883             -10.4842
       372        2.0000           -0.3833494             -10.4315
       373        2.0000           -0.3828145             -10.4169
       374        2.0000           -0.3767683             -10.2524
       375        2.0000           -0.3681650             -10.0183
       376        2.0000           -0.3587025              -9.7608
       377        1.9993           -0.3494040              -9.5078 (HOMO)
       378        0.0007           -0.3342407              -9.0952 (LUMO)
       379                         -0.3243609              -8.8263
       380                         -0.3224677              -8.7748
       381                         -0.3148885              -8.5686
       382                         -0.3121563              -8.4942
       ...                                ...                  ...
       760                          1.1558549              31.4524
      -------------------------------------------------------------
                  HL-Gap            0.0151633 Eh            0.4126 eV
             Fermi-level           -0.3418223 Eh           -9.3015 eV

 SCC (total)                   0 d,  0 h,  0 min,  1.281 sec
 SCC setup                      ...        0 min,  0.012 sec (  0.920%)
 Dispersion                     ...        0 min,  0.019 sec (  1.515%)
 classical contributions        ...        0 min,  0.001 sec (  0.078%)
 integral evaluation            ...        0 min,  0.054 sec (  4.242%)
 iterations                     ...        0 min,  1.017 sec ( 79.408%)
 molecular gradient             ...        0 min,  0.169 sec ( 13.232%)
 printout                       ...        0 min,  0.008 sec (  0.599%)

         :::::::::::::::::::::::::::::::::::::::::::::::::::::
         ::                     SUMMARY                     ::
         :::::::::::::::::::::::::::::::::::::::::::::::::::::
         :: total energy            -405.394368261296 Eh    ::
         :: total w/o Gsasa/hb      -405.369164617590 Eh    ::
         :: gradient norm              0.043618389041 Eh/a0 ::
         :: HOMO-LUMO gap              0.412614739732 eV    ::
         ::.................................................::
         :: SCC energy              -412.484039080949 Eh    ::
         :: -> isotropic ES            0.182043777934 Eh    ::
         :: -> anisotropic ES          0.021100899774 Eh    ::
         :: -> anisotropic XC          0.245979600085 Eh    ::
         :: -> dispersion             -0.437509871109 Eh    ::
         :: -> Gsolv                  -0.065247204846 Eh    ::
         ::    -> Gelec               -0.040043561140 Eh    ::
         ::    -> Gsasa               -0.017973855212 Eh    ::
         ::    -> Ghb                 -0.008310548193 Eh    ::
         ::    -> Gshift               0.001080759698 Eh    ::
         :: repulsion energy           7.078102167826 Eh    ::
         :: add. restraining           0.000000000000 Eh    ::
         :: total charge               0.000000000000 e     ::
         :::::::::::::::::::::::::::::::::::::::::::::::::::::

           -------------------------------------------------
          |                Property Printout                |
           -------------------------------------------------

    * Orbital Energies and Occupations

         #    Occupation            Energy/Eh            Energy/eV
      -------------------------------------------------------------
         1        2.0000           -0.7481734             -20.3588
       ...           ...                  ...                  ...
       365        2.0000           -0.3925080             -10.6807
       366        2.0000           -0.3914900             -10.6530
       367        2.0000           -0.3899781             -10.6118
       368        2.0000           -0.3879625             -10.5570
       369        2.0000           -0.3869922             -10.5306
       370        2.0000           -0.3856037             -10.4928
       371        2.0000           -0.3852883             -10.4842
       372        2.0000           -0.3833494             -10.4315
       373        2.0000           -0.3828145             -10.4169
       374        2.0000           -0.3767683             -10.2524
       375        2.0000           -0.3681650             -10.0183
       376        2.0000           -0.3587025              -9.7608
       377        1.9993           -0.3494040              -9.5078 (HOMO)
       378        0.0007           -0.3342407              -9.0952 (LUMO)
       379                         -0.3243609              -8.8263
       380                         -0.3224677              -8.7748
       381                         -0.3148885              -8.5686
       382                         -0.3121563              -8.4942
       383                         -0.2968883              -8.0787
       384                         -0.2814808              -7.6595
       385                         -0.2690160              -7.3203
       386                         -0.2568161              -6.9883
       387                         -0.2537870              -6.9059
       388                         -0.2522747              -6.8647
       ...                                ...                  ...
       760                          1.1558549              31.4524
      -------------------------------------------------------------
                  HL-Gap            0.0151633 Eh            0.4126 eV
             Fermi-level           -0.3418223 Eh           -9.3015 eV

     #   Z          covCN         q      C6AA      α(0)
     1   6 C        2.961    -0.019    28.476     8.753
     2   6 C        3.008    -0.050    29.222     8.867
     3   6 C        2.876     0.228    23.229     7.901
     4   8 O        0.856    -0.442    22.534     6.364
     5   6 C        3.059    -0.027    28.618     8.773
     6   6 C        2.904    -0.026    28.642     8.775
     7   6 C        3.258     0.011    26.644     8.344
     8   6 C        3.255     0.014    26.615     8.343
     9   6 C        2.904    -0.034    28.835     8.805
    10   6 C        3.051     0.003    27.901     8.663
    11   6 C        3.025     0.034    27.218     8.558
    12   6 C        2.948    -0.014    28.368     8.736
    13   6 C        1.932     0.131    27.895     8.529
    14   7 N        0.911    -0.302    27.768     7.621
    15   6 C        1.935     0.131    27.887     8.528
    16   7 N        0.911    -0.316    28.116     7.669
    17   6 C        4.162    -0.024    20.916     6.495
    18   6 C        4.013    -0.016    20.778     6.475
    19   6 C        2.995    -0.044    29.085     8.847
    20   6 C        2.995    -0.044    29.089     8.847
    21   6 C        4.013    -0.016    20.785     6.477
    22   6 C        3.916    -0.063    21.651     6.613
    23   6 C        4.160    -0.024    20.917     6.496
    24   6 C        2.986     0.002    27.977     8.676
    25   6 C        3.038     0.062    26.571     8.455
    26   7 N        2.746    -0.059    22.384     7.027
    27   6 C        2.932     0.055    26.763     8.484
    28   6 C        2.920    -0.044    29.101     8.846
    29   6 C        2.925    -0.041    29.030     8.836
    30   6 C        2.966     0.023    27.493     8.601
    31   6 C        3.758    -0.128    23.017     6.840
    32   6 C        2.926    -0.040    28.983     8.829
    33   6 C        2.922    -0.041    29.029     8.835
    34   6 C        2.925     0.058    26.690     8.472
    35   6 C        2.922    -0.042    29.032     8.836
    36   6 C        2.925    -0.041    29.014     8.833
    37   6 C        2.966     0.019    27.572     8.613
    38   6 C        3.758    -0.122    22.890     6.821
    39   6 C        2.926    -0.041    29.016     8.834
    40   6 C        2.920    -0.047    29.157     8.855
    41   6 C        3.169    -0.003    27.718     8.602
    42  16 S        2.263    -0.050   143.107    20.134
    43   6 C        3.040     0.008    27.802     8.648
    44   6 C        3.061     0.047    26.889     8.504
    45   7 N        2.754    -0.072    22.633     7.066
    46   6 C        2.928     0.059    26.673     8.470
    47   6 C        2.922    -0.049    29.212     8.863
    48   6 C        2.925    -0.041    29.027     8.835
    49   6 C        2.965     0.012    27.742     8.639
    50   6 C        3.757    -0.120    22.847     6.815
    51   6 C        2.926    -0.043    29.075     8.843
    52   6 C        2.920    -0.049    29.220     8.864
    53   6 C        2.930     0.060    26.659     8.468
    54   6 C        2.922    -0.049    29.210     8.863
    55   6 C        2.924    -0.040    28.995     8.830
    56   6 C        2.966     0.011    27.773     8.644
    57   6 C        3.757    -0.118    22.809     6.809
    58   6 C        2.925    -0.043    29.071     8.842
    59   6 C        2.921    -0.052    29.293     8.875
    60   6 C        3.172     0.014    27.322     8.538
    61  16 S        2.279    -0.047   142.994    20.126
    62   6 C        3.037     0.016    27.629     8.621
    63   6 C        3.054    -0.059    29.408     8.894
    64   6 C        3.184     0.014    27.265     8.522
    65  16 S        2.214    -0.063   143.649    20.172
    66   6 C        3.082     0.015    27.584     8.610
    67   6 C        3.043    -0.007    28.142     8.701
    68   6 C        3.081     0.003    27.861     8.653
    69   6 C        3.951     0.016    20.233     6.392
    70   6 C        2.979     0.011    27.761     8.643
    71   6 C        2.923    -0.036    28.899     8.816
    72   6 C        2.925    -0.041    29.030     8.836
    73   6 C        2.971     0.012    27.741     8.639
    74   6 C        3.806    -0.061    21.671     6.627
    75   6 C        3.754    -0.107    22.596     6.778
    76   6 C        2.925    -0.040    28.996     8.831
    77   6 C        2.922    -0.038    28.942     8.822
    78   6 C        2.984     0.009    27.800     8.649
    79   6 C        2.924    -0.036    28.892     8.815
    80   6 C        2.925    -0.037    28.910     8.818
    81   6 C        2.971     0.012    27.743     8.640
    82   6 C        3.807    -0.062    21.692     6.630
    83   6 C        3.753    -0.105    22.556     6.772
    84   6 C        2.925    -0.042    29.051     8.839
    85   6 C        2.920    -0.040    28.988     8.829
    86   6 C        3.231    -0.014    27.532     8.520
    87   6 C        3.161     0.012    27.434     8.562
    88  16 S        2.293    -0.041   142.749    20.109
    89   6 C        2.916    -0.039    28.970     8.826
    90   6 C        3.003     0.003    27.951     8.673
    91   6 C        3.021     0.016    27.639     8.624
    92   6 C        3.126    -0.007    28.003     8.665
    93   6 C        3.921     0.017    20.229     6.392
    94   6 C        2.979     0.008    27.833     8.654
    95   6 C        2.996     0.000    28.012     8.682
    96   6 C        2.981     0.008    27.838     8.655
    97   6 C        2.918    -0.039    28.964     8.825
    98   6 C        2.915    -0.033    28.822     8.804
    99   6 C        2.922    -0.037    28.920     8.819
   100   6 C        2.986     0.007    27.850     8.657
   101   6 C        2.923    -0.039    28.959     8.825
   102   6 C        2.925    -0.043    29.066     8.841
   103   6 C        2.970     0.012    27.750     8.641
   104   6 C        3.806    -0.064    21.720     6.635
   105   6 C        3.754    -0.106    22.583     6.776
   106   6 C        2.926    -0.042    29.051     8.839
   107   6 C        2.922    -0.040    29.000     8.831
   108   6 C        2.981     0.006    27.873     8.660
   109   6 C        2.921    -0.038    28.944     8.823
   110   6 C        2.925    -0.042    29.046     8.838
   111   6 C        2.971     0.013    27.725     8.637
   112   6 C        3.806    -0.064    21.725     6.635
   113   6 C        3.754    -0.106    22.589     6.777
   114   6 C        2.925    -0.041    29.023     8.835
   115   6 C        2.924    -0.036    28.886     8.814
   116   6 C        3.175     0.011    27.380     8.546
   117   6 C        3.193     0.016    27.143     8.495
   118  16 S        2.245    -0.074   144.150    20.207
   119   6 C        3.065    -0.058    29.366     8.886
   120   6 C        3.006     0.021    27.527     8.606
   121  16 S        2.283    -0.043   142.831    20.115
   122   6 C        3.000     0.018    27.595     8.617
   123   6 C        2.918    -0.020    28.505     8.755
   124   6 C        3.044    -0.025    28.577     8.768
   125   6 C        2.864     0.240    23.002     7.861
   126   8 O        0.856    -0.416    21.994     6.288
   127   6 C        3.043    -0.025    28.588     8.770
   128   6 C        3.040     0.020    27.526     8.605
   129   6 C        3.038     0.008    27.794     8.647
   130   6 C        2.911    -0.027    28.676     8.781
   131   6 C        2.927    -0.028    28.711     8.787
   132   6 C        2.910    -0.030    28.739     8.791
   133   6 C        2.929    -0.023    28.581     8.767
   134   6 C        2.971     0.025    27.450     8.594
   135   6 C        2.915    -0.002    28.079     8.689
   136   6 C        2.904    -0.005    28.156     8.701
   137   6 C        2.997    -0.030    28.738     8.794
   138   6 C        2.864     0.236    23.079     7.875
   139   8 O        0.856    -0.420    22.077     6.300
   140   6 C        3.056    -0.021    28.472     8.751
   141   6 C        2.904    -0.023    28.589     8.767
   142   6 C        3.258     0.017    26.491     8.319
   143   6 C        3.255     0.017    26.533     8.331
   144   6 C        2.904    -0.033    28.814     8.802
   145   6 C        3.042     0.007    27.826     8.652
   146   6 C        3.015     0.039    27.100     8.539
   147   6 C        2.947     0.005    27.900     8.663
   148   6 C        1.949     0.136    27.753     8.508
   149   7 N        0.911    -0.277    27.162     7.538
   150   6 C        1.947     0.133    27.838     8.521
   151   7 N        0.911    -0.279    27.197     7.543
   152   6 C        4.161    -0.025    20.932     6.498
   153   6 C        4.013    -0.016    20.785     6.477
   154   6 C        2.995    -0.044    29.071     8.845
   155   6 C        2.995    -0.044    29.081     8.846
   156   6 C        4.013    -0.016    20.781     6.476
   157   6 C        3.915    -0.062    21.635     6.611
   158   6 C        4.160    -0.025    20.929     6.497
   159   1 H        0.925     0.069     2.101     2.267
   160   1 H        0.926     0.060     2.200     2.319
   161   1 H        0.926     0.050     2.316     2.380
   162   1 H        0.925     0.050     2.317     2.380
   163   1 H        0.925     0.041     2.429     2.437
   164   1 H        0.926     0.042     2.421     2.433
   165   1 H        0.926     0.043     2.413     2.429
   166   1 H        0.925     0.043     2.408     2.427
   167   1 H        0.925     0.046     2.376     2.411
   168   1 H        0.925     0.041     2.442     2.444
   169   1 H        0.925     0.051     2.309     2.376
   170   1 H        0.926     0.045     2.378     2.412
   171   1 H        0.926     0.058     2.228     2.334
   172   1 H        0.925     0.062     2.173     2.305
   173   1 H        0.925     0.068     2.112     2.273
   174   1 H        0.925     0.059     2.207     2.323
   175   1 H        0.926     0.049     2.338     2.391
   176   1 H        0.926     0.021     2.720     2.579
   177   1 H        0.926     0.037     2.493     2.469
   178   1 H        0.926     0.052     2.299     2.371
   179   1 H        0.924     0.059     2.213     2.326
   180   1 H        0.925     0.061     2.185     2.311
   181   1 H        0.925     0.064     2.154     2.295
   182   1 H        0.926     0.049     2.327     2.385
   183   1 H        0.926     0.032     2.555     2.500
   184   1 H        0.926     0.020     2.727     2.582
   185   1 H        0.926     0.037     2.483     2.464
   186   1 H        0.925     0.054     2.272     2.357
   187   1 H        0.924     0.059     2.215     2.327
   188   1 H        0.925     0.048     2.342     2.393
   189   1 H        0.926     0.044     2.396     2.420
   190   1 H        0.926     0.039     2.466     2.456
   191   1 H        0.926     0.039     2.462     2.454
   192   1 H        0.926     0.040     2.453     2.449
   193   1 H        0.925     0.052     2.290     2.366
   194   1 H        0.925     0.057     2.231     2.336
   195   1 H        0.925     0.047     2.353     2.399
   196   1 H        0.926     0.038     2.473     2.459
   197   1 H        0.926     0.019     2.741     2.589
   198   1 H        0.926     0.060     2.198     2.318
   199   1 H        0.926     0.033     2.546     2.495
   200   1 H        0.926     0.039     2.458     2.452
   201   1 H        0.924     0.039     2.460     2.453
   202   1 H        0.924     0.043     2.414     2.430
   203   1 H        0.925     0.039     2.467     2.456
   204   1 H        0.925     0.038     2.473     2.459
   205   1 H        0.925     0.044     2.395     2.420
   206   1 H        0.926     0.038     2.478     2.462
   207   1 H        0.926     0.024     2.676     2.558
   208   1 H        0.926     0.034     2.530     2.488
   209   1 H        0.926     0.031     2.567     2.505
   210   1 H        0.924     0.044     2.397     2.421
   211   1 H        0.924     0.040     2.444     2.445
   212   1 H        0.925     0.044     2.400     2.423
   213   1 H        0.925     0.038     2.473     2.459
   214   1 H        0.925     0.037     2.485     2.465
   215   1 H        0.926     0.037     2.493     2.469
   216   1 H        0.926     0.028     2.617     2.530
   217   1 H        0.926     0.046     2.373     2.409
   218   1 H        0.926     0.047     2.353     2.399
   219   1 H        0.926     0.048     2.348     2.396
   220   1 H        0.926     0.041     2.429     2.437
   221   1 H        0.926     0.039     2.459     2.452
   222   1 H        0.926     0.039     2.455     2.450
   223   1 H        0.924     0.042     2.424     2.435
   224   1 H        0.924     0.043     2.409     2.427
   225   1 H        0.925     0.037     2.483     2.464
   226   1 H        0.925     0.038     2.475     2.460
   227   1 H        0.925     0.044     2.402     2.423
   228   1 H        0.926     0.035     2.512     2.478
   229   1 H        0.926     0.027     2.628     2.535
   230   1 H        0.926     0.036     2.506     2.475
   231   1 H        0.926     0.040     2.453     2.449
   232   1 H        0.924     0.044     2.396     2.421
   233   1 H        0.924     0.041     2.431     2.438
   234   1 H        0.925     0.037     2.488     2.467
   235   1 H        0.925     0.039     2.461     2.453
   236   1 H        0.925     0.043     2.407     2.426
   237   1 H        0.926     0.034     2.536     2.490
   238   1 H        0.925     0.019     2.753     2.595
   239   1 H        0.926     0.056     2.244     2.343
   240   1 H        0.926     0.055     2.252     2.347
   241   1 H        0.926     0.073     2.054     2.241
   242   1 H        0.926     0.072     2.064     2.247
   243   1 H        0.926     0.078     2.005     2.214
   244   1 H        0.926     0.074     2.045     2.236
   245   1 H        0.926     0.058     2.224     2.332
   246   1 H        0.925     0.075     2.034     2.230
   247   1 H        0.926     0.067     2.118     2.276
   248   1 H        0.926     0.059     2.209     2.324
   249   1 H        0.925     0.057     2.233     2.337
   250   1 H        0.925     0.044     2.397     2.421
   251   1 H        0.926     0.045     2.380     2.412
   252   1 H        0.926     0.045     2.380     2.413
   253   1 H        0.925     0.044     2.396     2.421
   254   1 H        0.925     0.046     2.375     2.410
   255   1 H        0.925     0.034     2.530     2.487
   256   1 H        0.925     0.058     2.226     2.333

 Mol. C6AA /au·bohr⁶  :    1017664.560224
 Mol. C8AA /au·bohr⁸  :   27261420.765244
 Mol. α(0) /au        :       1612.644559


Wiberg/Mayer (AO) data.
largest (>0.10) Wiberg bond orders for each atom

 ---------------------------------------------------------------------------
     #   Z sym  total        # sym  WBO       # sym  WBO       # sym  WBO
 ---------------------------------------------------------------------------
     1   6 C    3.944 --     2 C    1.455    24 C    1.330   159 H    0.950
     2   6 C    3.952 --     1 C    1.455    11 C    1.189     3 C    1.034
     3   6 C    3.911 --     4 O    1.719     2 C    1.034     5 C    1.023
     4   8 O    1.993 --     3 C    1.719
     5   6 C    3.972 --     6 C    1.380    10 C    1.312     3 C    1.023
     6   6 C    3.979 --     7 C    1.440     5 C    1.380   160 H    0.963
     7   6 C    3.955 --     6 C    1.440     8 C    1.327    23 C    0.992
     8   6 C    3.965 --     9 C    1.444     7 C    1.327    17 C    0.994
     9   6 C    3.977 --     8 C    1.444    10 C    1.371   161 H    0.960
    10   6 C    3.980 --     9 C    1.371     5 C    1.312    11 C    1.076
    11   6 C    3.972 --    12 C    1.399     2 C    1.189    10 C    1.076
    12   6 C    3.958 --    11 C    1.399    15 C    1.122    13 C    1.119
    13   6 C    3.941 --    14 N    2.729    12 C    1.119
    14   7 N    2.949 --    13 C    2.729
    15   6 C    3.941 --    16 N    2.719    12 C    1.122
    16   7 N    2.951 --    15 C    2.719
    17   6 C    3.983 --     8 C    0.994    23 C    0.975   162 H    0.960
                            18 C    0.950
    18   6 C    3.988 --    19 C    1.004    22 C    0.989   163 H    0.970
                            17 C    0.950
    19   6 C    3.981 --    20 C    1.924    18 C    1.004   164 H    0.971
    20   6 C    3.981 --    19 C    1.924    21 C    1.004   165 H    0.970
    21   6 C    3.988 --    20 C    1.004    22 C    0.989   166 H    0.970
                            23 C    0.950
    22   6 C    3.993 --    21 C    0.989    18 C    0.989   167 H    0.978
                           168 H    0.970
    23   6 C    3.982 --     7 C    0.992    17 C    0.975   169 H    0.960
                            21 C    0.950
    24   6 C    3.917 --     1 C    1.330    25 C    1.292    61 S    1.060
    25   6 C    3.959 --    24 C    1.292    41 C    1.255    26 N    1.151
    26   7 N    3.532 --    25 C    1.151    34 C    1.043    27 C    1.016
    27   6 C    3.956 --    28 C    1.377    33 C    1.369    26 N    1.016
    28   6 C    3.976 --    29 C    1.454    27 C    1.377   170 H    0.966
                            32 C    0.104
    29   6 C    3.988 --    28 C    1.454    30 C    1.402   171 H    0.966
                            33 C    0.102
    30   6 C    3.972 --    29 C    1.402    32 C    1.398    31 C    1.031
    31   6 C    3.992 --    30 C    1.031   174 H    0.983   172 H    0.973
                           173 H    0.964
    32   6 C    3.988 --    33 C    1.457    30 C    1.398   175 H    0.968
                            28 C    0.104
    33   6 C    3.988 --    32 C    1.457    27 C    1.369   176 H    0.965
                            29 C    0.102
    34   6 C    3.959 --    40 C    1.364    35 C    1.358    26 N    1.043
    35   6 C    3.984 --    36 C    1.455    34 C    1.358   177 H    0.966
    36   6 C    3.989 --    35 C    1.455    37 C    1.402   178 H    0.965
                            40 C    0.102
    37   6 C    3.975 --    36 C    1.402    39 C    1.391    38 C    1.031
    38   6 C    3.992 --    37 C    1.031   180 H    0.979   181 H    0.978
                           179 H    0.961
    39   6 C    3.986 --    40 C    1.464    37 C    1.391   182 H    0.967
    40   6 C    3.983 --    39 C    1.464    34 C    1.364   183 H    0.967
                            36 C    0.102
    41   6 C    3.926 --    60 C    1.345    25 C    1.255    42 S    1.098
    42  16 S    2.536 --    41 C    1.098    43 C    1.094
    43   6 C    3.908 --    44 C    1.389    62 C    1.208    42 S    1.094
    44   6 C    3.944 --    43 C    1.389    60 C    1.249    45 N    1.057
    45   7 N    3.485 --    53 C    1.058    44 C    1.057    46 C    1.047
    46   6 C    3.961 --    47 C    1.372    52 C    1.361    45 N    1.047
    47   6 C    3.984 --    48 C    1.451    46 C    1.372   184 H    0.968
                            51 C    0.104
    48   6 C    3.990 --    47 C    1.451    49 C    1.408   185 H    0.967
                            52 C    0.103
    49   6 C    3.976 --    48 C    1.408    51 C    1.394    50 C    1.027
    50   6 C    3.994 --    49 C    1.027   188 H    0.985   186 H    0.974
                           187 H    0.968
    51   6 C    3.989 --    52 C    1.466    49 C    1.394   189 H    0.969
                            47 C    0.104
    52   6 C    3.984 --    51 C    1.466    46 C    1.361   190 H    0.967
                            48 C    0.103
    53   6 C    3.962 --    59 C    1.364    54 C    1.352    45 N    1.058
    54   6 C    3.984 --    55 C    1.460    53 C    1.352   191 H    0.964
                            58 C    0.104
    55   6 C    3.990 --    54 C    1.460    56 C    1.401   192 H    0.968
                            59 C    0.101
    56   6 C    3.974 --    55 C    1.401    58 C    1.400    57 C    1.027
    57   6 C    3.995 --    56 C    1.027   195 H    0.984   193 H    0.975
                           194 H    0.968
    58   6 C    3.989 --    59 C    1.460    56 C    1.400   196 H    0.969
                            54 C    0.104
    59   6 C    3.984 --    58 C    1.460    53 C    1.364   197 H    0.968
                            55 C    0.101
    60   6 C    3.934 --    41 C    1.345    44 C    1.249    61 S    1.124
    61  16 S    2.502 --    60 C    1.124    24 C    1.060
    62   6 C    3.919 --    63 C    1.441    43 C    1.208    88 S    1.091
    63   6 C    3.951 --    62 C    1.441    64 C    1.335   198 H    0.959
    64   6 C    3.921 --    63 C    1.335    87 C    1.303    65 S    1.094
    65  16 S    2.514 --    66 C    1.112    64 C    1.094
    66   6 C    3.905 --    86 C    1.418    67 C    1.164    65 S    1.112
    67   6 C    3.951 --    68 C    1.340    96 C    1.223    66 C    1.164
    68   6 C    3.962 --    89 C    1.398    67 C    1.340    69 C    0.973
    69   6 C    3.987 --    86 C    0.975    68 C    0.973    78 C    0.952
                            70 C    0.946
    70   6 C    3.980 --    77 C    1.416    71 C    1.401    69 C    0.946
                            73 C    0.105
    71   6 C    3.990 --    72 C    1.455    70 C    1.401   199 H    0.967
                            76 C    0.109
    72   6 C    3.989 --    71 C    1.455    73 C    1.404   200 H    0.968
                            77 C    0.108
    73   6 C    3.986 --    76 C    1.415    72 C    1.404    74 C    1.013
                            70 C    0.105
    74   6 C    3.997 --    73 C    1.013    75 C    1.000   201 H    0.974
                           202 H    0.973
    75   6 C    3.995 --    74 C    1.000   204 H    0.988   203 H    0.988
                           205 H    0.986
    76   6 C    3.990 --    77 C    1.441    73 C    1.415   206 H    0.968
                            71 C    0.109
    77   6 C    3.990 --    76 C    1.441    70 C    1.416   207 H    0.967
                            72 C    0.108
    78   6 C    3.981 --    85 C    1.418    79 C    1.395    69 C    0.952
                            81 C    0.105
    79   6 C    3.989 --    80 C    1.456    78 C    1.395   208 H    0.960
                            84 C    0.108
    80   6 C    3.989 --    79 C    1.456    81 C    1.402   209 H    0.968
                            85 C    0.107
    81   6 C    3.986 --    84 C    1.416    80 C    1.402    82 C    1.013
                            78 C    0.105
    82   6 C    3.996 --    81 C    1.013    83 C    1.001   211 H    0.975
                           210 H    0.969
    83   6 C    3.995 --    82 C    1.001   214 H    0.988   213 H    0.988
                           212 H    0.986
    84   6 C    3.990 --    85 C    1.439    81 C    1.416   215 H    0.968
                            79 C    0.108
    85   6 C    3.989 --    84 C    1.439    78 C    1.418   216 H    0.967
                            80 C    0.107
    86   6 C    3.953 --    66 C    1.418    87 C    1.297    69 C    0.975
    87   6 C    3.930 --    64 C    1.303    86 C    1.297    88 S    1.127
    88  16 S    2.617 --    87 C    1.127    62 C    1.091
    89   6 C    3.968 --    90 C    1.398    68 C    1.398   217 H    0.958
    90   6 C    3.952 --    89 C    1.398    95 C    1.205    91 C    1.158
    91   6 C    3.919 --    92 C    1.458    90 C    1.158   118 S    1.092
    92   6 C    3.960 --    91 C    1.458   116 C    1.268    93 C    0.968
    93   6 C    3.987 --    94 C    0.972    92 C    0.968   108 C    0.964
                           100 C    0.941
    94   6 C    3.979 --    99 C    1.495    95 C    1.282    93 C    0.972
                            97 C    0.111
    95   6 C    3.978 --    94 C    1.282    96 C    1.256    90 C    1.205
    96   6 C    3.980 --    97 C    1.300    95 C    1.256    67 C    1.223
    97   6 C    3.981 --    98 C    1.529    96 C    1.300   218 H    0.961
                            94 C    0.111
    98   6 C    3.978 --    97 C    1.529    99 C    1.347   219 H    0.969
    99   6 C    3.980 --    94 C    1.495    98 C    1.347   220 H    0.965
   100   6 C    3.978 --   107 C    1.415   101 C    1.399    93 C    0.941
                           103 C    0.105
   101   6 C    3.990 --   102 C    1.454   100 C    1.399   221 H    0.962
                           106 C    0.109
   102   6 C    3.989 --   101 C    1.454   103 C    1.403   222 H    0.968
                           107 C    0.107
   103   6 C    3.984 --   106 C    1.414   102 C    1.403   104 C    1.013
                           100 C    0.105
   104   6 C    3.996 --   103 C    1.013   105 C    1.000   224 H    0.974
                           223 H    0.973
   105   6 C    3.995 --   104 C    1.000   226 H    0.988   225 H    0.988
                           227 H    0.986
   106   6 C    3.990 --   107 C    1.442   103 C    1.414   228 H    0.969
                           101 C    0.109
   107   6 C    3.988 --   106 C    1.442   100 C    1.415   229 H    0.966
                           102 C    0.107
   108   6 C    3.982 --   109 C    1.412   115 C    1.403    93 C    0.964
                           111 C    0.106
   109   6 C    3.989 --   110 C    1.443   108 C    1.412   230 H    0.965
                           114 C    0.107
   110   6 C    3.990 --   109 C    1.443   111 C    1.413   231 H    0.968
                           115 C    0.108
   111   6 C    3.986 --   110 C    1.413   114 C    1.405   112 C    1.013
                           108 C    0.106
   112   6 C    3.996 --   111 C    1.013   113 C    1.000   233 H    0.974
                           232 H    0.974
   113   6 C    3.995 --   112 C    1.000   234 H    0.988   235 H    0.988
                           236 H    0.986
   114   6 C    3.990 --   115 C    1.453   111 C    1.405   237 H    0.969
                           109 C    0.107
   115   6 C    3.991 --   114 C    1.453   108 C    1.403   238 H    0.969
                           110 C    0.108
   116   6 C    3.933 --   117 C    1.337    92 C    1.268   121 S    1.118
   117   6 C    3.926 --   116 C    1.337   119 C    1.300   118 S    1.108
   118  16 S    2.514 --   117 C    1.108    91 C    1.092
   119   6 C    3.973 --   120 C    1.506   117 C    1.300   239 H    0.959
   120   6 C    3.920 --   119 C    1.506   122 C    1.125   121 S    1.106
   121  16 S    2.559 --   116 C    1.118   120 C    1.106
   122   6 C    3.959 --   131 C    1.369   123 C    1.317   120 C    1.125
   123   6 C    3.976 --   124 C    1.467   122 C    1.317   240 H    0.963
   124   6 C    3.978 --   123 C    1.467   129 C    1.276   125 C    1.010
   125   6 C    3.908 --   126 O    1.775   127 C    1.011   124 C    1.010
   126   8 O    2.040 --   125 C    1.775
   127   6 C    3.980 --   135 C    1.468   128 C    1.275   125 C    1.011
   128   6 C    3.963 --   132 C    1.401   127 C    1.275   129 C    1.078
   129   6 C    3.957 --   130 C    1.407   124 C    1.276   128 C    1.078
   130   6 C    3.967 --   131 C    1.437   129 C    1.407   241 H    0.964
   131   6 C    3.967 --   130 C    1.437   122 C    1.369   242 H    0.960
   132   6 C    3.968 --   133 C    1.446   128 C    1.401   243 H    0.963
   133   6 C    3.963 --   132 C    1.446   134 C    1.353   244 H    0.965
   134   6 C    3.964 --   133 C    1.353   135 C    1.314   136 C    1.147
   135   6 C    3.970 --   127 C    1.468   134 C    1.314   245 H    0.964
   136   6 C    3.936 --   137 C    1.620   134 C    1.147   246 H    0.941
   137   6 C    3.969 --   136 C    1.620   146 C    1.117   138 C    1.014
   138   6 C    3.911 --   139 O    1.743   140 C    1.036   137 C    1.014
   139   8 O    2.025 --   138 C    1.743
   140   6 C    3.972 --   141 C    1.374   145 C    1.300   138 C    1.036
   141   6 C    3.980 --   142 C    1.444   140 C    1.374   247 H    0.963
   142   6 C    3.951 --   141 C    1.444   143 C    1.313   158 C    0.995
   143   6 C    3.964 --   144 C    1.456   142 C    1.313   152 C    0.995
   144   6 C    3.977 --   143 C    1.456   145 C    1.355   248 H    0.958
   145   6 C    3.981 --   144 C    1.355   140 C    1.300   146 C    1.103
   146   6 C    3.970 --   147 C    1.483   137 C    1.117   145 C    1.103
   147   6 C    3.955 --   146 C    1.483   150 C    1.099   148 C    1.098
   148   6 C    3.941 --   149 N    2.752   147 C    1.098
   149   7 N    2.961 --   148 C    2.752
   150   6 C    3.941 --   151 N    2.744   147 C    1.099
   151   7 N    2.957 --   150 C    2.744
   152   6 C    3.982 --   143 C    0.995   158 C    0.974   249 H    0.959
                           153 C    0.949
   153   6 C    3.988 --   154 C    1.004   157 C    0.989   250 H    0.970
                           152 C    0.949
   154   6 C    3.980 --   155 C    1.923   153 C    1.004   251 H    0.970
   155   6 C    3.980 --   154 C    1.923   156 C    1.004   252 H    0.970
   156   6 C    3.987 --   155 C    1.004   157 C    0.989   253 H    0.970
                           158 C    0.948
   157   6 C    3.993 --   156 C    0.989   153 C    0.989   254 H    0.978
                           255 H    0.974
   158   6 C    3.981 --   142 C    0.995   152 C    0.974   256 H    0.958
                           156 C    0.948
   159   1 H    0.992 --     1 C    0.950
   160   1 H    0.996 --     6 C    0.963
   161   1 H    0.997 --     9 C    0.960
   162   1 H    0.996 --    17 C    0.960
   163   1 H    0.998 --    18 C    0.970
   164   1 H    0.998 --    19 C    0.971
   165   1 H    0.998 --    20 C    0.970
   166   1 H    0.998 --    21 C    0.970
   167   1 H    0.998 --    22 C    0.978
   168   1 H    0.998 --    22 C    0.970
   169   1 H    0.996 --    23 C    0.960
   170   1 H    0.998 --    28 C    0.966
   171   1 H    0.996 --    29 C    0.966
   172   1 H    0.995 --    31 C    0.973
   173   1 H    0.994 --    31 C    0.964
   174   1 H    0.996 --    31 C    0.983
   175   1 H    0.997 --    32 C    0.968
   176   1 H    0.999 --    33 C    0.965
   177   1 H    0.998 --    35 C    0.966
   178   1 H    0.997 --    36 C    0.965
   179   1 H    0.994 --    38 C    0.961
   180   1 H    0.995 --    38 C    0.979
   181   1 H    0.995 --    38 C    0.978
   182   1 H    0.997 --    39 C    0.967
   183   1 H    0.999 --    40 C    0.967
   184   1 H    0.999 --    47 C    0.968
   185   1 H    0.998 --    48 C    0.967
   186   1 H    0.996 --    50 C    0.974
   187   1 H    0.995 --    50 C    0.968
   188   1 H    0.997 --    50 C    0.985
   189   1 H    0.997 --    51 C    0.969
   190   1 H    0.998 --    52 C    0.967
   191   1 H    0.998 --    54 C    0.964
   192   1 H    0.998 --    55 C    0.968
   193   1 H    0.996 --    57 C    0.975
   194   1 H    0.995 --    57 C    0.968
   195   1 H    0.997 --    57 C    0.984
   196   1 H    0.998 --    58 C    0.969
   197   1 H    0.999 --    59 C    0.968
   198   1 H    0.996 --    63 C    0.959
   199   1 H    0.999 --    71 C    0.967
   200   1 H    0.998 --    72 C    0.968
   201   1 H    0.998 --    74 C    0.974
   202   1 H    0.998 --    74 C    0.973
   203   1 H    0.998 --    75 C    0.988
   204   1 H    0.999 --    75 C    0.988
   205   1 H    0.997 --    75 C    0.986
   206   1 H    0.998 --    76 C    0.968
   207   1 H    0.999 --    77 C    0.967
   208   1 H    0.998 --    79 C    0.960
   209   1 H    0.998 --    80 C    0.968
   210   1 H    0.998 --    82 C    0.969
   211   1 H    0.998 --    82 C    0.975
   212   1 H    0.997 --    83 C    0.986
   213   1 H    0.999 --    83 C    0.988
   214   1 H    0.999 --    83 C    0.988
   215   1 H    0.998 --    84 C    0.968
   216   1 H    0.999 --    85 C    0.967
   217   1 H    0.996 --    89 C    0.958
   218   1 H    0.996 --    97 C    0.961
   219   1 H    0.996 --    98 C    0.969
   220   1 H    0.998 --    99 C    0.965
   221   1 H    0.998 --   101 C    0.962
   222   1 H    0.998 --   102 C    0.968
   223   1 H    0.998 --   104 C    0.973
   224   1 H    0.998 --   104 C    0.974
   225   1 H    0.999 --   105 C    0.988
   226   1 H    0.999 --   105 C    0.988
   227   1 H    0.997 --   105 C    0.986
   228   1 H    0.998 --   106 C    0.969
   229   1 H    0.999 --   107 C    0.966
   230   1 H    0.998 --   109 C    0.965
   231   1 H    0.998 --   110 C    0.968
   232   1 H    0.998 --   112 C    0.974
   233   1 H    0.998 --   112 C    0.974
   234   1 H    0.999 --   113 C    0.988
   235   1 H    0.998 --   113 C    0.988
   236   1 H    0.997 --   113 C    0.986
   237   1 H    0.998 --   114 C    0.969
   238   1 H    0.999 --   115 C    0.969
   239   1 H    0.996 --   119 C    0.959
   240   1 H    0.996 --   123 C    0.963
   241   1 H    0.994 --   130 C    0.964
   242   1 H    0.994 --   131 C    0.960
   243   1 H    0.993 --   132 C    0.963
   244   1 H    0.994 --   133 C    0.965
   245   1 H    0.996 --   135 C    0.964
   246   1 H    0.993 --   136 C    0.941
   247   1 H    0.995 --   141 C    0.963
   248   1 H    0.996 --   144 C    0.958
   249   1 H    0.995 --   152 C    0.959
   250   1 H    0.998 --   153 C    0.970
   251   1 H    0.998 --   154 C    0.970
   252   1 H    0.998 --   155 C    0.970
   253   1 H    0.998 --   156 C    0.970
   254   1 H    0.998 --   157 C    0.978
   255   1 H    0.999 --   157 C    0.974
   256   1 H    0.994 --   158 C    0.958
 ---------------------------------------------------------------------------

Topologies differ in bond orders
Writing corrected topology to xtbtopo.mol

molecular dipole:
                 x           y           z       tot (Debye)
 q only:       -2.802      -1.312      -0.236
   full:       -2.014      -0.795       0.160       5.519
molecular quadrupole (traceless):
                xx          xy          yy          xz          yz          zz
 q only:      -40.614       3.241      93.696    -208.942      54.237     -53.082
  q+dip:      -27.055      -3.130      93.155    -208.017      47.935     -66.100
   full:      -19.003      -3.856      82.595    -213.438      54.344     -63.591


           -------------------------------------------------
          | TOTAL ENERGY             -405.394368261296 Eh   |
          | GRADIENT NORM               0.043618389041 Eh/α |
          | HOMO-LUMO GAP               0.412614739732 eV   |
           -------------------------------------------------

------------------------------------------------------------------------
 * finished run on 2022/02/17 at 21:54:33.822     
------------------------------------------------------------------------
 total:
 * wall-time:     0 d,  0 h,  0 min,  1.431 sec
 *  cpu-time:     0 d,  0 h,  0 min,  9.805 sec
 * ratio c/w:     6.854 speedup
 SCF:
 * wall-time:     0 d,  0 h,  0 min,  1.284 sec
 *  cpu-time:     0 d,  0 h,  0 min,  8.903 sec
 * ratio c/w:     6.935 speedup

