      -----------------------------------------------------------      
     |                   =====================                   |     
     |                           x T B                           |     
     |                   =====================                   |     
     |                         S. Grimme                         |     
     |          Mulliken Center for Theoretical Chemistry        |     
     |                    University of Bonn                     |     
      -----------------------------------------------------------      

   * xtb version 6.4.1 (unknown) compiled by 'oda6@login1.crc.pitt.edu' on 2021-06-25

   xtb is free software: you can redistribute it and/or modify it under
   the terms of the GNU Lesser General Public License as published by
   the Free Software Foundation, either version 3 of the License, or
   (at your option) any later version.
   
   xtb is distributed in the hope that it will be useful,
   but WITHOUT ANY WARRANTY; without even the implied warranty of
   MERCHANTABILITY or FITNESS FOR A PARTICULAR PURPOSE.  See the
   GNU Lesser General Public License for more details.
   
   Cite this work as:
   * C. Bannwarth, E. Caldeweyher, S. Ehlert, A. Hansen, P. Pracht,
     J. Seibert, S. Spicher, S. Grimme, WIREs Comput. Mol. Sci., 2020, 11,
     e01493. DOI: 10.1002/wcms.1493
   
   for GFN2-xTB:
   * C. Bannwarth, S. Ehlert and S. Grimme., J. Chem. Theory Comput., 2019,
     15, 1652-1671. DOI: 10.1021/acs.jctc.8b01176
   for GFN1-xTB:
   * S. Grimme, C. Bannwarth, P. Shushkov, J. Chem. Theory Comput., 2017,
     13, 1989-2009. DOI: 10.1021/acs.jctc.7b00118
   for GFN0-xTB:
   * P. Pracht, E. Caldeweyher, S. Ehlert, S. Grimme, ChemRxiv, 2019, preprint.
     DOI: 10.26434/chemrxiv.8326202.v1
   for GFN-FF:
   * S. Spicher and S. Grimme, Angew. Chem. Int. Ed., 2020, 59, 15665-15673.
     DOI: 10.1002/anie.202004239
   
   for DFT-D4:
   * E. Caldeweyher, C. Bannwarth and S. Grimme, J. Chem. Phys., 2017,
     147, 034112. DOI: 10.1063/1.4993215
   * E. Caldeweyher, S. Ehlert, A. Hansen, H. Neugebauer, S. Spicher,
     C. Bannwarth and S. Grimme, J. Chem. Phys., 2019, 150, 154122.
     DOI: 10.1063/1.5090222
   * E. Caldeweyher, J.-M. Mewes, S. Ehlert and S. Grimme, Phys. Chem. Chem. Phys.
     2020, 22, 8499-8512. DOI: 10.1039/D0CP00502A
   
   for sTDA-xTB:
   * S. Grimme and C. Bannwarth, J. Chem. Phys., 2016, 145, 054103.
     DOI: 10.1063/1.4959605
   
   in the mass-spec context:
   * V. Asgeirsson, C. Bauer and S. Grimme, Chem. Sci., 2017, 8, 4879.
     DOI: 10.1039/c7sc00601b
   * J. Koopman and S. Grimme, ACS Omega 2019, 4, 12, 15120-15133.
     DOI: 10.1021/acsomega.9b02011
   
   for metadynamics refer to:
   * S. Grimme, J. Chem. Theory Comput., 2019, 155, 2847-2862
     DOI: 10.1021/acs.jctc.9b00143
   
   for SPH calculations refer to:
   * S. Spicher and S. Grimme, J. Chem. Theory Comput., 2021, 17, 1701-1714
     DOI: 10.1021/acs.jctc.0c01306
   
   with help from (in alphabetical order)
   P. Atkinson, C. Bannwarth, F. Bohle, G. Brandenburg, E. Caldeweyher
   M. Checinski, S. Dohm, S. Ehlert, S. Ehrlich, I. Gerasimov, J. Koopman
   C. Lavigne, S. Lehtola, F. März, M. Müller, F. Musil, H. Neugebauer
   J. Pisarek, C. Plett, P. Pracht, J. Seibert, P. Shushkov, S. Spicher
   M. Stahn, M. Steiner, T. Strunk, J. Stückrath, T. Rose, and J. Unsleber
   
 * started run on 2022/02/23 at 16:23:26.644     

           -------------------------------------------------
          |                Calculation Setup                |
           -------------------------------------------------

          program call               : /ihome/ghutchison/oda6/xtb/xtb-641/bin/xtb ../../GFN2_output/39_28_86_28_40.mol --sp --alpb water
          hostname                   : smp-n9
          coordinate file            : ../../GFN2_output/39_28_86_28_40.mol
          omp threads                :                     8
          number of atoms            :                   261
          number of electrons        :                   778
          charge                     :                     0
          spin                       :                   0.0
          first test random number   :      0.16860872475977

   ID    Z sym.   atoms
    1    6 C      1-3, 5-13, 15, 17-25, 27-41, 43, 44, 46-60, 62-72, 74-77,
                  81, 82, 84-94, 96, 97, 99, 100, 102, 103, 105-110, 112-126,
                  128, 129, 131-145, 147, 148, 150-152, 154, 157-159
    2    8 O      4, 160
    3    7 N      14, 16, 26, 45, 78, 80, 98, 101, 111, 130, 153, 155, 156
    4   16 S      42, 61, 73, 79, 83, 95, 104, 127, 146, 149
    5    1 H      161-261

           -------------------------------------------------
          |                 G F N 2 - x T B                 |
           -------------------------------------------------

        Reference                      10.1021/acs.jctc.8b01176
      * Hamiltonian:
        H0-scaling (s, p, d)           1.850000    2.230000    2.230000
        zeta-weighting                 0.500000
      * Dispersion:
        s8                             2.700000
        a1                             0.520000
        a2                             5.000000
        s9                             5.000000
      * Repulsion:
        kExp                           1.500000    1.000000
        rExp                           1.000000
      * Coulomb:
        alpha                          2.000000
        third order                    shell-resolved
        anisotropic                    true
        a3                             3.000000
        a5                             4.000000
        cn-shift                       1.200000
        cn-exp                         4.000000
        max-rad                        5.000000

      * Solvation model:               ALPB
        Solvent                        water
        Parameter file                 internal GFN2-xTB/ALPB
        Dielectric constant                8.0200E+01
        Reference state                gsolv [1 M gas/solution]
        Free energy shift                  1.0808E-03 Eh       6.7819E-01 kcal/mol
        Temperature                        2.9815E+02 K
        Density                            1.0000E+00 kg/L
        Solvent mass                       1.8000E+01 g/mol
        Interaction kernel             P16
        Born radius scaling (c1)           1.4744E+00
        Born radii integrator          GBOBC
        Born offset                        0.0000E+00 a0       0.0000E+00 AA
        H-bond correction              true
        Ion screening                  false
        Surface tension                    1.0000E-05 Eh       1.5569E+01 dyn/cm
        Grid points                               230 per atom

          ...................................................
          :                      SETUP                      :
          :.................................................:
          :  # basis functions                 801          :
          :  # atomic orbitals                 791          :
          :  # shells                          431          :
          :  # electrons                       778          :
          :  max. iterations                   250          :
          :  Hamiltonian                  GFN2-xTB          :
          :  restarted?                      false          :
          :  GBSA solvation                   true          :
          :  PC potential                    false          :
          :  electronic temp.          300.0000000     K    :
          :  accuracy                    1.0000000          :
          :  -> integral cutoff          0.2500000E+02      :
          :  -> integral neglect         0.1000000E-07      :
          :  -> SCF convergence          0.1000000E-05 Eh   :
          :  -> wf. convergence          0.1000000E-03 e    :
          :  Broyden damping             0.4000000          :
          ...................................................

 iter      E             dE          RMSdq      gap      omega  full diag
   1   -425.8665429 -0.425867E+03  0.412E+00    0.64       0.0  T
   2   -426.2153977 -0.348855E+00  0.249E+00    0.85       1.0  T
   3   -426.0991650  0.116233E+00  0.122E+00    0.62       1.0  T
   4   -426.2972576 -0.198093E+00  0.449E-01    0.77       1.0  T
   5   -426.3285515 -0.312939E-01  0.153E-01    0.65       1.0  T
   6   -426.3305069 -0.195542E-02  0.756E-02    0.69       1.0  T
   7   -426.3310678 -0.560823E-03  0.303E-02    0.68       1.0  T
   8   -426.3311146 -0.467926E-04  0.169E-02    0.69       1.0  T
   9   -426.3311356 -0.210842E-04  0.930E-03    0.68       1.0  T
  10   -426.3311423 -0.665790E-05  0.516E-03    0.68       1.2  T
  11   -426.3311441 -0.182766E-05  0.288E-03    0.68       2.2  T
  12   -426.3311446 -0.470984E-06  0.157E-03    0.68       3.9  T
  13   -426.3311448 -0.194016E-06  0.757E-04    0.68       8.2  T
  14   -426.3311449 -0.641464E-07  0.386E-04    0.68      16.1  T

   *** convergence criteria satisfied after 14 iterations ***

         #    Occupation            Energy/Eh            Energy/eV
      -------------------------------------------------------------
         1        2.0000           -0.7601903             -20.6858
       ...           ...                  ...                  ...
       383        2.0000           -0.3755454             -10.2191
       384        2.0000           -0.3696089             -10.0576
       385        2.0000           -0.3613057              -9.8316
       386        2.0000           -0.3606715              -9.8144
       387        2.0000           -0.3604236              -9.8076
       388        2.0000           -0.3503437              -9.5333
       389        2.0000           -0.3485277              -9.4839 (HOMO)
       390        0.0000           -0.3235066              -8.8031 (LUMO)
       391                         -0.3189350              -8.6787
       392                         -0.3132904              -8.5251
       393                         -0.2983963              -8.1198
       394                         -0.2857454              -7.7755
       ...                                ...                  ...
       791                          1.1591622              31.5424
      -------------------------------------------------------------
                  HL-Gap            0.0250210 Eh            0.6809 eV
             Fermi-level           -0.3359555 Eh           -9.1418 eV

 SCC (total)                   0 d,  0 h,  0 min,  1.686 sec
 SCC setup                      ...        0 min,  0.011 sec (  0.647%)
 Dispersion                     ...        0 min,  0.018 sec (  1.071%)
 classical contributions        ...        0 min,  0.001 sec (  0.050%)
 integral evaluation            ...        0 min,  0.065 sec (  3.852%)
 iterations                     ...        0 min,  1.347 sec ( 79.889%)
 molecular gradient             ...        0 min,  0.236 sec ( 13.987%)
 printout                       ...        0 min,  0.008 sec (  0.500%)

         :::::::::::::::::::::::::::::::::::::::::::::::::::::
         ::                     SUMMARY                     ::
         :::::::::::::::::::::::::::::::::::::::::::::::::::::
         :: total energy            -419.367723606531 Eh    ::
         :: total w/o Gsasa/hb      -419.341891768558 Eh    ::
         :: gradient norm              0.046043122034 Eh/a0 ::
         :: HOMO-LUMO gap              0.680856861350 eV    ::
         ::.................................................::
         :: SCC energy              -426.331144860102 Eh    ::
         :: -> isotropic ES            0.197752117976 Eh    ::
         :: -> anisotropic ES          0.027319446469 Eh    ::
         :: -> anisotropic XC          0.244536389743 Eh    ::
         :: -> dispersion             -0.462003866849 Eh    ::
         :: -> Gsolv                  -0.073748285251 Eh    ::
         ::    -> Gelec               -0.047916447278 Eh    ::
         ::    -> Gsasa               -0.018679501353 Eh    ::
         ::    -> Ghb                 -0.008233096318 Eh    ::
         ::    -> Gshift               0.001080759698 Eh    ::
         :: repulsion energy           6.951658776465 Eh    ::
         :: add. restraining           0.000000000000 Eh    ::
         :: total charge               0.000000000745 e     ::
         :::::::::::::::::::::::::::::::::::::::::::::::::::::

           -------------------------------------------------
          |                Property Printout                |
           -------------------------------------------------

    * Orbital Energies and Occupations

         #    Occupation            Energy/Eh            Energy/eV
      -------------------------------------------------------------
         1        2.0000           -0.7601903             -20.6858
       ...           ...                  ...                  ...
       377        2.0000           -0.3926015             -10.6832
       378        2.0000           -0.3914333             -10.6514
       379        2.0000           -0.3910737             -10.6417
       380        2.0000           -0.3901403             -10.6163
       381        2.0000           -0.3858355             -10.4991
       382        2.0000           -0.3764433             -10.2435
       383        2.0000           -0.3755454             -10.2191
       384        2.0000           -0.3696089             -10.0576
       385        2.0000           -0.3613057              -9.8316
       386        2.0000           -0.3606715              -9.8144
       387        2.0000           -0.3604236              -9.8076
       388        2.0000           -0.3503437              -9.5333
       389        2.0000           -0.3485277              -9.4839 (HOMO)
       390        0.0000           -0.3235066              -8.8031 (LUMO)
       391                         -0.3189350              -8.6787
       392                         -0.3132904              -8.5251
       393                         -0.2983963              -8.1198
       394                         -0.2857454              -7.7755
       395                         -0.2792811              -7.5996
       396                         -0.2706472              -7.3647
       397                         -0.2589341              -7.0460
       398                         -0.2574496              -7.0056
       399                         -0.2493343              -6.7847
       400                         -0.2463555              -6.7037
       ...                                ...                  ...
       791                          1.1591622              31.5424
      -------------------------------------------------------------
                  HL-Gap            0.0250210 Eh            0.6809 eV
             Fermi-level           -0.3359555 Eh           -9.1418 eV

     #   Z          covCN         q      C6AA      α(0)
     1   6 C        2.920    -0.019    28.480     8.751
     2   6 C        3.008    -0.051    29.240     8.870
     3   6 C        2.875     0.226    23.255     7.905
     4   8 O        0.944    -0.422    22.087     6.303
     5   6 C        3.062    -0.026    28.580     8.767
     6   6 C        2.904    -0.024    28.607     8.770
     7   6 C        3.261     0.011    26.605     8.334
     8   6 C        3.258     0.012    26.619     8.340
     9   6 C        2.905    -0.035    28.864     8.809
    10   6 C        3.050     0.002    27.934     8.668
    11   6 C        3.023     0.031    27.281     8.568
    12   6 C        2.947    -0.010    28.256     8.718
    13   6 C        1.948     0.125    28.017     8.548
    14   7 N        0.911    -0.296    27.620     7.601
    15   6 C        1.949     0.132    27.847     8.522
    16   7 N        0.911    -0.299    27.707     7.613
    17   6 C        4.163    -0.028    20.977     6.505
    18   6 C        4.012    -0.016    20.790     6.477
    19   6 C        2.988    -0.042    29.036     8.839
    20   6 C        2.988    -0.043    29.050     8.841
    21   6 C        4.012    -0.017    20.791     6.478
    22   6 C        3.926    -0.066    21.692     6.619
    23   6 C        4.162    -0.027    20.973     6.504
    24   6 C        2.986     0.004    27.935     8.670
    25   6 C        3.042     0.059    26.632     8.464
    26   7 N        2.748    -0.046    22.122     6.986
    27   6 C        2.935     0.056    26.736     8.480
    28   6 C        2.921    -0.043    29.057     8.840
    29   6 C        2.926    -0.041    29.015     8.834
    30   6 C        2.966     0.022    27.502     8.602
    31   6 C        3.758    -0.130    23.047     6.844
    32   6 C        2.925    -0.041    29.023     8.835
    33   6 C        2.920    -0.043    29.080     8.843
    34   6 C        2.924     0.056    26.748     8.481
    35   6 C        2.920    -0.041    29.016     8.833
    36   6 C        2.926    -0.040    28.982     8.829
    37   6 C        2.966     0.014    27.707     8.634
    38   6 C        3.758    -0.122    22.883     6.820
    39   6 C        2.925    -0.044    29.090     8.845
    40   6 C        2.920    -0.050    29.253     8.869
    41   6 C        3.155    -0.001    27.760     8.616
    42  16 S        2.246    -0.048   143.055    20.130
    43   6 C        3.032     0.001    27.978     8.676
    44   6 C        3.052     0.048    26.871     8.501
    45   7 N        2.748    -0.071    22.626     7.065
    46   6 C        2.928     0.058    26.703     8.474
    47   6 C        2.924    -0.047    29.165     8.856
    48   6 C        2.926    -0.038    28.955     8.824
    49   6 C        2.966     0.013    27.723     8.637
    50   6 C        3.758    -0.118    22.807     6.809
    51   6 C        2.926    -0.043    29.068     8.842
    52   6 C        2.921    -0.050    29.239     8.867
    53   6 C        2.925     0.056    26.736     8.480
    54   6 C        2.922    -0.051    29.277     8.873
    55   6 C        2.925    -0.044    29.085     8.844
    56   6 C        2.965     0.010    27.786     8.646
    57   6 C        3.757    -0.114    22.738     6.799
    58   6 C        2.926    -0.041    29.024     8.835
    59   6 C        2.922    -0.046    29.149     8.854
    60   6 C        3.161    -0.001    27.712     8.605
    61  16 S        2.300    -0.040   142.720    20.107
    62   6 C        3.033     0.008    27.818     8.651
    63   6 C        3.105    -0.012    28.186     8.699
    64   6 C        2.973     0.010    27.797     8.648
    65   6 C        2.925    -0.036    28.902     8.816
    66   6 C        2.918    -0.034    28.853     8.808
    67   6 C        2.925    -0.040    28.995     8.831
    68   6 C        2.970     0.015    27.673     8.629
    69   6 C        3.807    -0.057    21.586     6.614
    70   6 C        3.754    -0.107    22.596     6.778
    71   6 C        2.931    -0.042    29.053     8.840
    72   6 C        3.193     0.008    27.323     8.524
    73  16 S        2.193    -0.072   144.061    20.201
    74   6 C        3.100    -0.002    27.952     8.664
    75   6 C        3.081    -0.043    28.985     8.826
    76   6 C        3.338     0.067    24.106     7.770
    77   6 C        3.338     0.068    24.096     7.769
    78   7 N        1.853    -0.306    28.792     7.953
    79  16 S        2.683     0.277   130.256    19.209
    80   7 N        1.853    -0.306    28.784     7.952
    81   6 C        3.085    -0.046    29.038     8.834
    82   6 C        3.102    -0.002    27.935     8.661
    83  16 S        2.185    -0.075   144.186    20.210
    84   6 C        3.191     0.010    27.301     8.522
    85   6 C        3.112    -0.012    28.152     8.692
    86   6 C        2.974     0.010    27.784     8.646
    87   6 C        2.925    -0.038    28.945     8.823
    88   6 C        2.918    -0.032    28.800     8.800
    89   6 C        2.925    -0.038    28.952     8.824
    90   6 C        2.970     0.016    27.653     8.626
    91   6 C        3.807    -0.057    21.601     6.616
    92   6 C        3.754    -0.106    22.580     6.776
    93   6 C        2.931    -0.040    28.983     8.829
    94   6 C        3.036     0.008    27.811     8.650
    95  16 S        2.257    -0.041   142.755    20.109
    96   6 C        3.125     0.001    27.806     8.635
    97   6 C        3.255     0.027    26.325     8.299
    98   7 N        2.801    -0.019    21.608     6.904
    99   6 C        3.079     0.028    27.290     8.564
   100   6 C        3.080     0.029    27.259     8.559
   101   7 N        2.795    -0.032    21.857     6.944
   102   6 C        3.261     0.030    26.166     8.263
   103   6 C        3.129     0.003    27.762     8.627
   104  16 S        2.265    -0.028   142.203    20.070
   105   6 C        3.747    -0.016    20.933     6.526
   106   6 C        3.752    -0.120    22.865     6.819
   107   6 C        3.742    -0.010    20.824     6.511
   108   6 C        3.752    -0.126    22.970     6.835
   109   6 C        3.020     0.007    27.847     8.656
   110   6 C        3.062     0.050    26.823     8.493
   111   7 N        2.748    -0.085    22.886     7.105
   112   6 C        2.926     0.060    26.663     8.468
   113   6 C        2.923    -0.051    29.276     8.873
   114   6 C        2.925    -0.044    29.087     8.844
   115   6 C        2.966     0.013    27.716     8.635
   116   6 C        3.757    -0.125    22.949     6.830
   117   6 C        2.925    -0.043    29.057     8.840
   118   6 C        2.921    -0.051    29.263     8.871
   119   6 C        2.937     0.058    26.694     8.474
   120   6 C        2.922    -0.049    29.212     8.863
   121   6 C        2.925    -0.043    29.078     8.843
   122   6 C        2.966     0.014    27.705     8.634
   123   6 C        3.758    -0.121    22.865     6.817
   124   6 C        2.926    -0.041    29.017     8.834
   125   6 C        2.919    -0.048    29.187     8.859
   126   6 C        3.186     0.013    27.262     8.519
   127  16 S        2.433    -0.063   143.653    20.172
   128   6 C        2.990     0.003    27.938     8.670
   129   6 C        3.042     0.061    26.589     8.457
   130   7 N        2.748    -0.044    22.100     6.982
   131   6 C        2.927     0.055    26.769     8.485
   132   6 C        2.921    -0.046    29.143     8.853
   133   6 C        2.925    -0.041    29.016     8.834
   134   6 C        2.966     0.020    27.565     8.612
   135   6 C        3.758    -0.125    22.956     6.831
   136   6 C        2.926    -0.042    29.032     8.836
   137   6 C        2.920    -0.048    29.185     8.859
   138   6 C        2.932     0.056    26.746     8.482
   139   6 C        2.921    -0.044    29.092     8.845
   140   6 C        2.926    -0.040    28.989     8.830
   141   6 C        2.966     0.020    27.564     8.612
   142   6 C        3.758    -0.123    22.919     6.825
   143   6 C        2.925    -0.042    29.033     8.836
   144   6 C        2.920    -0.045    29.124     8.850
   145   6 C        3.157    -0.000    27.722     8.609
   146  16 S        2.277    -0.040   142.704    20.106
   147   6 C        2.959    -0.025    28.619     8.775
   148   6 C        2.959    -0.023    28.569     8.767
   149  16 S        2.419    -0.047   143.009    20.127
   150   6 C        2.933     0.113    25.507     8.283
   151   6 C        3.001    -0.038    28.943     8.825
   152   6 C        1.923     0.127    27.979     8.542
   153   7 N        0.911    -0.305    27.858     7.634
   154   6 C        1.940     0.126    28.004     8.546
   155   7 N        0.911    -0.294    27.580     7.595
   156   7 N        2.842    -0.061    22.411     7.031
   157   6 C        3.744     0.002    20.617     6.477
   158   6 C        3.752    -0.119    22.846     6.816
   159   6 C        2.900     0.267    22.503     7.778
   160   8 O        0.858    -0.478    23.296     6.471
   161   1 H        0.925     0.058     2.221     2.331
   162   1 H        0.926     0.058     2.225     2.333
   163   1 H        0.926     0.051     2.303     2.373
   164   1 H        0.925     0.059     2.213     2.326
   165   1 H        0.925     0.043     2.411     2.428
   166   1 H        0.926     0.027     2.623     2.533
   167   1 H        0.926     0.030     2.592     2.517
   168   1 H        0.925     0.045     2.385     2.415
   169   1 H        0.925     0.049     2.339     2.391
   170   1 H        0.925     0.050     2.317     2.381
   171   1 H        0.925     0.060     2.199     2.319
   172   1 H        0.926     0.032     2.560     2.502
   173   1 H        0.926     0.054     2.268     2.355
   174   1 H        0.925     0.062     2.178     2.308
   175   1 H        0.925     0.072     2.068     2.249
   176   1 H        0.925     0.055     2.257     2.349
   177   1 H        0.926     0.052     2.293     2.368
   178   1 H        0.926     0.042     2.421     2.433
   179   1 H        0.926     0.052     2.290     2.367
   180   1 H        0.926     0.048     2.344     2.394
   181   1 H        0.925     0.055     2.262     2.352
   182   1 H        0.924     0.052     2.297     2.370
   183   1 H        0.925     0.059     2.205     2.322
   184   1 H        0.926     0.042     2.416     2.431
   185   1 H        0.926     0.030     2.588     2.516
   186   1 H        0.926     0.029     2.607     2.525
   187   1 H        0.926     0.036     2.504     2.475
   188   1 H        0.925     0.056     2.252     2.347
   189   1 H        0.925     0.050     2.320     2.382
   190   1 H        0.925     0.051     2.312     2.378
   191   1 H        0.926     0.040     2.448     2.446
   192   1 H        0.926     0.035     2.514     2.479
   193   1 H        0.926     0.031     2.572     2.508
   194   1 H        0.926     0.045     2.386     2.415
   195   1 H        0.924     0.046     2.375     2.410
   196   1 H        0.925     0.053     2.282     2.363
   197   1 H        0.925     0.051     2.306     2.375
   198   1 H        0.926     0.038     2.472     2.459
   199   1 H        0.926     0.032     2.553     2.499
   200   1 H        0.926     0.040     2.450     2.448
   201   1 H        0.926     0.040     2.444     2.445
   202   1 H        0.926     0.041     2.440     2.443
   203   1 H        0.924     0.042     2.428     2.437
   204   1 H        0.924     0.032     2.557     2.500
   205   1 H        0.925     0.041     2.433     2.439
   206   1 H        0.925     0.039     2.467     2.456
   207   1 H        0.925     0.045     2.385     2.415
   208   1 H        0.926     0.026     2.640     2.541
   209   1 H        0.926     0.037     2.488     2.467
   210   1 H        0.926     0.042     2.425     2.435
   211   1 H        0.926     0.042     2.417     2.431
   212   1 H        0.924     0.034     2.528     2.486
   213   1 H        0.924     0.043     2.411     2.428
   214   1 H        0.925     0.044     2.399     2.422
   215   1 H        0.925     0.037     2.494     2.470
   216   1 H        0.925     0.040     2.443     2.444
   217   1 H        0.925     0.023     2.690     2.565
   218   1 H        0.925     0.092     1.862     2.134
   219   1 H        0.924     0.081     1.971     2.195
   220   1 H        0.925     0.048     2.350     2.397
   221   1 H        0.925     0.045     2.384     2.415
   222   1 H        0.925     0.070     2.090     2.261
   223   1 H        0.924     0.081     1.971     2.196
   224   1 H        0.924     0.071     2.074     2.252
   225   1 H        0.925     0.056     2.250     2.346
   226   1 H        0.925     0.074     2.046     2.237
   227   1 H        0.925     0.061     2.193     2.316
   228   1 H        0.926     0.021     2.722     2.580
   229   1 H        0.926     0.042     2.418     2.432
   230   1 H        0.925     0.057     2.235     2.338
   231   1 H        0.925     0.059     2.212     2.326
   232   1 H        0.925     0.053     2.283     2.363
   233   1 H        0.926     0.047     2.356     2.400
   234   1 H        0.926     0.036     2.501     2.473
   235   1 H        0.926     0.026     2.650     2.545
   236   1 H        0.926     0.037     2.482     2.464
   237   1 H        0.925     0.054     2.271     2.357
   238   1 H        0.925     0.043     2.412     2.429
   239   1 H        0.924     0.060     2.197     2.318
   240   1 H        0.926     0.043     2.410     2.427
   241   1 H        0.926     0.037     2.483     2.464
   242   1 H        0.926     0.046     2.374     2.410
   243   1 H        0.926     0.049     2.328     2.386
   244   1 H        0.925     0.057     2.230     2.335
   245   1 H        0.925     0.056     2.247     2.344
   246   1 H        0.924     0.062     2.179     2.309
   247   1 H        0.926     0.047     2.360     2.402
   248   1 H        0.926     0.036     2.500     2.473
   249   1 H        0.926     0.034     2.529     2.487
   250   1 H        0.926     0.047     2.357     2.401
   251   1 H        0.925     0.061     2.189     2.314
   252   1 H        0.925     0.056     2.248     2.345
   253   1 H        0.925     0.057     2.231     2.336
   254   1 H        0.926     0.051     2.313     2.378
   255   1 H        0.926     0.044     2.392     2.418
   256   1 H        0.925     0.080     1.981     2.201
   257   1 H        0.924     0.090     1.884     2.146
   258   1 H        0.924     0.064     2.158     2.297
   259   1 H        0.925     0.059     2.208     2.323
   260   1 H        0.925     0.046     2.369     2.407
   261   1 H        0.925     0.074     2.037     2.232

 Mol. C6AA /au·bohr⁶  :    1096566.467800
 Mol. C8AA /au·bohr⁸  :   30013747.347670
 Mol. α(0) /au        :       1674.068536


Wiberg/Mayer (AO) data.
largest (>0.10) Wiberg bond orders for each atom

 ---------------------------------------------------------------------------
     #   Z sym  total        # sym  WBO       # sym  WBO       # sym  WBO
 ---------------------------------------------------------------------------
     1   6 C    3.948 --     2 C    1.434    24 C    1.365   161 H    0.931
     2   6 C    3.951 --     1 C    1.434    11 C    1.171     3 C    1.076
     3   6 C    3.904 --     4 O    1.670     2 C    1.076     5 C    1.027
     4   8 O    2.056 --     3 C    1.670    61 S    0.115
     5   6 C    3.969 --     6 C    1.385    10 C    1.308     3 C    1.027
     6   6 C    3.979 --     7 C    1.436     5 C    1.385   162 H    0.964
     7   6 C    3.953 --     6 C    1.436     8 C    1.331    23 C    0.997
     8   6 C    3.965 --     9 C    1.441     7 C    1.331    17 C    0.998
     9   6 C    3.975 --     8 C    1.441    10 C    1.373   163 H    0.959
    10   6 C    3.977 --     9 C    1.373     5 C    1.308    11 C    1.083
    11   6 C    3.968 --    12 C    1.435     2 C    1.171    10 C    1.083
    12   6 C    3.947 --    11 C    1.435    13 C    1.112    15 C    1.110
    13   6 C    3.940 --    14 N    2.719    12 C    1.112
    14   7 N    2.949 --    13 C    2.719
    15   6 C    3.937 --    16 N    2.733    12 C    1.110
    16   7 N    2.944 --    15 C    2.733
    17   6 C    3.983 --     8 C    0.998    23 C    0.977   164 H    0.957
                            18 C    0.947
    18   6 C    3.989 --    19 C    1.010    22 C    0.985   165 H    0.972
                            17 C    0.947
    19   6 C    3.987 --    20 C    1.924    18 C    1.010   166 H    0.972
    20   6 C    3.987 --    19 C    1.924    21 C    1.010   167 H    0.971
    21   6 C    3.988 --    20 C    1.010    22 C    0.985   168 H    0.971
                            23 C    0.946
    22   6 C    3.991 --    21 C    0.985    18 C    0.985   170 H    0.977
                           169 H    0.976
    23   6 C    3.982 --     7 C    0.997    17 C    0.977   171 H    0.957
                            21 C    0.946
    24   6 C    3.926 --     1 C    1.365    25 C    1.255    61 S    1.071
    25   6 C    3.947 --    41 C    1.268    24 C    1.255    26 N    1.168
    26   7 N    3.534 --    25 C    1.168    34 C    1.037    27 C    1.023
    27   6 C    3.954 --    33 C    1.376    28 C    1.363    26 N    1.023
    28   6 C    3.982 --    29 C    1.463    27 C    1.363   172 H    0.968
                            32 C    0.102
    29   6 C    3.988 --    28 C    1.463    30 C    1.395   173 H    0.967
                            33 C    0.104
    30   6 C    3.970 --    32 C    1.404    29 C    1.395    31 C    1.031
    31   6 C    3.992 --    30 C    1.031   176 H    0.984   174 H    0.973
                           175 H    0.963
    32   6 C    3.988 --    33 C    1.454    30 C    1.404   177 H    0.967
                            28 C    0.102
    33   6 C    3.973 --    32 C    1.454    27 C    1.376   178 H    0.967
                            29 C    0.104
    34   6 C    3.960 --    35 C    1.369    40 C    1.363    26 N    1.037
    35   6 C    3.980 --    36 C    1.452    34 C    1.369   179 H    0.966
    36   6 C    3.990 --    35 C    1.452    37 C    1.406   180 H    0.968
                            40 C    0.106
    37   6 C    3.979 --    36 C    1.406    39 C    1.395    38 C    1.028
    38   6 C    3.994 --    37 C    1.028   181 H    0.982   183 H    0.977
                           182 H    0.965
    39   6 C    3.988 --    40 C    1.463    37 C    1.395   184 H    0.968
    40   6 C    3.985 --    39 C    1.463    34 C    1.363   185 H    0.968
                            36 C    0.106
    41   6 C    3.934 --    60 C    1.345    25 C    1.268    42 S    1.097
    42  16 S    2.531 --    41 C    1.097    43 C    1.095
    43   6 C    3.894 --    44 C    1.402    62 C    1.140    42 S    1.095
    44   6 C    3.955 --    43 C    1.402    60 C    1.220    45 N    1.100
    45   7 N    3.499 --    44 C    1.100    53 C    1.046    46 C    1.045
    46   6 C    3.963 --    52 C    1.372    47 C    1.361    45 N    1.045
    47   6 C    3.986 --    48 C    1.458    46 C    1.361   186 H    0.964
                            51 C    0.102
    48   6 C    3.990 --    47 C    1.458    49 C    1.401   187 H    0.969
                            52 C    0.105
    49   6 C    3.976 --    51 C    1.404    48 C    1.401    50 C    1.027
    50   6 C    3.995 --    49 C    1.027   189 H    0.985   188 H    0.975
                           190 H    0.969
    51   6 C    3.989 --    52 C    1.455    49 C    1.404   191 H    0.968
                            47 C    0.102
    52   6 C    3.984 --    51 C    1.455    46 C    1.372   192 H    0.968
                            48 C    0.105
    53   6 C    3.962 --    54 C    1.369    59 C    1.367    45 N    1.046
    54   6 C    3.986 --    55 C    1.455    53 C    1.369   193 H    0.968
                            58 C    0.103
    55   6 C    3.989 --    54 C    1.455    56 C    1.403   194 H    0.965
                            59 C    0.102
    56   6 C    3.982 --    55 C    1.403    58 C    1.399    57 C    1.027
    57   6 C    3.995 --    56 C    1.027   196 H    0.982   197 H    0.979
                           195 H    0.967
    58   6 C    3.990 --    59 C    1.460    56 C    1.399   198 H    0.969
                            54 C    0.103
    59   6 C    3.987 --    58 C    1.460    53 C    1.367   199 H    0.966
                            55 C    0.102
    60   6 C    3.940 --    41 C    1.345    44 C    1.220    61 S    1.132
    61  16 S    2.670 --    60 C    1.132    24 C    1.071     4 O    0.115
    62   6 C    3.918 --    63 C    1.453    43 C    1.140   104 S    1.088
    63   6 C    3.966 --    62 C    1.453    72 C    1.242    64 C    1.056
    64   6 C    3.987 --    71 C    1.381    65 C    1.379    63 C    1.056
                            67 C    0.101
    65   6 C    3.986 --    66 C    1.445    64 C    1.379   200 H    0.962
                            68 C    0.103
    66   6 C    3.990 --    65 C    1.445    67 C    1.442   201 H    0.970
                            71 C    0.104
    67   6 C    3.981 --    66 C    1.442    68 C    1.399   202 H    0.969
                            64 C    0.101
    68   6 C    3.987 --    71 C    1.427    67 C    1.399    69 C    1.011
                            65 C    0.103
    69   6 C    3.996 --    68 C    1.011    70 C    1.001   204 H    0.975
                           203 H    0.972
    70   6 C    3.995 --    69 C    1.001   206 H    0.988   205 H    0.988
                           207 H    0.986
    71   6 C    3.987 --    68 C    1.427    64 C    1.381   208 H    0.965
                            66 C    0.104
    72   6 C    3.926 --   103 C    1.366    63 C    1.242    73 S    1.093
    73  16 S    2.513 --    74 C    1.102    72 C    1.093
    74   6 C    3.928 --   102 C    1.332    75 C    1.251    73 S    1.102
    75   6 C    3.958 --   100 C    1.283    74 C    1.251    76 C    1.179
    76   6 C    3.970 --    80 N    1.423    75 C    1.179    77 C    1.154
                            79 S    0.108
    77   6 C    3.970 --    78 N    1.424    81 C    1.179    76 C    1.154
                            79 S    0.107
    78   7 N    3.056 --    77 C    1.424    79 S    1.372    80 N    0.146
    79  16 S    3.084 --    80 N    1.373    78 N    1.372    76 C    0.108
                            77 C    0.107
    80   7 N    3.055 --    76 C    1.423    79 S    1.373    78 N    0.146
    81   6 C    3.958 --    99 C    1.270    82 C    1.262    77 C    1.179
    82   6 C    3.925 --    97 C    1.321    81 C    1.262    83 S    1.102
    83  16 S    2.501 --    82 C    1.102    84 C    1.089
    84   6 C    3.924 --    96 C    1.360    85 C    1.254    83 S    1.089
    85   6 C    3.961 --    94 C    1.442    84 C    1.254    86 C    1.046
    86   6 C    3.987 --    87 C    1.385    93 C    1.382    85 C    1.046
                            89 C    0.102
    87   6 C    3.986 --    88 C    1.445    86 C    1.385   209 H    0.967
                            90 C    0.103
    88   6 C    3.990 --    87 C    1.445    89 C    1.441   210 H    0.969
                            93 C    0.105
    89   6 C    3.983 --    88 C    1.441    90 C    1.399   211 H    0.968
                            86 C    0.102
    90   6 C    3.987 --    93 C    1.426    89 C    1.399    91 C    1.012
                            87 C    0.103
    91   6 C    3.996 --    90 C    1.012    92 C    1.000   212 H    0.974
                           213 H    0.973
    92   6 C    3.995 --    91 C    1.000   215 H    0.988   216 H    0.988
                           214 H    0.986
    93   6 C    3.988 --    90 C    1.426    86 C    1.382   217 H    0.966
                            88 C    0.105
    94   6 C    3.916 --    85 C    1.442   109 C    1.154    95 S    1.089
    95  16 S    2.594 --    96 C    1.120    94 C    1.089
    96   6 C    3.934 --    84 C    1.360    97 C    1.229    95 S    1.120
    97   6 C    3.942 --    82 C    1.321    96 C    1.229    98 N    1.165
    98   7 N    3.572 --    99 C    1.185    97 C    1.165   107 C    0.974
    99   6 C    3.940 --    81 C    1.270   100 C    1.216    98 N    1.185
   100   6 C    3.941 --    75 C    1.283    99 C    1.216   101 N    1.170
   101   7 N    3.540 --   100 C    1.170   102 C    1.155   105 C    0.968
   102   6 C    3.944 --    74 C    1.332   103 C    1.231   101 N    1.155
   103   6 C    3.934 --    72 C    1.366   102 C    1.231   104 S    1.118
   104  16 S    2.550 --   103 C    1.118    62 C    1.088
   105   6 C    3.947 --   106 C    1.004   101 N    0.968   219 H    0.964
                           218 H    0.955
   106   6 C    3.987 --   105 C    1.004   221 H    0.987   220 H    0.982
                           222 H    0.980
   107   6 C    3.951 --   108 C    1.005    98 N    0.974   223 H    0.963
                           224 H    0.962
   108   6 C    3.983 --   107 C    1.005   226 H    0.979   225 H    0.979
                           227 H    0.978
   109   6 C    3.903 --   110 C    1.429    94 C    1.154   146 S    1.089
   110   6 C    3.953 --   109 C    1.429   126 C    1.226   111 N    1.066
   111   7 N    3.450 --   110 C    1.066   112 C    1.052   119 C    1.033
   112   6 C    3.962 --   118 C    1.362   113 C    1.357   111 N    1.052
   113   6 C    3.985 --   114 C    1.453   112 C    1.357   228 H    0.967
   114   6 C    3.990 --   113 C    1.453   115 C    1.404   229 H    0.969
                           118 C    0.105
   115   6 C    3.978 --   114 C    1.404   117 C    1.397   116 C    1.027
   116   6 C    3.994 --   115 C    1.027   232 H    0.984   231 H    0.974
                           230 H    0.968
   117   6 C    3.989 --   118 C    1.462   115 C    1.397   233 H    0.967
   118   6 C    3.986 --   117 C    1.462   112 C    1.362   234 H    0.968
                           114 C    0.105
   119   6 C    3.965 --   120 C    1.374   125 C    1.367   111 N    1.033
   120   6 C    3.985 --   121 C    1.452   119 C    1.374   235 H    0.968
                           124 C    0.105
   121   6 C    3.990 --   120 C    1.452   122 C    1.407   236 H    0.968
                           125 C    0.103
   122   6 C    3.978 --   121 C    1.407   124 C    1.395   123 C    1.029
   123   6 C    3.993 --   122 C    1.029   238 H    0.984   237 H    0.968
                           239 H    0.965
   124   6 C    3.990 --   125 C    1.464   122 C    1.395   240 H    0.968
                           120 C    0.105
   125   6 C    3.985 --   124 C    1.464   119 C    1.367   241 H    0.967
                           121 C    0.103
   126   6 C    3.924 --   145 C    1.358   110 C    1.226   127 S    1.112
   127  16 S    2.550 --   126 C    1.112   128 C    1.065
   128   6 C    3.922 --   147 C    1.326   129 C    1.286   127 S    1.065
   129   6 C    3.953 --   128 C    1.286   145 C    1.239   130 N    1.171
   130   7 N    3.513 --   129 C    1.171   138 C    1.029   131 C    1.025
   131   6 C    3.958 --   132 C    1.376   137 C    1.368   130 N    1.025
   132   6 C    3.982 --   133 C    1.454   131 C    1.376   242 H    0.967
                           136 C    0.103
   133   6 C    3.990 --   132 C    1.454   134 C    1.405   243 H    0.968
                           137 C    0.104
   134   6 C    3.978 --   133 C    1.405   136 C    1.395   135 C    1.030
   135   6 C    3.993 --   134 C    1.030   245 H    0.982   244 H    0.978
                           246 H    0.963
   136   6 C    3.989 --   137 C    1.464   134 C    1.395   247 H    0.968
                           132 C    0.103
   137   6 C    3.985 --   136 C    1.464   131 C    1.368   248 H    0.968
                           133 C    0.104
   138   6 C    3.957 --   144 C    1.372   139 C    1.366   130 N    1.029
   139   6 C    3.980 --   140 C    1.458   138 C    1.366   249 H    0.967
                           143 C    0.102
   140   6 C    3.988 --   139 C    1.458   141 C    1.399   250 H    0.964
                           144 C    0.104
   141   6 C    3.971 --   143 C    1.401   140 C    1.399   142 C    1.030
   142   6 C    3.993 --   141 C    1.030   252 H    0.982   253 H    0.978
                           251 H    0.962
   143   6 C    3.989 --   144 C    1.458   141 C    1.401   254 H    0.967
                           139 C    0.102
   144   6 C    3.973 --   143 C    1.458   138 C    1.372   255 H    0.967
                           140 C    0.104
   145   6 C    3.934 --   126 C    1.358   129 C    1.239   146 S    1.108
   146  16 S    2.549 --   145 C    1.108   109 C    1.089
   147   6 C    3.957 --   148 C    1.489   128 C    1.326   256 H    0.936
   148   6 C    3.902 --   147 C    1.489   159 C    1.105   149 S    1.055
   149  16 S    2.546 --   150 C    1.110   148 C    1.055
   150   6 C    3.939 --   151 C    1.383   156 N    1.223   149 S    1.110
   151   6 C    3.923 --   150 C    1.383   152 C    1.125   154 C    1.114
   152   6 C    3.945 --   153 N    2.725   151 C    1.125
   153   7 N    2.963 --   152 C    2.725
   154   6 C    3.943 --   155 N    2.736   151 C    1.114
   155   7 N    2.972 --   154 C    2.736
   156   7 N    3.594 --   150 C    1.223   159 C    1.087   157 C    0.960
                           160 O    0.120
   157   6 C    3.946 --   158 C    1.007   258 H    0.962   257 H    0.961
                           156 N    0.960
   158   6 C    3.988 --   157 C    1.007   259 H    0.986   260 H    0.985
                           261 H    0.979
   159   6 C    3.923 --   160 O    1.615   148 C    1.105   156 N    1.087
   160   8 O    1.948 --   159 C    1.615   156 N    0.120
   161   1 H    0.995 --     1 C    0.931
   162   1 H    0.996 --     6 C    0.964
   163   1 H    0.997 --     9 C    0.959
   164   1 H    0.995 --    17 C    0.957
   165   1 H    0.998 --    18 C    0.972
   166   1 H    0.999 --    19 C    0.972
   167   1 H    0.999 --    20 C    0.971
   168   1 H    0.998 --    21 C    0.971
   169   1 H    0.996 --    22 C    0.976
   170   1 H    0.997 --    22 C    0.977
   171   1 H    0.994 --    23 C    0.957
   172   1 H    0.999 --    28 C    0.968
   173   1 H    0.996 --    29 C    0.967
   174   1 H    0.995 --    31 C    0.973
   175   1 H    0.993 --    31 C    0.963
   176   1 H    0.997 --    31 C    0.984
   177   1 H    0.997 --    32 C    0.967
   178   1 H    0.998 --    33 C    0.967
   179   1 H    0.997 --    35 C    0.966
   180   1 H    0.997 --    36 C    0.968
   181   1 H    0.996 --    38 C    0.982
   182   1 H    0.996 --    38 C    0.965
   183   1 H    0.996 --    38 C    0.977
   184   1 H    0.998 --    39 C    0.968
   185   1 H    0.999 --    40 C    0.968
   186   1 H    0.999 --    47 C    0.964
   187   1 H    0.998 --    48 C    0.969
   188   1 H    0.996 --    50 C    0.975
   189   1 H    0.997 --    50 C    0.985
   190   1 H    0.996 --    50 C    0.969
   191   1 H    0.998 --    51 C    0.968
   192   1 H    0.999 --    52 C    0.968
   193   1 H    0.999 --    54 C    0.968
   194   1 H    0.998 --    55 C    0.965
   195   1 H    0.996 --    57 C    0.967
   196   1 H    0.997 --    57 C    0.982
   197   1 H    0.997 --    57 C    0.979
   198   1 H    0.998 --    58 C    0.969
   199   1 H    0.999 --    59 C    0.966
   200   1 H    0.998 --    65 C    0.962
   201   1 H    0.997 --    66 C    0.970
   202   1 H    0.998 --    67 C    0.969
   203   1 H    0.998 --    69 C    0.972
   204   1 H    0.999 --    69 C    0.975
   205   1 H    0.998 --    70 C    0.988
   206   1 H    0.998 --    70 C    0.988
   207   1 H    0.997 --    70 C    0.986
   208   1 H    0.999 --    71 C    0.965
   209   1 H    0.998 --    87 C    0.967
   210   1 H    0.997 --    88 C    0.969
   211   1 H    0.998 --    89 C    0.968
   212   1 H    0.999 --    91 C    0.974
   213   1 H    0.998 --    91 C    0.973
   214   1 H    0.997 --    92 C    0.986
   215   1 H    0.999 --    92 C    0.988
   216   1 H    0.998 --    92 C    0.988
   217   1 H    0.999 --    93 C    0.966
   218   1 H    0.991 --   105 C    0.955
   219   1 H    0.992 --   105 C    0.964
   220   1 H    0.997 --   106 C    0.982
   221   1 H    0.998 --   106 C    0.987
   222   1 H    0.994 --   106 C    0.980
   223   1 H    0.992 --   107 C    0.963
   224   1 H    0.992 --   107 C    0.962
   225   1 H    0.997 --   108 C    0.979
   226   1 H    0.994 --   108 C    0.979
   227   1 H    0.996 --   108 C    0.978
   228   1 H    0.999 --   113 C    0.967
   229   1 H    0.998 --   114 C    0.969
   230   1 H    0.995 --   116 C    0.968
   231   1 H    0.995 --   116 C    0.974
   232   1 H    0.997 --   116 C    0.984
   233   1 H    0.997 --   117 C    0.967
   234   1 H    0.998 --   118 C    0.968
   235   1 H    0.999 --   120 C    0.968
   236   1 H    0.998 --   121 C    0.968
   237   1 H    0.996 --   123 C    0.968
   238   1 H    0.998 --   123 C    0.984
   239   1 H    0.995 --   123 C    0.965
   240   1 H    0.998 --   124 C    0.968
   241   1 H    0.998 --   125 C    0.967
   242   1 H    0.998 --   132 C    0.967
   243   1 H    0.997 --   133 C    0.968
   244   1 H    0.996 --   135 C    0.978
   245   1 H    0.996 --   135 C    0.982
   246   1 H    0.994 --   135 C    0.963
   247   1 H    0.997 --   136 C    0.968
   248   1 H    0.998 --   137 C    0.968
   249   1 H    0.999 --   139 C    0.967
   250   1 H    0.997 --   140 C    0.964
   251   1 H    0.994 --   142 C    0.962
   252   1 H    0.996 --   142 C    0.982
   253   1 H    0.996 --   142 C    0.978
   254   1 H    0.997 --   143 C    0.967
   255   1 H    0.998 --   144 C    0.967
   256   1 H    0.993 --   147 C    0.936
   257   1 H    0.992 --   157 C    0.961
   258   1 H    0.995 --   157 C    0.962
   259   1 H    0.996 --   158 C    0.986
   260   1 H    0.998 --   158 C    0.985
   261   1 H    0.993 --   158 C    0.979
 ---------------------------------------------------------------------------

Topologies differ in bond orders
Writing corrected topology to xtbtopo.mol

molecular dipole:
                 x           y           z       tot (Debye)
 q only:       -1.626      -3.741       0.389
   full:       -1.689      -4.313       0.100      11.776
molecular quadrupole (traceless):
                xx          xy          yy          xz          yz          zz
 q only:       -4.939     -45.447     -48.650     -98.670     -95.052      53.589
  q+dip:        8.918     -42.339     -76.694     -82.849     -90.859      67.777
   full:        6.631     -38.079     -78.358     -90.179     -98.221      71.726


           -------------------------------------------------
          | TOTAL ENERGY             -419.367723606531 Eh   |
          | GRADIENT NORM               0.046043122034 Eh/α |
          | HOMO-LUMO GAP               0.680856861350 eV   |
           -------------------------------------------------

------------------------------------------------------------------------
 * finished run on 2022/02/23 at 16:23:28.471     
------------------------------------------------------------------------
 total:
 * wall-time:     0 d,  0 h,  0 min,  1.827 sec
 *  cpu-time:     0 d,  0 h,  0 min, 10.852 sec
 * ratio c/w:     5.941 speedup
 SCF:
 * wall-time:     0 d,  0 h,  0 min,  1.689 sec
 *  cpu-time:     0 d,  0 h,  0 min, 10.106 sec
 * ratio c/w:     5.982 speedup

