      -----------------------------------------------------------      
     |                   =====================                   |     
     |                           x T B                           |     
     |                   =====================                   |     
     |                         S. Grimme                         |     
     |          Mulliken Center for Theoretical Chemistry        |     
     |                    University of Bonn                     |     
      -----------------------------------------------------------      

   * xtb version 6.4.1 (unknown) compiled by 'oda6@login1.crc.pitt.edu' on 2021-06-25

   xtb is free software: you can redistribute it and/or modify it under
   the terms of the GNU Lesser General Public License as published by
   the Free Software Foundation, either version 3 of the License, or
   (at your option) any later version.
   
   xtb is distributed in the hope that it will be useful,
   but WITHOUT ANY WARRANTY; without even the implied warranty of
   MERCHANTABILITY or FITNESS FOR A PARTICULAR PURPOSE.  See the
   GNU Lesser General Public License for more details.
   
   Cite this work as:
   * C. Bannwarth, E. Caldeweyher, S. Ehlert, A. Hansen, P. Pracht,
     J. Seibert, S. Spicher, S. Grimme, WIREs Comput. Mol. Sci., 2020, 11,
     e01493. DOI: 10.1002/wcms.1493
   
   for GFN2-xTB:
   * C. Bannwarth, S. Ehlert and S. Grimme., J. Chem. Theory Comput., 2019,
     15, 1652-1671. DOI: 10.1021/acs.jctc.8b01176
   for GFN1-xTB:
   * S. Grimme, C. Bannwarth, P. Shushkov, J. Chem. Theory Comput., 2017,
     13, 1989-2009. DOI: 10.1021/acs.jctc.7b00118
   for GFN0-xTB:
   * P. Pracht, E. Caldeweyher, S. Ehlert, S. Grimme, ChemRxiv, 2019, preprint.
     DOI: 10.26434/chemrxiv.8326202.v1
   for GFN-FF:
   * S. Spicher and S. Grimme, Angew. Chem. Int. Ed., 2020, 59, 15665-15673.
     DOI: 10.1002/anie.202004239
   
   for DFT-D4:
   * E. Caldeweyher, C. Bannwarth and S. Grimme, J. Chem. Phys., 2017,
     147, 034112. DOI: 10.1063/1.4993215
   * E. Caldeweyher, S. Ehlert, A. Hansen, H. Neugebauer, S. Spicher,
     C. Bannwarth and S. Grimme, J. Chem. Phys., 2019, 150, 154122.
     DOI: 10.1063/1.5090222
   * E. Caldeweyher, J.-M. Mewes, S. Ehlert and S. Grimme, Phys. Chem. Chem. Phys.
     2020, 22, 8499-8512. DOI: 10.1039/D0CP00502A
   
   for sTDA-xTB:
   * S. Grimme and C. Bannwarth, J. Chem. Phys., 2016, 145, 054103.
     DOI: 10.1063/1.4959605
   
   in the mass-spec context:
   * V. Asgeirsson, C. Bauer and S. Grimme, Chem. Sci., 2017, 8, 4879.
     DOI: 10.1039/c7sc00601b
   * J. Koopman and S. Grimme, ACS Omega 2019, 4, 12, 15120-15133.
     DOI: 10.1021/acsomega.9b02011
   
   for metadynamics refer to:
   * S. Grimme, J. Chem. Theory Comput., 2019, 155, 2847-2862
     DOI: 10.1021/acs.jctc.9b00143
   
   for SPH calculations refer to:
   * S. Spicher and S. Grimme, J. Chem. Theory Comput., 2021, 17, 1701-1714
     DOI: 10.1021/acs.jctc.0c01306
   
   with help from (in alphabetical order)
   P. Atkinson, C. Bannwarth, F. Bohle, G. Brandenburg, E. Caldeweyher
   M. Checinski, S. Dohm, S. Ehlert, S. Ehrlich, I. Gerasimov, J. Koopman
   C. Lavigne, S. Lehtola, F. März, M. Müller, F. Musil, H. Neugebauer
   J. Pisarek, C. Plett, P. Pracht, J. Seibert, P. Shushkov, S. Spicher
   M. Stahn, M. Steiner, T. Strunk, J. Stückrath, T. Rose, and J. Unsleber
   
 * started run on 2022/02/19 at 04:02:10.903     

           -------------------------------------------------
          |                Calculation Setup                |
           -------------------------------------------------

          program call               : /ihome/ghutchison/oda6/xtb/xtb-641/bin/xtb ../../GFN2_output/39_28_86_138_22.mol --sp --alpb water
          hostname                   : smp-n9
          coordinate file            : ../../GFN2_output/39_28_86_138_22.mol
          omp threads                :                     8
          number of atoms            :                   238
          number of electrons        :                   768
          charge                     :                     0
          spin                       :                   0.0
          first test random number   :      0.85794776115825

   ID    Z sym.   atoms
    1    6 C      1-3, 5-13, 15, 17-25, 27-41, 43, 44, 46-60, 62-72, 74-77,
                  81, 82, 84-94, 96, 97, 99, 100, 102, 103, 105-110, 112-116,
                  118-121, 126-128, 130, 132, 134-136, 138, 141-151, 153, 155
    2    8 O      4, 117, 133
    3    7 N      14, 16, 26, 45, 78, 80, 98, 101, 111, 140, 152, 154, 156
    4   16 S      42, 61, 73, 79, 83, 95, 104, 157
    5    9 F      122-125, 129, 131, 137, 139
    6    1 H      158-238

           -------------------------------------------------
          |                 G F N 2 - x T B                 |
           -------------------------------------------------

        Reference                      10.1021/acs.jctc.8b01176
      * Hamiltonian:
        H0-scaling (s, p, d)           1.850000    2.230000    2.230000
        zeta-weighting                 0.500000
      * Dispersion:
        s8                             2.700000
        a1                             0.520000
        a2                             5.000000
        s9                             5.000000
      * Repulsion:
        kExp                           1.500000    1.000000
        rExp                           1.000000
      * Coulomb:
        alpha                          2.000000
        third order                    shell-resolved
        anisotropic                    true
        a3                             3.000000
        a5                             4.000000
        cn-shift                       1.200000
        cn-exp                         4.000000
        max-rad                        5.000000

      * Solvation model:               ALPB
        Solvent                        water
        Parameter file                 internal GFN2-xTB/ALPB
        Dielectric constant                8.0200E+01
        Reference state                gsolv [1 M gas/solution]
        Free energy shift                  1.0808E-03 Eh       6.7819E-01 kcal/mol
        Temperature                        2.9815E+02 K
        Density                            1.0000E+00 kg/L
        Solvent mass                       1.8000E+01 g/mol
        Interaction kernel             P16
        Born radius scaling (c1)           1.4744E+00
        Born radii integrator          GBOBC
        Born offset                        0.0000E+00 a0       0.0000E+00 AA
        H-bond correction              true
        Ion screening                  false
        Surface tension                    1.0000E-05 Eh       1.5569E+01 dyn/cm
        Grid points                               230 per atom

          ...................................................
          :                      SETUP                      :
          :.................................................:
          :  # basis functions                 757          :
          :  # atomic orbitals                 749          :
          :  # shells                          403          :
          :  # electrons                       768          :
          :  max. iterations                   250          :
          :  Hamiltonian                  GFN2-xTB          :
          :  restarted?                      false          :
          :  GBSA solvation                   true          :
          :  PC potential                    false          :
          :  electronic temp.          300.0000000     K    :
          :  accuracy                    1.0000000          :
          :  -> integral cutoff          0.2500000E+02      :
          :  -> integral neglect         0.1000000E-07      :
          :  -> SCF convergence          0.1000000E-05 Eh   :
          :  -> wf. convergence          0.1000000E-03 e    :
          :  Broyden damping             0.4000000          :
          ...................................................

 iter      E             dE          RMSdq      gap      omega  full diag
   1   -428.7735329 -0.428774E+03  0.441E+00    0.07       0.0  T
   2   -429.1905327 -0.417000E+00  0.274E+00    0.80       1.0  T
   3   -428.7452433  0.445289E+00  0.170E+00    0.20       1.0  T
   4   -429.3091844 -0.563941E+00  0.741E-01    0.81       1.0  T
   5   -429.4335788 -0.124394E+00  0.342E-01    0.79       1.0  T
   6   -429.4450223 -0.114435E-01  0.213E-01    0.63       1.0  T
   7   -429.4491677 -0.414543E-02  0.132E-01    0.32       1.0  T
   8   -429.4503987 -0.123095E-02  0.654E-02    0.18       1.0  T
   9   -429.4504834 -0.847546E-04  0.441E-02    0.24       1.0  T
  10   -429.4507215 -0.238056E-03  0.207E-02    0.19       1.0  T
  11   -429.4507138  0.766325E-05  0.164E-02    0.22       1.0  T
  12   -429.4507624 -0.485352E-04  0.657E-03    0.20       1.0  T
  13   -429.4507653 -0.291275E-05  0.358E-03    0.21       1.8  T
  14   -429.4507670 -0.176439E-05  0.149E-03    0.21       4.3  T
  15   -429.4507672 -0.141692E-06  0.714E-04    0.21       9.1  T
  16   -429.4507672 -0.334485E-07  0.395E-04    0.21      16.4  T

   *** convergence criteria satisfied after 16 iterations ***

         #    Occupation            Energy/Eh            Energy/eV
      -------------------------------------------------------------
         1        2.0000           -0.8742660             -23.7900
       ...           ...                  ...                  ...
       378        2.0000           -0.3878312             -10.5534
       379        2.0000           -0.3802347             -10.3467
       380        2.0000           -0.3789567             -10.3119
       381        2.0000           -0.3725027             -10.1363
       382        2.0000           -0.3639123              -9.9026
       383        2.0000           -0.3622117              -9.8563
       384        1.9645           -0.3521689              -9.5830 (HOMO)
       385        0.0355           -0.3445445              -9.3755 (LUMO)
       386                         -0.3276460              -8.9157
       387                         -0.3245111              -8.8304
       388                         -0.3145690              -8.5599
       389                         -0.3067381              -8.3468
       ...                                ...                  ...
       749                          1.1586744              31.5291
      -------------------------------------------------------------
                  HL-Gap            0.0076245 Eh            0.2075 eV
             Fermi-level           -0.3483567 Eh           -9.4793 eV

 SCC (total)                   0 d,  0 h,  0 min,  1.525 sec
 SCC setup                      ...        0 min,  0.009 sec (  0.606%)
 Dispersion                     ...        0 min,  0.015 sec (  1.007%)
 classical contributions        ...        0 min,  0.001 sec (  0.038%)
 integral evaluation            ...        0 min,  0.054 sec (  3.550%)
 iterations                     ...        0 min,  1.247 sec ( 81.782%)
 molecular gradient             ...        0 min,  0.191 sec ( 12.525%)
 printout                       ...        0 min,  0.007 sec (  0.488%)

         :::::::::::::::::::::::::::::::::::::::::::::::::::::
         ::                     SUMMARY                     ::
         :::::::::::::::::::::::::::::::::::::::::::::::::::::
         :: total energy            -423.038264825253 Eh    ::
         :: total w/o Gsasa/hb      -423.010500014671 Eh    ::
         :: gradient norm              0.042904310261 Eh/a0 ::
         :: HOMO-LUMO gap              0.207472090874 eV    ::
         ::.................................................::
         :: SCC energy              -429.450767216092 Eh    ::
         :: -> isotropic ES            0.267475413016 Eh    ::
         :: -> anisotropic ES          0.032406738165 Eh    ::
         :: -> anisotropic XC          0.197935939922 Eh    ::
         :: -> dispersion             -0.410886352748 Eh    ::
         :: -> Gsolv                  -0.078462092103 Eh    ::
         ::    -> Gelec               -0.050697281521 Eh    ::
         ::    -> Gsasa               -0.020059171112 Eh    ::
         ::    -> Ghb                 -0.008786399168 Eh    ::
         ::    -> Gshift               0.001080759698 Eh    ::
         :: repulsion energy           6.405004653380 Eh    ::
         :: add. restraining           0.000000000000 Eh    ::
         :: total charge              -0.000000000000 e     ::
         :::::::::::::::::::::::::::::::::::::::::::::::::::::

           -------------------------------------------------
          |                Property Printout                |
           -------------------------------------------------

    * Orbital Energies and Occupations

         #    Occupation            Energy/Eh            Energy/eV
      -------------------------------------------------------------
         1        2.0000           -0.8742660             -23.7900
       ...           ...                  ...                  ...
       372        2.0000           -0.3985766             -10.8458
       373        2.0000           -0.3968029             -10.7976
       374        2.0000           -0.3946943             -10.7402
       375        2.0000           -0.3925992             -10.6832
       376        2.0000           -0.3915743             -10.6553
       377        2.0000           -0.3880942             -10.5606
       378        2.0000           -0.3878312             -10.5534
       379        2.0000           -0.3802347             -10.3467
       380        2.0000           -0.3789567             -10.3119
       381        2.0000           -0.3725027             -10.1363
       382        2.0000           -0.3639123              -9.9026
       383        2.0000           -0.3622117              -9.8563
       384        1.9645           -0.3521689              -9.5830 (HOMO)
       385        0.0355           -0.3445445              -9.3755 (LUMO)
       386                         -0.3276460              -8.9157
       387                         -0.3245111              -8.8304
       388                         -0.3145690              -8.5599
       389                         -0.3067381              -8.3468
       390                         -0.3012917              -8.1986
       391                         -0.2895866              -7.8801
       392                         -0.2881905              -7.8421
       393                         -0.2847130              -7.7474
       394                         -0.2811588              -7.6507
       395                         -0.2729432              -7.4272
       ...                                ...                  ...
       749                          1.1586744              31.5291
      -------------------------------------------------------------
                  HL-Gap            0.0076245 Eh            0.2075 eV
             Fermi-level           -0.3483567 Eh           -9.4793 eV

     #   Z          covCN         q      C6AA      α(0)
     1   6 C        2.920    -0.018    28.464     8.749
     2   6 C        3.008    -0.050    29.236     8.870
     3   6 C        2.876     0.226    23.259     7.906
     4   8 O        0.959    -0.419    22.023     6.294
     5   6 C        3.062    -0.025    28.564     8.764
     6   6 C        2.904    -0.026    28.650     8.777
     7   6 C        3.260     0.012    26.588     8.331
     8   6 C        3.255     0.012    26.637     8.347
     9   6 C        2.904    -0.035    28.866     8.810
    10   6 C        3.050     0.002    27.935     8.668
    11   6 C        3.023     0.031    27.279     8.567
    12   6 C        2.947    -0.009    28.236     8.715
    13   6 C        1.949     0.132    27.842     8.521
    14   7 N        0.911    -0.299    27.697     7.611
    15   6 C        1.948     0.125    28.018     8.548
    16   7 N        0.911    -0.296    27.620     7.601
    17   6 C        4.163    -0.024    20.921     6.496
    18   6 C        4.013    -0.016    20.784     6.476
    19   6 C        2.995    -0.044    29.080     8.846
    20   6 C        2.995    -0.045    29.095     8.848
    21   6 C        4.013    -0.016    20.789     6.477
    22   6 C        3.915    -0.062    21.631     6.610
    23   6 C        4.160    -0.024    20.921     6.496
    24   6 C        2.985     0.004    27.922     8.668
    25   6 C        3.044     0.060    26.605     8.460
    26   7 N        2.748    -0.043    22.075     6.978
    27   6 C        2.923     0.055    26.756     8.483
    28   6 C        2.921    -0.040    28.990     8.829
    29   6 C        2.926    -0.039    28.967     8.826
    30   6 C        2.966     0.014    27.687     8.631
    31   6 C        3.758    -0.123    22.907     6.824
    32   6 C        2.925    -0.044    29.086     8.844
    33   6 C        2.919    -0.051    29.258     8.870
    34   6 C        2.939     0.056    26.736     8.480
    35   6 C        2.921    -0.042    29.043     8.838
    36   6 C        2.926    -0.039    28.960     8.825
    37   6 C        2.966     0.022    27.509     8.603
    38   6 C        3.758    -0.122    22.899     6.822
    39   6 C        2.925    -0.041    29.012     8.833
    40   6 C        2.920    -0.043    29.056     8.840
    41   6 C        3.152    -0.002    27.780     8.620
    42  16 S        2.225    -0.041   142.765    20.110
    43   6 C        3.054     0.004    27.875     8.659
    44   6 C        3.060     0.048    26.858     8.499
    45   7 N        2.748    -0.066    22.528     7.049
    46   6 C        2.926     0.059    26.667     8.469
    47   6 C        2.921    -0.049    29.222     8.865
    48   6 C        2.926    -0.044    29.085     8.844
    49   6 C        2.966     0.012    27.744     8.640
    50   6 C        3.758    -0.123    22.911     6.824
    51   6 C        2.925    -0.042    29.041     8.837
    52   6 C        2.922    -0.049    29.208     8.863
    53   6 C        2.924     0.058    26.708     8.475
    54   6 C        2.923    -0.050    29.236     8.867
    55   6 C        2.925    -0.041    29.014     8.833
    56   6 C        2.966     0.010    27.785     8.646
    57   6 C        3.758    -0.114    22.724     6.796
    58   6 C        2.927    -0.042    29.042     8.838
    59   6 C        2.921    -0.050    29.244     8.868
    60   6 C        3.158     0.000    27.707     8.606
    61  16 S        2.307    -0.029   142.266    20.075
    62   6 C        3.024     0.009    27.790     8.647
    63   6 C        3.104    -0.008    28.073     8.682
    64   6 C        2.972     0.010    27.784     8.646
    65   6 C        2.924    -0.037    28.932     8.821
    66   6 C        2.918    -0.032    28.801     8.800
    67   6 C        2.925    -0.041    29.020     8.834
    68   6 C        2.970     0.017    27.637     8.623
    69   6 C        3.807    -0.065    21.733     6.636
    70   6 C        3.754    -0.106    22.588     6.777
    71   6 C        2.934    -0.041    29.029     8.836
    72   6 C        3.199     0.010    27.254     8.508
    73  16 S        2.193    -0.056   143.373    20.153
    74   6 C        3.100    -0.002    27.941     8.662
    75   6 C        3.082    -0.040    28.898     8.813
    76   6 C        3.334     0.068    24.171     7.792
    77   6 C        3.335     0.068    24.153     7.786
    78   7 N        1.853    -0.302    28.672     7.936
    79  16 S        2.677     0.294   129.635    19.163
    80   7 N        1.853    -0.300    28.632     7.931
    81   6 C        3.075    -0.040    28.903     8.814
    82   6 C        3.093     0.006    27.781     8.639
    83  16 S        2.181    -0.060   143.541    20.165
    84   6 C        3.186     0.013    27.274     8.522
    85   6 C        3.110     0.000    27.876     8.650
    86   6 C        2.975     0.011    27.766     8.643
    87   6 C        2.924    -0.041    29.011     8.833
    88   6 C        2.918    -0.035    28.863     8.810
    89   6 C        2.925    -0.041    29.020     8.834
    90   6 C        2.971     0.018    27.607     8.619
    91   6 C        3.807    -0.065    21.736     6.637
    92   6 C        3.754    -0.107    22.610     6.780
    93   6 C        2.930    -0.042    29.043     8.838
    94   6 C        2.998     0.016    27.633     8.623
    95  16 S        2.549    -0.037   142.595    20.098
    96   6 C        3.121     0.004    27.768     8.630
    97   6 C        3.275     0.034    25.899     8.198
    98   7 N        2.790    -0.030    21.829     6.939
    99   6 C        3.101     0.036    27.074     8.527
   100   6 C        3.092     0.030    27.220     8.551
   101   7 N        2.793    -0.017    21.585     6.900
   102   6 C        3.268     0.030    26.070     8.236
   103   6 C        3.131     0.002    27.774     8.628
   104  16 S        2.293    -0.041   142.750    20.109
   105   6 C        3.742    -0.014    20.900     6.522
   106   6 C        3.752    -0.121    22.881     6.822
   107   6 C        3.742    -0.007    20.783     6.504
   108   6 C        3.752    -0.125    22.958     6.833
   109   6 C        3.012     0.011    27.741     8.640
   110   6 C        2.963     0.080    26.219     8.399
   111   7 N        2.141    -0.187    25.618     7.510
   112   6 C        2.939     0.099    25.799     8.330
   113   6 C        2.975    -0.029    28.725     8.791
   114   6 C        2.784     0.164    24.453     8.100
   115   6 C        2.786     0.131    25.115     8.209
   116   6 C        2.848     0.136    25.025     8.199
   117   8 O        1.705    -0.215    17.574     5.660
   118   6 C        3.684     0.063    19.711     6.357
   119   6 C        3.750    -0.130    23.057     6.848
   120   6 C        2.780     0.122    25.305     8.239
   121   6 C        2.787     0.148    24.781     8.154
   122   9 F        0.787    -0.210    11.339     3.978
   123   9 F        0.787    -0.200    11.240     3.960
   124   9 F        0.787    -0.182    11.047     3.926
   125   9 F        0.788    -0.175    10.979     3.914
   126   6 C        2.942     0.105    25.676     8.311
   127   6 C        2.974    -0.031    28.767     8.798
   128   6 C        2.786     0.163    24.477     8.104
   129   9 F        0.788    -0.184    11.072     3.931
   130   6 C        2.779     0.122    25.311     8.240
   131   9 F        0.787    -0.202    11.255     3.963
   132   6 C        2.851     0.134    25.067     8.206
   133   8 O        1.706    -0.213    17.545     5.655
   134   6 C        3.686     0.069    19.618     6.340
   135   6 C        3.752    -0.138    23.214     6.871
   136   6 C        2.783     0.132    25.095     8.205
   137   9 F        0.787    -0.192    11.151     3.944
   138   6 C        2.783     0.149    24.754     8.149
   139   9 F        0.787    -0.200    11.234     3.959
   140   7 N        1.852    -0.224    26.729     7.663
   141   6 C        2.954     0.083    26.155     8.388
   142   6 C        3.000    -0.002    28.057     8.689
   143   6 C        2.923    -0.028    28.693     8.784
   144   6 C        2.917    -0.037    28.917     8.818
   145   6 C        2.991     0.046    26.956     8.517
   146   6 C        3.098    -0.043    28.940     8.816
   147   6 C        3.083    -0.034    28.745     8.789
   148   6 C        3.001     0.026    27.411     8.588
   149   6 C        3.004     0.040    27.091     8.538
   150   6 C        2.966     0.005    27.900     8.664
   151   6 C        1.929     0.127    27.978     8.542
   152   7 N        0.911    -0.279    27.208     7.544
   153   6 C        1.922     0.132    27.878     8.527
   154   7 N        0.911    -0.279    27.203     7.543
   155   6 C        1.931     0.129    27.934     8.535
   156   7 N        0.911    -0.243    26.341     7.423
   157  16 S        2.352    -0.005   141.248    20.003
   158   1 H        0.925     0.058     2.223     2.332
   159   1 H        0.926     0.063     2.160     2.298
   160   1 H        0.926     0.050     2.314     2.379
   161   1 H        0.925     0.050     2.314     2.379
   162   1 H        0.925     0.041     2.442     2.444
   163   1 H        0.926     0.043     2.413     2.429
   164   1 H        0.926     0.044     2.392     2.419
   165   1 H        0.925     0.044     2.395     2.420
   166   1 H        0.925     0.034     2.527     2.486
   167   1 H        0.925     0.045     2.383     2.414
   168   1 H        0.925     0.053     2.284     2.363
   169   1 H        0.926     0.052     2.299     2.371
   170   1 H        0.926     0.049     2.333     2.389
   171   1 H        0.925     0.053     2.279     2.361
   172   1 H        0.925     0.061     2.183     2.310
   173   1 H        0.924     0.054     2.275     2.359
   174   1 H        0.926     0.044     2.398     2.422
   175   1 H        0.926     0.033     2.546     2.495
   176   1 H        0.926     0.034     2.529     2.487
   177   1 H        0.926     0.050     2.321     2.382
   178   1 H        0.925     0.054     2.265     2.354
   179   1 H        0.925     0.064     2.158     2.297
   180   1 H        0.925     0.059     2.216     2.328
   181   1 H        0.926     0.053     2.280     2.361
   182   1 H        0.926     0.046     2.374     2.410
   183   1 H        0.926     0.037     2.495     2.470
   184   1 H        0.926     0.043     2.411     2.428
   185   1 H        0.925     0.057     2.236     2.339
   186   1 H        0.925     0.051     2.306     2.375
   187   1 H        0.925     0.055     2.262     2.352
   188   1 H        0.926     0.042     2.423     2.434
   189   1 H        0.926     0.030     2.590     2.517
   190   1 H        0.926     0.025     2.662     2.552
   191   1 H        0.926     0.036     2.506     2.475
   192   1 H        0.925     0.052     2.291     2.367
   193   1 H        0.925     0.049     2.338     2.391
   194   1 H        0.924     0.044     2.395     2.420
   195   1 H        0.926     0.036     2.498     2.472
   196   1 H        0.926     0.049     2.335     2.389
   197   1 H        0.926     0.027     2.631     2.537
   198   1 H        0.926     0.039     2.465     2.455
   199   1 H        0.926     0.044     2.402     2.423
   200   1 H        0.924     0.043     2.412     2.429
   201   1 H        0.924     0.045     2.388     2.417
   202   1 H        0.925     0.045     2.389     2.417
   203   1 H        0.925     0.039     2.458     2.452
   204   1 H        0.925     0.040     2.443     2.444
   205   1 H        0.926     0.040     2.453     2.449
   206   1 H        0.926     0.038     2.476     2.460
   207   1 H        0.926     0.045     2.387     2.416
   208   1 H        0.926     0.043     2.406     2.425
   209   1 H        0.924     0.046     2.375     2.410
   210   1 H        0.924     0.044     2.401     2.423
   211   1 H        0.925     0.038     2.473     2.459
   212   1 H        0.925     0.045     2.389     2.417
   213   1 H        0.925     0.041     2.437     2.441
   214   1 H        0.926     0.037     2.496     2.470
   215   1 H        0.924     0.082     1.954     2.186
   216   1 H        0.924     0.086     1.922     2.168
   217   1 H        0.925     0.053     2.282     2.363
   218   1 H        0.925     0.053     2.277     2.360
   219   1 H        0.925     0.064     2.153     2.295
   220   1 H        0.924     0.075     2.034     2.230
   221   1 H        0.925     0.083     1.950     2.184
   222   1 H        0.925     0.054     2.267     2.354
   223   1 H        0.925     0.070     2.086     2.259
   224   1 H        0.925     0.050     2.318     2.381
   225   1 H        0.924     0.090     1.880     2.144
   226   1 H        0.924     0.066     2.126     2.280
   227   1 H        0.925     0.068     2.107     2.270
   228   1 H        0.925     0.049     2.326     2.385
   229   1 H        0.925     0.074     2.046     2.237
   230   1 H        0.924     0.066     2.127     2.281
   231   1 H        0.924     0.065     2.142     2.289
   232   1 H        0.925     0.078     2.002     2.213
   233   1 H        0.925     0.072     2.059     2.244
   234   1 H        0.925     0.074     2.044     2.236
   235   1 H        0.926     0.080     1.983     2.202
   236   1 H        0.926     0.074     2.045     2.236
   237   1 H        0.926     0.089     1.891     2.150
   238   1 H        0.926     0.065     2.143     2.289

 Mol. C6AA /au·bohr⁶  :     932294.260045
 Mol. C8AA /au·bohr⁸  :   25251197.280636
 Mol. α(0) /au        :       1531.331587


Wiberg/Mayer (AO) data.
largest (>0.10) Wiberg bond orders for each atom

 ---------------------------------------------------------------------------
     #   Z sym  total        # sym  WBO       # sym  WBO       # sym  WBO
 ---------------------------------------------------------------------------
     1   6 C    3.951 --     2 C    1.431    24 C    1.370   158 H    0.932
     2   6 C    3.952 --     1 C    1.431    11 C    1.171     3 C    1.079
     3   6 C    3.905 --     4 O    1.666     2 C    1.079     5 C    1.028
     4   8 O    2.061 --     3 C    1.666    61 S    0.123
     5   6 C    3.968 --     6 C    1.382    10 C    1.310     3 C    1.028
     6   6 C    3.977 --     7 C    1.437     5 C    1.382   159 H    0.963
     7   6 C    3.954 --     6 C    1.437     8 C    1.328    23 C    0.993
     8   6 C    3.965 --     9 C    1.443     7 C    1.328    17 C    0.994
     9   6 C    3.975 --     8 C    1.443    10 C    1.370   160 H    0.959
    10   6 C    3.976 --     9 C    1.370     5 C    1.310    11 C    1.082
    11   6 C    3.969 --    12 C    1.437     2 C    1.171    10 C    1.082
    12   6 C    3.948 --    11 C    1.437    15 C    1.111    13 C    1.109
    13   6 C    3.937 --    14 N    2.734    12 C    1.109
    14   7 N    2.945 --    13 C    2.734
    15   6 C    3.941 --    16 N    2.719    12 C    1.111
    16   7 N    2.950 --    15 C    2.719
    17   6 C    3.984 --     8 C    0.994    23 C    0.975   161 H    0.960
                            18 C    0.950
    18   6 C    3.989 --    19 C    1.004    22 C    0.989   162 H    0.971
                            17 C    0.950
    19   6 C    3.981 --    20 C    1.924    18 C    1.004   163 H    0.970
    20   6 C    3.981 --    19 C    1.924    21 C    1.004   164 H    0.970
    21   6 C    3.988 --    20 C    1.004    22 C    0.989   165 H    0.970
                            23 C    0.950
    22   6 C    3.994 --    18 C    0.989    21 C    0.989   167 H    0.978
                           166 H    0.974
    23   6 C    3.982 --     7 C    0.993    17 C    0.975   168 H    0.960
                            21 C    0.950
    24   6 C    3.926 --     1 C    1.370    25 C    1.252    61 S    1.070
    25   6 C    3.948 --    41 C    1.263    24 C    1.252    26 N    1.177
    26   7 N    3.538 --    25 C    1.177    27 C    1.037    34 C    1.016
    27   6 C    3.959 --    28 C    1.366    33 C    1.365    26 N    1.037
    28   6 C    3.979 --    29 C    1.455    27 C    1.366   169 H    0.966
    29   6 C    3.990 --    28 C    1.455    30 C    1.404   170 H    0.968
                            33 C    0.106
    30   6 C    3.978 --    29 C    1.404    32 C    1.397    31 C    1.029
    31   6 C    3.993 --    30 C    1.029   171 H    0.984   172 H    0.974
                           173 H    0.966
    32   6 C    3.988 --    33 C    1.461    30 C    1.397   174 H    0.967
    33   6 C    3.985 --    32 C    1.461    27 C    1.365   175 H    0.968
                            29 C    0.106
    34   6 C    3.956 --    40 C    1.381    35 C    1.365    26 N    1.016
    35   6 C    3.983 --    36 C    1.465    34 C    1.365   176 H    0.968
                            39 C    0.102
    36   6 C    3.988 --    35 C    1.465    37 C    1.393   177 H    0.966
                            40 C    0.104
    37   6 C    3.971 --    39 C    1.407    36 C    1.393    38 C    1.030
    38   6 C    3.993 --    37 C    1.030   178 H    0.985   179 H    0.970
                           180 H    0.964
    39   6 C    3.988 --    40 C    1.451    37 C    1.407   181 H    0.967
                            35 C    0.102
    40   6 C    3.974 --    39 C    1.451    34 C    1.381   182 H    0.967
                            36 C    0.104
    41   6 C    3.933 --    60 C    1.347    25 C    1.263    42 S    1.097
    42  16 S    2.550 --    43 C    1.102    41 C    1.097
    43   6 C    3.894 --    44 C    1.418    62 C    1.129    42 S    1.102
    44   6 C    3.951 --    43 C    1.418    60 C    1.224    45 N    1.080
    45   7 N    3.478 --    44 C    1.080    46 C    1.052    53 C    1.050
    46   6 C    3.960 --    52 C    1.367    47 C    1.360    45 N    1.052
    47   6 C    3.981 --    48 C    1.467    46 C    1.360   183 H    0.967
                            51 C    0.103
    48   6 C    3.989 --    47 C    1.467    49 C    1.394   184 H    0.969
                            52 C    0.103
    49   6 C    3.972 --    51 C    1.407    48 C    1.394    50 C    1.027
    50   6 C    3.994 --    49 C    1.027   186 H    0.983   187 H    0.977
                           185 H    0.966
    51   6 C    3.989 --    52 C    1.452    49 C    1.407   188 H    0.968
                            47 C    0.103
    52   6 C    3.981 --    51 C    1.452    46 C    1.367   189 H    0.967
                            48 C    0.103
    53   6 C    3.962 --    54 C    1.372    59 C    1.359    45 N    1.050
    54   6 C    3.983 --    55 C    1.453    53 C    1.372   190 H    0.963
                            58 C    0.103
    55   6 C    3.990 --    54 C    1.453    56 C    1.406   191 H    0.968
                            59 C    0.102
    56   6 C    3.978 --    55 C    1.406    58 C    1.395    57 C    1.027
    57   6 C    3.995 --    56 C    1.027   193 H    0.984   192 H    0.976
                           194 H    0.968
    58   6 C    3.990 --    59 C    1.466    56 C    1.395   195 H    0.964
                            54 C    0.103
    59   6 C    3.981 --    58 C    1.466    53 C    1.359   196 H    0.965
                            55 C    0.102
    60   6 C    3.942 --    41 C    1.347    44 C    1.224    61 S    1.133
    61  16 S    2.666 --    60 C    1.133    24 C    1.070     4 O    0.123
    62   6 C    3.913 --    63 C    1.469    43 C    1.129   104 S    1.082
    63   6 C    3.963 --    62 C    1.469    72 C    1.236    64 C    1.050
    64   6 C    3.987 --    71 C    1.386    65 C    1.380    63 C    1.050
                            67 C    0.101
    65   6 C    3.988 --    66 C    1.449    64 C    1.380   197 H    0.963
                            68 C    0.104
    66   6 C    3.990 --    65 C    1.449    67 C    1.437   198 H    0.968
                            71 C    0.105
    67   6 C    3.982 --    66 C    1.437    68 C    1.404   199 H    0.968
                            64 C    0.101
    68   6 C    3.986 --    71 C    1.421    67 C    1.404    69 C    1.013
                            65 C    0.104
    69   6 C    3.995 --    68 C    1.013    70 C    1.000   201 H    0.974
                           200 H    0.973
    70   6 C    3.995 --    69 C    1.000   203 H    0.988   204 H    0.987
                           202 H    0.985
    71   6 C    3.985 --    68 C    1.421    64 C    1.386   205 H    0.964
                            66 C    0.105
    72   6 C    3.920 --   103 C    1.371    63 C    1.236    73 S    1.091
    73  16 S    2.507 --    74 C    1.104    72 C    1.091
    74   6 C    3.922 --   102 C    1.310    75 C    1.270    73 S    1.104
    75   6 C    3.951 --    74 C    1.270   100 C    1.265    76 C    1.174
    76   6 C    3.969 --    80 N    1.427    75 C    1.174    77 C    1.155
                            79 S    0.107
    77   6 C    3.969 --    78 N    1.427    81 C    1.176    76 C    1.155
                            79 S    0.107
    78   7 N    3.057 --    77 C    1.427    79 S    1.376    80 N    0.144
    79  16 S    3.085 --    80 N    1.376    78 N    1.376    76 C    0.107
                            77 C    0.107
    80   7 N    3.058 --    76 C    1.427    79 S    1.376    78 N    0.144
    81   6 C    3.952 --    82 C    1.268    99 C    1.265    77 C    1.176
    82   6 C    3.907 --    97 C    1.303    81 C    1.268    83 S    1.110
    83  16 S    2.487 --    82 C    1.110    84 C    1.077
    84   6 C    3.915 --    85 C    1.316    96 C    1.309    83 S    1.077
    85   6 C    3.930 --    94 C    1.384    84 C    1.316    86 C    1.014
    86   6 C    3.986 --    93 C    1.404    87 C    1.385    85 C    1.014
                            89 C    0.106
    87   6 C    3.986 --    88 C    1.443    86 C    1.385   206 H    0.970
                            90 C    0.107
    88   6 C    3.990 --    87 C    1.443    89 C    1.441   207 H    0.969
                            93 C    0.107
    89   6 C    3.988 --    88 C    1.441    90 C    1.410   208 H    0.968
                            86 C    0.106
    90   6 C    3.986 --    93 C    1.412    89 C    1.410    91 C    1.013
                            87 C    0.107
    91   6 C    3.995 --    90 C    1.013    92 C    1.000   210 H    0.973
                           209 H    0.973
    92   6 C    3.995 --    91 C    1.000   211 H    0.988   213 H    0.988
                           212 H    0.985
    93   6 C    3.986 --    90 C    1.412    86 C    1.404   214 H    0.968
                            88 C    0.107
    94   6 C    3.911 --    85 C    1.384   109 C    1.206    95 S    1.095
    95  16 S    2.708 --    96 C    1.128    94 C    1.095   111 N    0.145
    96   6 C    3.926 --    84 C    1.309    97 C    1.261    95 S    1.128
    97   6 C    3.937 --    82 C    1.303    96 C    1.261    98 N    1.149
    98   7 N    3.543 --    99 C    1.176    97 C    1.149   107 C    0.965
    99   6 C    3.926 --    81 C    1.265   100 C    1.229    98 N    1.176
   100   6 C    3.938 --    75 C    1.265    99 C    1.229   101 N    1.177
   101   7 N    3.573 --   100 C    1.177   102 C    1.174   105 C    0.972
   102   6 C    3.936 --    74 C    1.310   103 C    1.230   101 N    1.174
   103   6 C    3.934 --    72 C    1.371   102 C    1.230   104 S    1.116
   104  16 S    2.564 --   103 C    1.116    62 C    1.082
   105   6 C    3.948 --   106 C    1.009   101 N    0.972   216 H    0.957
                           215 H    0.951
   106   6 C    3.986 --   105 C    1.009   217 H    0.981   218 H    0.980
                           219 H    0.980
   107   6 C    3.951 --   108 C    1.008    98 N    0.965   220 H    0.963
                           221 H    0.960
   108   6 C    3.985 --   107 C    1.008   224 H    0.986   222 H    0.982
                           223 H    0.980
   109   6 C    3.925 --   144 C    1.360    94 C    1.206   110 C    1.180
   110   6 C    3.963 --   111 N    1.339   141 C    1.205   109 C    1.180
   111   7 N    3.197 --   112 C    1.459   110 C    1.339    95 S    0.145
   112   6 C    3.956 --   111 N    1.459   126 C    1.227   113 C    1.032
   113   6 C    3.977 --   121 C    1.352   114 C    1.314   112 C    1.032
   114   6 C    3.896 --   115 C    1.387   113 C    1.314   125 F    0.995
   115   6 C    3.892 --   114 C    1.387   116 C    1.275   124 F    0.984
   116   6 C    3.954 --   120 C    1.306   115 C    1.275   117 O    1.155
   117   8 O    2.310 --   116 C    1.155   118 C    0.924
   118   6 C    3.904 --   119 C    1.013   226 H    0.968   225 H    0.965
                           117 O    0.924
   119   6 C    3.984 --   118 C    1.013   228 H    0.985   227 H    0.984
                           229 H    0.978
   120   6 C    3.881 --   121 C    1.355   116 C    1.306   123 F    0.968
   121   6 C    3.880 --   120 C    1.355   113 C    1.352   122 F    0.969
   122   9 F    1.102 --   121 C    0.969
   123   9 F    1.102 --   120 C    0.968
   124   9 F    1.122 --   115 C    0.984
   125   9 F    1.143 --   114 C    0.995
   126   6 C    3.961 --   140 N    1.477   112 C    1.227   127 C    1.040
   127   6 C    3.977 --   128 C    1.336   138 C    1.319   126 C    1.040
   128   6 C    3.892 --   130 C    1.358   127 C    1.336   129 F    0.991
   129   9 F    1.133 --   128 C    0.991
   130   6 C    3.882 --   128 C    1.358   132 C    1.303   131 F    0.968
   131   9 F    1.101 --   130 C    0.968
   132   6 C    3.956 --   130 C    1.303   136 C    1.271   133 O    1.163
   133   8 O    2.315 --   132 C    1.163   134 C    0.920
   134   6 C    3.903 --   135 C    1.017   231 H    0.968   230 H    0.967
                           133 O    0.920
   135   6 C    3.982 --   134 C    1.017   233 H    0.983   234 H    0.983
                           232 H    0.979
   136   6 C    3.886 --   138 C    1.390   132 C    1.271   137 F    0.979
   137   9 F    1.114 --   136 C    0.979
   138   6 C    3.886 --   136 C    1.390   127 C    1.319   139 F    0.974
   139   9 F    1.109 --   138 C    0.974
   140   7 N    3.066 --   126 C    1.477   141 C    1.322
   141   6 C    3.963 --   140 N    1.322   110 C    1.205   142 C    1.200
   142   6 C    3.927 --   143 C    1.366   141 C    1.200   145 C    1.175
   143   6 C    3.948 --   144 C    1.442   142 C    1.366   235 H    0.954
   144   6 C    3.956 --   143 C    1.442   109 C    1.360   236 H    0.954
   145   6 C    3.916 --   146 C    1.400   142 C    1.175   157 S    1.164
   146   6 C    3.948 --   147 C    1.425   145 C    1.400   237 H    0.948
   147   6 C    3.958 --   146 C    1.425   148 C    1.382   238 H    0.955
   148   6 C    3.937 --   147 C    1.382   149 C    1.223   157 S    1.106
   149   6 C    3.947 --   150 C    1.383   148 C    1.223   155 C    1.090
   150   6 C    3.921 --   149 C    1.383   153 C    1.119   151 C    1.108
   151   6 C    3.940 --   152 N    2.753   150 C    1.108
   152   7 N    2.945 --   151 C    2.753
   153   6 C    3.942 --   154 N    2.739   150 C    1.119
   154   7 N    2.943 --   153 C    2.739
   155   6 C    3.940 --   156 N    2.794   149 C    1.090
   156   7 N    2.969 --   155 C    2.794
   157  16 S    2.578 --   145 C    1.164   148 C    1.106
   158   1 H    0.996 --     1 C    0.932
   159   1 H    0.995 --     6 C    0.963
   160   1 H    0.997 --     9 C    0.959
   161   1 H    0.996 --    17 C    0.960
   162   1 H    0.998 --    18 C    0.971
   163   1 H    0.998 --    19 C    0.970
   164   1 H    0.998 --    20 C    0.970
   165   1 H    0.998 --    21 C    0.970
   166   1 H    0.999 --    22 C    0.974
   167   1 H    0.998 --    22 C    0.978
   168   1 H    0.995 --    23 C    0.960
   169   1 H    0.997 --    28 C    0.966
   170   1 H    0.997 --    29 C    0.968
   171   1 H    0.997 --    31 C    0.984
   172   1 H    0.995 --    31 C    0.974
   173   1 H    0.995 --    31 C    0.966
   174   1 H    0.997 --    32 C    0.967
   175   1 H    0.999 --    33 C    0.968
   176   1 H    0.998 --    35 C    0.968
   177   1 H    0.997 --    36 C    0.966
   178   1 H    0.997 --    38 C    0.985
   179   1 H    0.994 --    38 C    0.970
   180   1 H    0.995 --    38 C    0.964
   181   1 H    0.996 --    39 C    0.967
   182   1 H    0.998 --    40 C    0.967
   183   1 H    0.998 --    47 C    0.967
   184   1 H    0.998 --    48 C    0.969
   185   1 H    0.995 --    50 C    0.966
   186   1 H    0.997 --    50 C    0.983
   187   1 H    0.996 --    50 C    0.977
   188   1 H    0.998 --    51 C    0.968
   189   1 H    0.999 --    52 C    0.967
   190   1 H    0.999 --    54 C    0.963
   191   1 H    0.998 --    55 C    0.968
   192   1 H    0.996 --    57 C    0.976
   193   1 H    0.997 --    57 C    0.984
   194   1 H    0.996 --    57 C    0.968
   195   1 H    0.998 --    58 C    0.964
   196   1 H    0.997 --    59 C    0.965
   197   1 H    0.999 --    65 C    0.963
   198   1 H    0.998 --    66 C    0.968
   199   1 H    0.997 --    67 C    0.968
   200   1 H    0.998 --    69 C    0.973
   201   1 H    0.998 --    69 C    0.974
   202   1 H    0.997 --    70 C    0.985
   203   1 H    0.998 --    70 C    0.988
   204   1 H    0.998 --    70 C    0.987
   205   1 H    0.998 --    71 C    0.964
   206   1 H    0.998 --    87 C    0.970
   207   1 H    0.996 --    88 C    0.969
   208   1 H    0.998 --    89 C    0.968
   209   1 H    0.997 --    91 C    0.973
   210   1 H    0.998 --    91 C    0.973
   211   1 H    0.999 --    92 C    0.988
   212   1 H    0.997 --    92 C    0.985
   213   1 H    0.998 --    92 C    0.988
   214   1 H    0.999 --    93 C    0.968
   215   1 H    0.990 --   105 C    0.951
   216   1 H    0.992 --   105 C    0.957
   217   1 H    0.996 --   106 C    0.981
   218   1 H    0.997 --   106 C    0.980
   219   1 H    0.995 --   106 C    0.980
   220   1 H    0.992 --   107 C    0.963
   221   1 H    0.992 --   107 C    0.960
   222   1 H    0.997 --   108 C    0.982
   223   1 H    0.994 --   108 C    0.980
   224   1 H    0.997 --   108 C    0.986
   225   1 H    0.991 --   118 C    0.965
   226   1 H    0.995 --   118 C    0.968
   227   1 H    0.995 --   119 C    0.984
   228   1 H    0.998 --   119 C    0.985
   229   1 H    0.994 --   119 C    0.978
   230   1 H    0.995 --   134 C    0.967
   231   1 H    0.995 --   134 C    0.968
   232   1 H    0.993 --   135 C    0.979
   233   1 H    0.995 --   135 C    0.983
   234   1 H    0.995 --   135 C    0.983
   235   1 H    0.992 --   143 C    0.954
   236   1 H    0.994 --   144 C    0.954
   237   1 H    0.991 --   146 C    0.948
   238   1 H    0.995 --   147 C    0.955
 ---------------------------------------------------------------------------

Topologies differ in bond orders
Writing corrected topology to xtbtopo.mol

molecular dipole:
                 x           y           z       tot (Debye)
 q only:        6.213       2.743      -1.577
   full:        6.367       2.104      -1.649      17.553
molecular quadrupole (traceless):
                xx          xy          yy          xz          yz          zz
 q only:     -280.237     -91.528     212.306     245.556      11.980      67.931
  q+dip:     -306.632     -97.402     218.556     243.251      25.332      88.076
   full:     -316.300     -95.474     220.484     244.951      36.480      95.817


           -------------------------------------------------
          | TOTAL ENERGY             -423.038264825253 Eh   |
          | GRADIENT NORM               0.042904310261 Eh/α |
          | HOMO-LUMO GAP               0.207472090874 eV   |
           -------------------------------------------------

------------------------------------------------------------------------
 * finished run on 2022/02/19 at 04:02:12.569     
------------------------------------------------------------------------
 total:
 * wall-time:     0 d,  0 h,  0 min,  1.666 sec
 *  cpu-time:     0 d,  0 h,  0 min, 11.511 sec
 * ratio c/w:     6.908 speedup
 SCF:
 * wall-time:     0 d,  0 h,  0 min,  1.528 sec
 *  cpu-time:     0 d,  0 h,  0 min, 10.678 sec
 * ratio c/w:     6.988 speedup

