      -----------------------------------------------------------      
     |                   =====================                   |     
     |                           x T B                           |     
     |                   =====================                   |     
     |                         S. Grimme                         |     
     |          Mulliken Center for Theoretical Chemistry        |     
     |                    University of Bonn                     |     
      -----------------------------------------------------------      

   * xtb version 6.4.1 (unknown) compiled by 'oda6@login1.crc.pitt.edu' on 2021-06-25

   xtb is free software: you can redistribute it and/or modify it under
   the terms of the GNU Lesser General Public License as published by
   the Free Software Foundation, either version 3 of the License, or
   (at your option) any later version.
   
   xtb is distributed in the hope that it will be useful,
   but WITHOUT ANY WARRANTY; without even the implied warranty of
   MERCHANTABILITY or FITNESS FOR A PARTICULAR PURPOSE.  See the
   GNU Lesser General Public License for more details.
   
   Cite this work as:
   * C. Bannwarth, E. Caldeweyher, S. Ehlert, A. Hansen, P. Pracht,
     J. Seibert, S. Spicher, S. Grimme, WIREs Comput. Mol. Sci., 2020, 11,
     e01493. DOI: 10.1002/wcms.1493
   
   for GFN2-xTB:
   * C. Bannwarth, S. Ehlert and S. Grimme., J. Chem. Theory Comput., 2019,
     15, 1652-1671. DOI: 10.1021/acs.jctc.8b01176
   for GFN1-xTB:
   * S. Grimme, C. Bannwarth, P. Shushkov, J. Chem. Theory Comput., 2017,
     13, 1989-2009. DOI: 10.1021/acs.jctc.7b00118
   for GFN0-xTB:
   * P. Pracht, E. Caldeweyher, S. Ehlert, S. Grimme, ChemRxiv, 2019, preprint.
     DOI: 10.26434/chemrxiv.8326202.v1
   for GFN-FF:
   * S. Spicher and S. Grimme, Angew. Chem. Int. Ed., 2020, 59, 15665-15673.
     DOI: 10.1002/anie.202004239
   
   for DFT-D4:
   * E. Caldeweyher, C. Bannwarth and S. Grimme, J. Chem. Phys., 2017,
     147, 034112. DOI: 10.1063/1.4993215
   * E. Caldeweyher, S. Ehlert, A. Hansen, H. Neugebauer, S. Spicher,
     C. Bannwarth and S. Grimme, J. Chem. Phys., 2019, 150, 154122.
     DOI: 10.1063/1.5090222
   * E. Caldeweyher, J.-M. Mewes, S. Ehlert and S. Grimme, Phys. Chem. Chem. Phys.
     2020, 22, 8499-8512. DOI: 10.1039/D0CP00502A
   
   for sTDA-xTB:
   * S. Grimme and C. Bannwarth, J. Chem. Phys., 2016, 145, 054103.
     DOI: 10.1063/1.4959605
   
   in the mass-spec context:
   * V. Asgeirsson, C. Bauer and S. Grimme, Chem. Sci., 2017, 8, 4879.
     DOI: 10.1039/c7sc00601b
   * J. Koopman and S. Grimme, ACS Omega 2019, 4, 12, 15120-15133.
     DOI: 10.1021/acsomega.9b02011
   
   for metadynamics refer to:
   * S. Grimme, J. Chem. Theory Comput., 2019, 155, 2847-2862
     DOI: 10.1021/acs.jctc.9b00143
   
   for SPH calculations refer to:
   * S. Spicher and S. Grimme, J. Chem. Theory Comput., 2021, 17, 1701-1714
     DOI: 10.1021/acs.jctc.0c01306
   
   with help from (in alphabetical order)
   P. Atkinson, C. Bannwarth, F. Bohle, G. Brandenburg, E. Caldeweyher
   M. Checinski, S. Dohm, S. Ehlert, S. Ehrlich, I. Gerasimov, J. Koopman
   C. Lavigne, S. Lehtola, F. März, M. Müller, F. Musil, H. Neugebauer
   J. Pisarek, C. Plett, P. Pracht, J. Seibert, P. Shushkov, S. Spicher
   M. Stahn, M. Steiner, T. Strunk, J. Stückrath, T. Rose, and J. Unsleber
   
 * started run on 2022/02/19 at 09:24:36.666     

           -------------------------------------------------
          |                Calculation Setup                |
           -------------------------------------------------

          program call               : /ihome/ghutchison/oda6/xtb/xtb-641/bin/xtb ../../GFN2_output/39_30_86_30_39.mol --sp --alpb water
          hostname                   : smp-n9
          coordinate file            : ../../GFN2_output/39_30_86_30_39.mol
          omp threads                :                     8
          number of atoms            :                   179
          number of electrons        :                   564
          charge                     :                     0
          spin                       :                   0.0
          first test random number   :      0.14976717658816

   ID    Z sym.   atoms
    1    6 C      1-3, 5-13, 15, 17-25, 28, 29, 31-34, 36-46, 48-51, 55, 56,
                  58-68, 70, 71, 73, 74, 76, 77, 79-84, 87, 88, 90-93, 95-97,
                  99-107, 109, 111-117
    2    8 O      4, 98
    3    7 N      14, 16, 26, 27, 30, 52, 54, 72, 75, 85, 86, 89, 108, 110
    4    9 F      35, 94
    5   16 S      47, 53, 57, 69, 78
    6    1 H      118-179

           -------------------------------------------------
          |                 G F N 2 - x T B                 |
           -------------------------------------------------

        Reference                      10.1021/acs.jctc.8b01176
      * Hamiltonian:
        H0-scaling (s, p, d)           1.850000    2.230000    2.230000
        zeta-weighting                 0.500000
      * Dispersion:
        s8                             2.700000
        a1                             0.520000
        a2                             5.000000
        s9                             5.000000
      * Repulsion:
        kExp                           1.500000    1.000000
        rExp                           1.000000
      * Coulomb:
        alpha                          2.000000
        third order                    shell-resolved
        anisotropic                    true
        a3                             3.000000
        a5                             4.000000
        cn-shift                       1.200000
        cn-exp                         4.000000
        max-rad                        5.000000

      * Solvation model:               ALPB
        Solvent                        water
        Parameter file                 internal GFN2-xTB/ALPB
        Dielectric constant                8.0200E+01
        Reference state                gsolv [1 M gas/solution]
        Free energy shift                  1.0808E-03 Eh       6.7819E-01 kcal/mol
        Temperature                        2.9815E+02 K
        Density                            1.0000E+00 kg/L
        Solvent mass                       1.8000E+01 g/mol
        Interaction kernel             P16
        Born radius scaling (c1)           1.4744E+00
        Born radii integrator          GBOBC
        Born offset                        0.0000E+00 a0       0.0000E+00 AA
        H-bond correction              true
        Ion screening                  false
        Surface tension                    1.0000E-05 Eh       1.5569E+01 dyn/cm
        Grid points                               230 per atom

          ...................................................
          :                      SETUP                      :
          :.................................................:
          :  # basis functions                 560          :
          :  # atomic orbitals                 555          :
          :  # shells                          301          :
          :  # electrons                       564          :
          :  max. iterations                   250          :
          :  Hamiltonian                  GFN2-xTB          :
          :  restarted?                      false          :
          :  GBSA solvation                   true          :
          :  PC potential                    false          :
          :  electronic temp.          300.0000000     K    :
          :  accuracy                    1.0000000          :
          :  -> integral cutoff          0.2500000E+02      :
          :  -> integral neglect         0.1000000E-07      :
          :  -> SCF convergence          0.1000000E-05 Eh   :
          :  -> wf. convergence          0.1000000E-03 e    :
          :  Broyden damping             0.4000000          :
          ...................................................

 iter      E             dE          RMSdq      gap      omega  full diag
   1   -312.0205260 -0.312021E+03  0.425E+00    1.00       0.0  T
   2   -312.3583622 -0.337836E+00  0.261E+00    0.82       1.0  T
   3   -312.3260027  0.323595E-01  0.133E+00    0.85       1.0  T
   4   -312.4456647 -0.119662E+00  0.430E-01    0.81       1.0  T
   5   -312.4671027 -0.214380E-01  0.143E-01    0.76       1.0  T
   6   -312.4684700 -0.136733E-02  0.725E-02    0.79       1.0  T
   7   -312.4687708 -0.300764E-03  0.274E-02    0.79       1.0  T
   8   -312.4687936 -0.228349E-04  0.130E-02    0.79       1.0  T
   9   -312.4688024 -0.882662E-05  0.629E-03    0.78       1.2  T
  10   -312.4688035 -0.103209E-05  0.348E-03    0.78       2.1  T
  11   -312.4688041 -0.665165E-06  0.181E-03    0.78       4.1  T
  12   -312.4688042 -0.116877E-06  0.926E-04    0.78       8.1  T
  13   -312.4688043 -0.511823E-07  0.370E-04    0.78      20.2  T

   *** convergence criteria satisfied after 13 iterations ***

         #    Occupation            Energy/Eh            Energy/eV
      -------------------------------------------------------------
         1        2.0000           -0.8428096             -22.9340
       ...           ...                  ...                  ...
       276        2.0000           -0.3935369             -10.7087
       277        2.0000           -0.3910906             -10.6421
       278        2.0000           -0.3888045             -10.5799
       279        2.0000           -0.3810229             -10.3682
       280        2.0000           -0.3805248             -10.3546
       281        2.0000           -0.3739008             -10.1744
       282        2.0000           -0.3638643              -9.9013 (HOMO)
       283        0.0000           -0.3350814              -9.1180 (LUMO)
       284                         -0.3328992              -9.0586
       285                         -0.3218477              -8.7579
       286                         -0.3210197              -8.7354
       287                         -0.3021029              -8.2206
       ...                                ...                  ...
       555                          1.1507012              31.3122
      -------------------------------------------------------------
                  HL-Gap            0.0287829 Eh            0.7832 eV
             Fermi-level           -0.3495184 Eh           -9.5109 eV

 SCC (total)                   0 d,  0 h,  0 min,  0.687 sec
 SCC setup                      ...        0 min,  0.005 sec (  0.749%)
 Dispersion                     ...        0 min,  0.009 sec (  1.299%)
 classical contributions        ...        0 min,  0.000 sec (  0.037%)
 integral evaluation            ...        0 min,  0.029 sec (  4.217%)
 iterations                     ...        0 min,  0.556 sec ( 80.939%)
 molecular gradient             ...        0 min,  0.084 sec ( 12.239%)
 printout                       ...        0 min,  0.004 sec (  0.511%)

         :::::::::::::::::::::::::::::::::::::::::::::::::::::
         ::                     SUMMARY                     ::
         :::::::::::::::::::::::::::::::::::::::::::::::::::::
         :: total energy            -307.644663108075 Eh    ::
         :: total w/o Gsasa/hb      -307.613610262845 Eh    ::
         :: gradient norm              0.036910372408 Eh/a0 ::
         :: HOMO-LUMO gap              0.783221729353 eV    ::
         ::.................................................::
         :: SCC energy              -312.468804293241 Eh    ::
         :: -> isotropic ES            0.224282056277 Eh    ::
         :: -> anisotropic ES          0.003348121012 Eh    ::
         :: -> anisotropic XC          0.192335540785 Eh    ::
         :: -> dispersion             -0.288289647428 Eh    ::
         :: -> Gsolv                  -0.082744443850 Eh    ::
         ::    -> Gelec               -0.051691598620 Eh    ::
         ::    -> Gsasa               -0.023648970587 Eh    ::
         ::    -> Ghb                 -0.008484634341 Eh    ::
         ::    -> Gshift               0.001080759698 Eh    ::
         :: repulsion energy           4.822234222344 Eh    ::
         :: add. restraining           0.000000000000 Eh    ::
         :: total charge              -0.000000000040 e     ::
         :::::::::::::::::::::::::::::::::::::::::::::::::::::

           -------------------------------------------------
          |                Property Printout                |
           -------------------------------------------------

    * Orbital Energies and Occupations

         #    Occupation            Energy/Eh            Energy/eV
      -------------------------------------------------------------
         1        2.0000           -0.8428096             -22.9340
       ...           ...                  ...                  ...
       270        2.0000           -0.4058973             -11.0450
       271        2.0000           -0.4042498             -11.0002
       272        2.0000           -0.4023154             -10.9476
       273        2.0000           -0.4000101             -10.8848
       274        2.0000           -0.3972291             -10.8092
       275        2.0000           -0.3956410             -10.7659
       276        2.0000           -0.3935369             -10.7087
       277        2.0000           -0.3910906             -10.6421
       278        2.0000           -0.3888045             -10.5799
       279        2.0000           -0.3810229             -10.3682
       280        2.0000           -0.3805248             -10.3546
       281        2.0000           -0.3739008             -10.1744
       282        2.0000           -0.3638643              -9.9013 (HOMO)
       283        0.0000           -0.3350814              -9.1180 (LUMO)
       284                         -0.3328992              -9.0586
       285                         -0.3218477              -8.7579
       286                         -0.3210197              -8.7354
       287                         -0.3021029              -8.2206
       288                         -0.2909290              -7.9166
       289                         -0.2885750              -7.8525
       290                         -0.2699928              -7.3469
       291                         -0.2635674              -7.1720
       292                         -0.2532140              -6.8903
       293                         -0.2514390              -6.8420
       ...                                ...                  ...
       555                          1.1507012              31.3122
      -------------------------------------------------------------
                  HL-Gap            0.0287829 Eh            0.7832 eV
             Fermi-level           -0.3495184 Eh           -9.5109 eV

     #   Z          covCN         q      C6AA      α(0)
     1   6 C        2.902    -0.005    28.143     8.698
     2   6 C        3.002    -0.026    28.630     8.777
     3   6 C        2.866     0.239    23.024     7.865
     4   8 O        0.856    -0.420    22.084     6.301
     5   6 C        3.056    -0.019    28.431     8.744
     6   6 C        2.904    -0.023    28.568     8.764
     7   6 C        3.259     0.018    26.470     8.315
     8   6 C        3.254     0.017    26.552     8.335
     9   6 C        2.904    -0.032    28.806     8.800
    10   6 C        3.044     0.007    27.824     8.651
    11   6 C        3.016     0.040    27.082     8.536
    12   6 C        2.947     0.004    27.931     8.668
    13   6 C        1.946     0.136    27.756     8.508
    14   7 N        0.911    -0.278    27.189     7.541
    15   6 C        1.945     0.132    27.847     8.522
    16   7 N        0.911    -0.284    27.321     7.560
    17   6 C        4.162    -0.025    20.931     6.498
    18   6 C        4.013    -0.016    20.786     6.477
    19   6 C        2.995    -0.043    29.067     8.844
    20   6 C        2.995    -0.044    29.083     8.846
    21   6 C        4.013    -0.017    20.791     6.477
    22   6 C        3.914    -0.064    21.660     6.615
    23   6 C        4.160    -0.025    20.929     6.498
    24   6 C        2.962     0.007    27.873     8.660
    25   6 C        3.165     0.064    26.239     8.371
    26   7 N        1.992    -0.256    27.457     7.771
    27   7 N        3.285     0.245    17.271     6.172
    28   6 C        3.747    -0.040    21.348     6.590
    29   6 C        3.754    -0.124    22.937     6.829
    30   7 N        1.991    -0.249    27.300     7.749
    31   6 C        3.180     0.055    26.360     8.382
    32   6 C        3.005    -0.012    28.309     8.728
    33   6 C        2.788     0.156    24.607     8.126
    34   6 C        2.927    -0.057    29.406     8.893
    35   9 F        0.788    -0.248    11.745     4.048
    36   6 C        3.005     0.013    27.702     8.634
    37   6 C        3.105    -0.006    28.024     8.674
    38   6 C        2.974     0.014    27.704     8.634
    39   6 C        2.924    -0.037    28.918     8.819
    40   6 C        2.918    -0.034    28.842     8.807
    41   6 C        2.925    -0.041    29.020     8.834
    42   6 C        2.970     0.015    27.685     8.631
    43   6 C        3.807    -0.064    21.723     6.635
    44   6 C        3.754    -0.101    22.491     6.762
    45   6 C        2.932    -0.040    29.002     8.832
    46   6 C        3.190     0.008    27.342     8.529
    47  16 S        2.184    -0.063   143.655    20.173
    48   6 C        3.102     0.002    27.840     8.646
    49   6 C        3.074    -0.041    28.938     8.820
    50   6 C        3.335     0.068    24.148     7.784
    51   6 C        3.335     0.068    24.151     7.784
    52   7 N        1.853    -0.301    28.644     7.932
    53  16 S        2.678     0.293   129.679    19.166
    54   7 N        1.853    -0.303    28.708     7.941
    55   6 C        3.072    -0.040    28.924     8.818
    56   6 C        3.106     0.002    27.843     8.646
    57  16 S        2.184    -0.053   143.243    20.144
    58   6 C        3.197     0.010    27.256     8.511
    59   6 C        3.107    -0.000    27.888     8.653
    60   6 C        2.974     0.016    27.644     8.624
    61   6 C        2.925    -0.036    28.890     8.815
    62   6 C        2.918    -0.034    28.854     8.809
    63   6 C        2.925    -0.042    29.046     8.838
    64   6 C        2.970     0.014    27.691     8.632
    65   6 C        3.807    -0.062    21.684     6.629
    66   6 C        3.753    -0.103    22.533     6.769
    67   6 C        2.931    -0.036    28.885     8.814
    68   6 C        3.002     0.012    27.729     8.638
    69  16 S        2.267    -0.034   142.442    20.087
    70   6 C        3.122     0.009    27.648     8.611
    71   6 C        3.256     0.032    26.197     8.276
    72   7 N        2.791    -0.029    21.809     6.936
    73   6 C        3.102     0.032    27.155     8.539
    74   6 C        3.101     0.032    27.164     8.541
    75   7 N        2.791    -0.028    21.782     6.932
    76   6 C        3.263     0.032    26.121     8.254
    77   6 C        3.123     0.005    27.733     8.624
    78  16 S        2.268    -0.003   141.198    19.999
    79   6 C        3.743    -0.015    20.922     6.525
    80   6 C        3.752    -0.126    22.987     6.837
    81   6 C        3.741    -0.011    20.857     6.516
    82   6 C        3.752    -0.125    22.965     6.834
    83   6 C        3.000     0.011    27.768     8.644
    84   6 C        3.165     0.053    26.471     8.408
    85   7 N        1.991    -0.249    27.305     7.750
    86   7 N        3.286     0.242    17.314     6.180
    87   6 C        3.747    -0.037    21.300     6.583
    88   6 C        3.754    -0.123    22.913     6.826
    89   7 N        1.989    -0.259    27.546     7.784
    90   6 C        3.177     0.071    26.036     8.332
    91   6 C        2.963    -0.015    28.387     8.739
    92   6 C        2.792     0.164    24.456     8.101
    93   6 C        2.928    -0.067    29.673     8.933
    94   9 F        0.788    -0.250    11.760     4.051
    95   6 C        2.901     0.004    27.938     8.667
    96   6 C        3.007    -0.027    28.662     8.782
    97   6 C        2.866     0.237    23.061     7.872
    98   8 O        0.856    -0.420    22.082     6.300
    99   6 C        3.059    -0.020    28.456     8.748
   100   6 C        2.904    -0.021    28.540     8.760
   101   6 C        3.260     0.017    26.480     8.315
   102   6 C        3.256     0.017    26.525     8.328
   103   6 C        2.904    -0.032    28.786     8.797
   104   6 C        3.045     0.007    27.825     8.652
   105   6 C        3.020     0.040    27.082     8.536
   106   6 C        2.947     0.005    27.909     8.665
   107   6 C        1.937     0.132    27.863     8.524
   108   7 N        0.911    -0.282    27.278     7.554
   109   6 C        1.937     0.136    27.768     8.510
   110   7 N        0.911    -0.276    27.131     7.533
   111   6 C        4.163    -0.028    20.983     6.506
   112   6 C        4.012    -0.016    20.788     6.477
   113   6 C        2.987    -0.043    29.051     8.841
   114   6 C        2.987    -0.044    29.072     8.845
   115   6 C        4.012    -0.017    20.791     6.478
   116   6 C        3.926    -0.066    21.702     6.621
   117   6 C        4.161    -0.028    20.978     6.505
   118   1 H        0.925     0.069     2.093     2.262
   119   1 H        0.926     0.069     2.095     2.263
   120   1 H        0.926     0.057     2.230     2.335
   121   1 H        0.925     0.055     2.259     2.351
   122   1 H        0.925     0.043     2.414     2.430
   123   1 H        0.926     0.043     2.408     2.427
   124   1 H        0.926     0.045     2.383     2.414
   125   1 H        0.925     0.048     2.346     2.395
   126   1 H        0.925     0.047     2.356     2.400
   127   1 H        0.925     0.037     2.486     2.466
   128   1 H        0.925     0.058     2.225     2.333
   129   1 H        0.924     0.098     1.799     2.098
   130   1 H        0.924     0.107     1.725     2.054
   131   1 H        0.925     0.055     2.264     2.353
   132   1 H        0.925     0.067     2.120     2.277
   133   1 H        0.925     0.085     1.932     2.174
   134   1 H        0.926     0.075     2.026     2.226
   135   1 H        0.926     0.039     2.464     2.455
   136   1 H        0.926     0.044     2.395     2.420
   137   1 H        0.926     0.044     2.402     2.424
   138   1 H        0.924     0.043     2.404     2.425
   139   1 H        0.924     0.047     2.361     2.403
   140   1 H        0.925     0.026     2.650     2.546
   141   1 H        0.925     0.039     2.462     2.454
   142   1 H        0.925     0.047     2.351     2.398
   143   1 H        0.925     0.023     2.691     2.565
   144   1 H        0.926     0.042     2.429     2.437
   145   1 H        0.926     0.048     2.346     2.395
   146   1 H        0.925     0.045     2.386     2.416
   147   1 H        0.924     0.041     2.432     2.439
   148   1 H        0.924     0.046     2.368     2.406
   149   1 H        0.925     0.033     2.549     2.497
   150   1 H        0.925     0.040     2.447     2.446
   151   1 H        0.925     0.042     2.422     2.434
   152   1 H        0.926     0.019     2.756     2.596
   153   1 H        0.925     0.085     1.925     2.170
   154   1 H        0.924     0.083     1.950     2.184
   155   1 H        0.925     0.047     2.358     2.401
   156   1 H        0.925     0.053     2.284     2.363
   157   1 H        0.925     0.075     2.028     2.227
   158   1 H        0.925     0.084     1.939     2.177
   159   1 H        0.924     0.080     1.980     2.200
   160   1 H        0.925     0.053     2.283     2.363
   161   1 H        0.925     0.072     2.065     2.247
   162   1 H        0.925     0.049     2.334     2.389
   163   1 H        0.924     0.099     1.794     2.094
   164   1 H        0.924     0.098     1.800     2.098
   165   1 H        0.925     0.059     2.206     2.322
   166   1 H        0.925     0.058     2.224     2.332
   167   1 H        0.925     0.083     1.948     2.182
   168   1 H        0.926     0.084     1.942     2.179
   169   1 H        0.925     0.066     2.124     2.279
   170   1 H        0.926     0.068     2.102     2.267
   171   1 H        0.926     0.058     2.219     2.330
   172   1 H        0.925     0.062     2.173     2.305
   173   1 H        0.925     0.044     2.393     2.419
   174   1 H        0.926     0.030     2.582     2.513
   175   1 H        0.926     0.035     2.519     2.482
   176   1 H        0.925     0.048     2.351     2.398
   177   1 H        0.925     0.050     2.316     2.380
   178   1 H        0.925     0.050     2.320     2.382
   179   1 H        0.925     0.064     2.150     2.293

 Mol. C6AA /au·bohr⁶  :     515052.969947
 Mol. C8AA /au·bohr⁸  :   13797541.829195
 Mol. α(0) /au        :       1132.582221


Wiberg/Mayer (AO) data.
largest (>0.10) Wiberg bond orders for each atom

 ---------------------------------------------------------------------------
     #   Z sym  total        # sym  WBO       # sym  WBO       # sym  WBO
 ---------------------------------------------------------------------------
     1   6 C    3.936 --     2 C    1.601    24 C    1.164   118 H    0.943
     2   6 C    3.964 --     1 C    1.601    11 C    1.125     3 C    1.018
     3   6 C    3.911 --     4 O    1.741     5 C    1.034     2 C    1.018
     4   8 O    2.019 --     3 C    1.741
     5   6 C    3.971 --     6 C    1.377    10 C    1.301     3 C    1.034
     6   6 C    3.979 --     7 C    1.442     5 C    1.377   119 H    0.962
     7   6 C    3.950 --     6 C    1.442     8 C    1.315    23 C    0.995
     8   6 C    3.963 --     9 C    1.454     7 C    1.315    17 C    0.995
     9   6 C    3.977 --     8 C    1.454    10 C    1.357   120 H    0.958
    10   6 C    3.978 --     9 C    1.357     5 C    1.301    11 C    1.099
    11   6 C    3.968 --    12 C    1.476     2 C    1.125    10 C    1.099
    12   6 C    3.955 --    11 C    1.476    15 C    1.101    13 C    1.100
    13   6 C    3.941 --    14 N    2.750    12 C    1.100
    14   7 N    2.959 --    13 C    2.750
    15   6 C    3.940 --    16 N    2.744    12 C    1.101
    16   7 N    2.955 --    15 C    2.744
    17   6 C    3.983 --     8 C    0.995    23 C    0.974   121 H    0.959
                            18 C    0.949
    18   6 C    3.988 --    19 C    1.004    22 C    0.989   122 H    0.970
                            17 C    0.949
    19   6 C    3.980 --    20 C    1.923    18 C    1.004   123 H    0.970
    20   6 C    3.980 --    19 C    1.923    21 C    1.004   124 H    0.970
    21   6 C    3.986 --    20 C    1.004    22 C    0.989   125 H    0.970
                            23 C    0.948
    22   6 C    3.993 --    18 C    0.989    21 C    0.989   126 H    0.978
                           127 H    0.974
    23   6 C    3.981 --     7 C    0.995    17 C    0.974   128 H    0.958
                            21 C    0.948
    24   6 C    3.947 --    34 C    1.401    25 C    1.200     1 C    1.164
    25   6 C    3.972 --    26 N    1.348    31 C    1.217    24 C    1.200
    26   7 N    2.989 --    25 C    1.348    27 N    1.303    30 N    0.206
    27   7 N    3.771 --    26 N    1.303    30 N    1.303    28 C    0.972
    28   6 C    3.939 --    29 C    0.994    27 N    0.972   130 H    0.962
                           129 H    0.961
    29   6 C    3.977 --    28 C    0.994   131 H    0.985   132 H    0.985
                           133 H    0.978
    30   7 N    2.995 --    31 C    1.338    27 N    1.303    26 N    0.206
    31   6 C    3.971 --    30 N    1.338    25 C    1.217    32 C    1.210
    32   6 C    3.960 --    33 C    1.359    31 C    1.210    36 C    1.144
    33   6 C    3.854 --    34 C    1.371    32 C    1.359    35 F    0.940
    34   6 C    3.961 --    24 C    1.401    33 C    1.371   134 H    0.962
    35   9 F    1.064 --    33 C    0.940
    36   6 C    3.915 --    37 C    1.436    32 C    1.144    78 S    1.099
    37   6 C    3.951 --    36 C    1.436    46 C    1.261    38 C    1.049
    38   6 C    3.986 --    45 C    1.386    39 C    1.381    37 C    1.049
                            41 C    0.101
    39   6 C    3.985 --    40 C    1.448    38 C    1.381   135 H    0.967
                            42 C    0.104
    40   6 C    3.990 --    39 C    1.448    41 C    1.439   136 H    0.969
                            45 C    0.106
    41   6 C    3.981 --    40 C    1.439    42 C    1.404   137 H    0.968
                            38 C    0.101
    42   6 C    3.987 --    45 C    1.423    41 C    1.404    43 C    1.012
                            39 C    0.104
    43   6 C    3.995 --    42 C    1.012    44 C    1.001   139 H    0.975
                           138 H    0.971
    44   6 C    3.995 --    43 C    1.001   141 H    0.988   140 H    0.987
                           142 H    0.985
    45   6 C    3.988 --    42 C    1.423    38 C    1.386   143 H    0.967
                            40 C    0.106
    46   6 C    3.921 --    77 C    1.348    37 C    1.261    47 S    1.091
    47  16 S    2.506 --    48 C    1.107    46 C    1.091
    48   6 C    3.921 --    76 C    1.321    49 C    1.257    47 S    1.107
    49   6 C    3.955 --    74 C    1.278    48 C    1.257    50 C    1.176
    50   6 C    3.969 --    54 N    1.426    49 C    1.176    51 C    1.153
                            53 S    0.107
    51   6 C    3.970 --    52 N    1.426    55 C    1.177    50 C    1.153
                            53 S    0.107
    52   7 N    3.059 --    51 C    1.426    53 S    1.377    54 N    0.145
    53  16 S    3.083 --    52 N    1.377    54 N    1.377    51 C    0.107
                            50 C    0.107
    54   7 N    3.059 --    50 C    1.426    53 S    1.377    52 N    0.145
    55   6 C    3.957 --    73 C    1.278    56 C    1.256    51 C    1.177
    56   6 C    3.921 --    71 C    1.318    55 C    1.256    57 S    1.111
    57  16 S    2.513 --    56 C    1.111    58 C    1.092
    58   6 C    3.921 --    70 C    1.346    59 C    1.264    57 S    1.092
    59   6 C    3.952 --    68 C    1.436    58 C    1.264    60 C    1.040
    60   6 C    3.987 --    67 C    1.388    61 C    1.383    59 C    1.040
                            63 C    0.102
    61   6 C    3.985 --    62 C    1.446    60 C    1.383   144 H    0.968
                            64 C    0.104
    62   6 C    3.989 --    61 C    1.446    63 C    1.438   145 H    0.969
                            67 C    0.107
    63   6 C    3.983 --    62 C    1.438    64 C    1.404   146 H    0.968
                            60 C    0.102
    64   6 C    3.986 --    67 C    1.420    63 C    1.404    65 C    1.012
                            61 C    0.104
    65   6 C    3.995 --    64 C    1.012    66 C    1.001   147 H    0.975
                           148 H    0.966
    66   6 C    3.996 --    65 C    1.001   150 H    0.988   149 H    0.988
                           151 H    0.986
    67   6 C    3.990 --    64 C    1.420    60 C    1.388   152 H    0.968
                            62 C    0.107
    68   6 C    3.914 --    59 C    1.436    83 C    1.158    69 S    1.086
    69  16 S    2.542 --    70 C    1.122    68 C    1.086
    70   6 C    3.927 --    58 C    1.346    71 C    1.244    69 S    1.122
    71   6 C    3.941 --    56 C    1.318    70 C    1.244    72 N    1.153
    72   7 N    3.543 --    73 C    1.173    71 C    1.153    81 C    0.967
    73   6 C    3.939 --    55 C    1.278    74 C    1.224    72 N    1.173
    74   6 C    3.941 --    49 C    1.278    73 C    1.224    75 N    1.174
    75   7 N    3.545 --    74 C    1.174    76 C    1.156    79 C    0.967
    76   6 C    3.941 --    48 C    1.321    77 C    1.239    75 N    1.156
    77   6 C    3.929 --    46 C    1.348    76 C    1.239    78 S    1.130
    78  16 S    2.577 --    77 C    1.130    36 C    1.099
    79   6 C    3.949 --    80 C    1.005    75 N    0.967   154 H    0.964
                           153 H    0.963
    80   6 C    3.986 --    79 C    1.005   155 H    0.987   156 H    0.983
                           157 H    0.979
    81   6 C    3.950 --    82 C    1.006    72 N    0.967   158 H    0.965
                           159 H    0.964
    82   6 C    3.985 --    81 C    1.006   162 H    0.987   160 H    0.983
                           161 H    0.980
    83   6 C    3.965 --    93 C    1.403    84 C    1.200    68 C    1.158
    84   6 C    3.971 --    85 N    1.341    90 C    1.216    83 C    1.200
    85   7 N    2.992 --    84 C    1.341    86 N    1.311    89 N    0.206
    86   7 N    3.772 --    85 N    1.311    89 N    1.293    87 C    0.972
    87   6 C    3.942 --    88 C    0.998    86 N    0.972   163 H    0.966
                           164 H    0.955
    88   6 C    3.979 --    87 C    0.998   165 H    0.985   166 H    0.981
                           167 H    0.979
    89   7 N    2.984 --    90 C    1.351    86 N    1.293    85 N    0.206
    90   6 C    3.972 --    89 N    1.351    84 C    1.216    91 C    1.197
    91   6 C    3.941 --    92 C    1.367    90 C    1.197    95 C    1.152
    92   6 C    3.849 --    91 C    1.367    93 C    1.367    94 F    0.940
    93   6 C    3.960 --    83 C    1.403    92 C    1.367   168 H    0.956
    94   9 F    1.062 --    92 C    0.940
    95   6 C    3.940 --    96 C    1.612    91 C    1.152   169 H    0.946
    96   6 C    3.964 --    95 C    1.612   105 C    1.121    97 C    1.018
    97   6 C    3.914 --    98 O    1.735    99 C    1.035    96 C    1.018
    98   8 O    2.024 --    97 C    1.735
    99   6 C    3.972 --   100 C    1.378   104 C    1.297    97 C    1.035
   100   6 C    3.980 --   101 C    1.442    99 C    1.378   170 H    0.962
   101   6 C    3.951 --   100 C    1.442   102 C    1.318   117 C    0.998
   102   6 C    3.963 --   103 C    1.450   101 C    1.318   111 C    0.999
   103   6 C    3.978 --   102 C    1.450   104 C    1.361   171 H    0.959
   104   6 C    3.979 --   103 C    1.361    99 C    1.297   105 C    1.099
   105   6 C    3.970 --   106 C    1.481    96 C    1.121   104 C    1.099
   106   6 C    3.959 --   105 C    1.481   109 C    1.101   107 C    1.099
   107   6 C    3.941 --   108 N    2.752   106 C    1.099
   108   7 N    2.957 --   107 C    2.752
   109   6 C    3.942 --   110 N    2.753   106 C    1.101
   110   7 N    2.961 --   109 C    2.753
   111   6 C    3.983 --   102 C    0.999   117 C    0.977   172 H    0.956
                           112 C    0.945
   112   6 C    3.988 --   113 C    1.010   116 C    0.985   173 H    0.971
                           111 C    0.945
   113   6 C    3.987 --   114 C    1.924   112 C    1.010   174 H    0.971
   114   6 C    3.987 --   113 C    1.924   115 C    1.010   175 H    0.971
   115   6 C    3.987 --   114 C    1.010   116 C    0.985   176 H    0.971
                           117 C    0.945
   116   6 C    3.991 --   115 C    0.985   112 C    0.985   177 H    0.977
                           178 H    0.975
   117   6 C    3.981 --   101 C    0.998   111 C    0.977   179 H    0.956
                           115 C    0.945
   118   1 H    0.993 --     1 C    0.943
   119   1 H    0.995 --     6 C    0.962
   120   1 H    0.996 --     9 C    0.958
   121   1 H    0.995 --    17 C    0.959
   122   1 H    0.998 --    18 C    0.970
   123   1 H    0.998 --    19 C    0.970
   124   1 H    0.998 --    20 C    0.970
   125   1 H    0.997 --    21 C    0.970
   126   1 H    0.998 --    22 C    0.978
   127   1 H    0.999 --    22 C    0.974
   128   1 H    0.994 --    23 C    0.958
   129   1 H    0.989 --    28 C    0.961
   130   1 H    0.987 --    28 C    0.962
   131   1 H    0.997 --    29 C    0.985
   132   1 H    0.996 --    29 C    0.985
   133   1 H    0.992 --    29 C    0.978
   134   1 H    0.993 --    34 C    0.962
   135   1 H    0.998 --    39 C    0.967
   136   1 H    0.997 --    40 C    0.969
   137   1 H    0.998 --    41 C    0.968
   138   1 H    0.998 --    43 C    0.971
   139   1 H    0.997 --    43 C    0.975
   140   1 H    0.999 --    44 C    0.987
   141   1 H    0.998 --    44 C    0.988
   142   1 H    0.997 --    44 C    0.985
   143   1 H    0.999 --    45 C    0.967
   144   1 H    0.998 --    61 C    0.968
   145   1 H    0.996 --    62 C    0.969
   146   1 H    0.997 --    63 C    0.968
   147   1 H    0.998 --    65 C    0.975
   148   1 H    0.998 --    65 C    0.966
   149   1 H    0.999 --    66 C    0.988
   150   1 H    0.998 --    66 C    0.988
   151   1 H    0.997 --    66 C    0.986
   152   1 H    1.000 --    67 C    0.968
   153   1 H    0.992 --    79 C    0.963
   154   1 H    0.991 --    79 C    0.964
   155   1 H    0.998 --    80 C    0.987
   156   1 H    0.997 --    80 C    0.983
   157   1 H    0.994 --    80 C    0.979
   158   1 H    0.992 --    81 C    0.965
   159   1 H    0.991 --    81 C    0.964
   160   1 H    0.997 --    82 C    0.983
   161   1 H    0.994 --    82 C    0.980
   162   1 H    0.998 --    82 C    0.987
   163   1 H    0.990 --    87 C    0.966
   164   1 H    0.987 --    87 C    0.955
   165   1 H    0.996 --    88 C    0.985
   166   1 H    0.997 --    88 C    0.981
   167   1 H    0.992 --    88 C    0.979
   168   1 H    0.992 --    93 C    0.956
   169   1 H    0.993 --    95 C    0.946
   170   1 H    0.995 --   100 C    0.962
   171   1 H    0.996 --   103 C    0.959
   172   1 H    0.994 --   111 C    0.956
   173   1 H    0.998 --   112 C    0.971
   174   1 H    0.999 --   113 C    0.971
   175   1 H    0.999 --   114 C    0.971
   176   1 H    0.997 --   115 C    0.971
   177   1 H    0.997 --   116 C    0.977
   178   1 H    0.995 --   116 C    0.975
   179   1 H    0.993 --   117 C    0.956
 ---------------------------------------------------------------------------

Topologies differ in bond orders
Writing corrected topology to xtbtopo.mol

molecular dipole:
                 x           y           z       tot (Debye)
 q only:       -4.232       1.663       1.367
   full:       -3.514       1.658       1.170      10.315
molecular quadrupole (traceless):
                xx          xy          yy          xz          yz          zz
 q only:     -202.841       9.944     102.369    -164.499     -48.176     100.472
  q+dip:     -198.234     -13.938      93.148    -167.381     -37.110     105.086
   full:     -206.211     -12.493      97.373    -170.480     -27.922     108.838


           -------------------------------------------------
          | TOTAL ENERGY             -307.644663108075 Eh   |
          | GRADIENT NORM               0.036910372408 Eh/α |
          | HOMO-LUMO GAP               0.783221729353 eV   |
           -------------------------------------------------

------------------------------------------------------------------------
 * finished run on 2022/02/19 at 09:24:37.437     
------------------------------------------------------------------------
 total:
 * wall-time:     0 d,  0 h,  0 min,  0.772 sec
 *  cpu-time:     0 d,  0 h,  0 min,  5.330 sec
 * ratio c/w:     6.908 speedup
 SCF:
 * wall-time:     0 d,  0 h,  0 min,  0.689 sec
 *  cpu-time:     0 d,  0 h,  0 min,  4.820 sec
 * ratio c/w:     6.996 speedup

