      -----------------------------------------------------------      
     |                   =====================                   |     
     |                           x T B                           |     
     |                   =====================                   |     
     |                         S. Grimme                         |     
     |          Mulliken Center for Theoretical Chemistry        |     
     |                    University of Bonn                     |     
      -----------------------------------------------------------      

   * xtb version 6.4.1 (unknown) compiled by 'oda6@login1.crc.pitt.edu' on 2021-06-25

   xtb is free software: you can redistribute it and/or modify it under
   the terms of the GNU Lesser General Public License as published by
   the Free Software Foundation, either version 3 of the License, or
   (at your option) any later version.
   
   xtb is distributed in the hope that it will be useful,
   but WITHOUT ANY WARRANTY; without even the implied warranty of
   MERCHANTABILITY or FITNESS FOR A PARTICULAR PURPOSE.  See the
   GNU Lesser General Public License for more details.
   
   Cite this work as:
   * C. Bannwarth, E. Caldeweyher, S. Ehlert, A. Hansen, P. Pracht,
     J. Seibert, S. Spicher, S. Grimme, WIREs Comput. Mol. Sci., 2020, 11,
     e01493. DOI: 10.1002/wcms.1493
   
   for GFN2-xTB:
   * C. Bannwarth, S. Ehlert and S. Grimme., J. Chem. Theory Comput., 2019,
     15, 1652-1671. DOI: 10.1021/acs.jctc.8b01176
   for GFN1-xTB:
   * S. Grimme, C. Bannwarth, P. Shushkov, J. Chem. Theory Comput., 2017,
     13, 1989-2009. DOI: 10.1021/acs.jctc.7b00118
   for GFN0-xTB:
   * P. Pracht, E. Caldeweyher, S. Ehlert, S. Grimme, ChemRxiv, 2019, preprint.
     DOI: 10.26434/chemrxiv.8326202.v1
   for GFN-FF:
   * S. Spicher and S. Grimme, Angew. Chem. Int. Ed., 2020, 59, 15665-15673.
     DOI: 10.1002/anie.202004239
   
   for DFT-D4:
   * E. Caldeweyher, C. Bannwarth and S. Grimme, J. Chem. Phys., 2017,
     147, 034112. DOI: 10.1063/1.4993215
   * E. Caldeweyher, S. Ehlert, A. Hansen, H. Neugebauer, S. Spicher,
     C. Bannwarth and S. Grimme, J. Chem. Phys., 2019, 150, 154122.
     DOI: 10.1063/1.5090222
   * E. Caldeweyher, J.-M. Mewes, S. Ehlert and S. Grimme, Phys. Chem. Chem. Phys.
     2020, 22, 8499-8512. DOI: 10.1039/D0CP00502A
   
   for sTDA-xTB:
   * S. Grimme and C. Bannwarth, J. Chem. Phys., 2016, 145, 054103.
     DOI: 10.1063/1.4959605
   
   in the mass-spec context:
   * V. Asgeirsson, C. Bauer and S. Grimme, Chem. Sci., 2017, 8, 4879.
     DOI: 10.1039/c7sc00601b
   * J. Koopman and S. Grimme, ACS Omega 2019, 4, 12, 15120-15133.
     DOI: 10.1021/acsomega.9b02011
   
   for metadynamics refer to:
   * S. Grimme, J. Chem. Theory Comput., 2019, 155, 2847-2862
     DOI: 10.1021/acs.jctc.9b00143
   
   for SPH calculations refer to:
   * S. Spicher and S. Grimme, J. Chem. Theory Comput., 2021, 17, 1701-1714
     DOI: 10.1021/acs.jctc.0c01306
   
   with help from (in alphabetical order)
   P. Atkinson, C. Bannwarth, F. Bohle, G. Brandenburg, E. Caldeweyher
   M. Checinski, S. Dohm, S. Ehlert, S. Ehrlich, I. Gerasimov, J. Koopman
   C. Lavigne, S. Lehtola, F. März, M. Müller, F. Musil, H. Neugebauer
   J. Pisarek, C. Plett, P. Pracht, J. Seibert, P. Shushkov, S. Spicher
   M. Stahn, M. Steiner, T. Strunk, J. Stückrath, T. Rose, and J. Unsleber
   
 * started run on 2022/02/12 at 11:07:59.217     

           -------------------------------------------------
          |                Calculation Setup                |
           -------------------------------------------------

          program call               : /ihome/ghutchison/oda6/xtb/xtb-641/bin/xtb ../../GFN2_output/39_48_86_50_39.mol --sp --alpb water
          hostname                   : smp-n25
          coordinate file            : ../../GFN2_output/39_48_86_50_39.mol
          omp threads                :                     8
          number of atoms            :                   201
          number of electrons        :                   638
          charge                     :                     0
          spin                       :                   0.0
          first test random number   :      0.14723799727635

   ID    Z sym.   atoms
    1    6 C      1-3, 5-13, 15, 17-30, 32, 34, 35, 37-40, 42, 44-47, 49, 51,
                  52, 54-64, 66-69, 73, 74, 76-86, 88, 89, 91, 92, 94, 95,
                  97-103, 105-107, 109-111, 113-121, 123, 125-131
    2    8 O      4, 112
    3    7 N      14, 16, 70, 72, 90, 93, 122, 124
    4   17 Cl     31, 48
    5   16 S      33, 36, 41, 43, 50, 53, 65, 71, 75, 87, 96, 104, 108
    6    1 H      132-201

           -------------------------------------------------
          |                 G F N 2 - x T B                 |
           -------------------------------------------------

        Reference                      10.1021/acs.jctc.8b01176
      * Hamiltonian:
        H0-scaling (s, p, d)           1.850000    2.230000    2.230000
        zeta-weighting                 0.500000
      * Dispersion:
        s8                             2.700000
        a1                             0.520000
        a2                             5.000000
        s9                             5.000000
      * Repulsion:
        kExp                           1.500000    1.000000
        rExp                           1.000000
      * Coulomb:
        alpha                          2.000000
        third order                    shell-resolved
        anisotropic                    true
        a3                             3.000000
        a5                             4.000000
        cn-shift                       1.200000
        cn-exp                         4.000000
        max-rad                        5.000000

      * Solvation model:               ALPB
        Solvent                        water
        Parameter file                 internal GFN2-xTB/ALPB
        Dielectric constant                8.0200E+01
        Reference state                gsolv [1 M gas/solution]
        Free energy shift                  1.0808E-03 Eh       6.7819E-01 kcal/mol
        Temperature                        2.9815E+02 K
        Density                            1.0000E+00 kg/L
        Solvent mass                       1.8000E+01 g/mol
        Interaction kernel             P16
        Born radius scaling (c1)           1.4744E+00
        Born radii integrator          GBOBC
        Born offset                        0.0000E+00 a0       0.0000E+00 AA
        H-bond correction              true
        Ion screening                  false
        Surface tension                    1.0000E-05 Eh       1.5569E+01 dyn/cm
        Grid points                               230 per atom

          ...................................................
          :                      SETUP                      :
          :.................................................:
          :  # basis functions                 684          :
          :  # atomic orbitals                 669          :
          :  # shells                          347          :
          :  # electrons                       638          :
          :  max. iterations                   250          :
          :  Hamiltonian                  GFN2-xTB          :
          :  restarted?                      false          :
          :  GBSA solvation                   true          :
          :  PC potential                    false          :
          :  electronic temp.          300.0000000     K    :
          :  accuracy                    1.0000000          :
          :  -> integral cutoff          0.2500000E+02      :
          :  -> integral neglect         0.1000000E-07      :
          :  -> SCF convergence          0.1000000E-05 Eh   :
          :  -> wf. convergence          0.1000000E-03 e    :
          :  Broyden damping             0.4000000          :
          ...................................................

 iter      E             dE          RMSdq      gap      omega  full diag
   1   -350.4064674 -0.350406E+03  0.449E+00    0.86       0.0  T
   2   -350.6675511 -0.261084E+00  0.262E+00    0.75       1.0  T
   3   -350.5548148  0.112736E+00  0.126E+00    0.68       1.0  T
   4   -350.7349325 -0.180118E+00  0.452E-01    0.69       1.0  T
   5   -350.7536133 -0.186808E-01  0.172E-01    0.66       1.0  T
   6   -350.7550540 -0.144068E-02  0.839E-02    0.69       1.0  T
   7   -350.7555785 -0.524572E-03  0.374E-02    0.69       1.0  T
   8   -350.7556346 -0.560846E-04  0.236E-02    0.69       1.0  T
   9   -350.7556560 -0.213655E-04  0.155E-02    0.69       1.0  T
  10   -350.7556698 -0.138404E-04  0.999E-03    0.69       1.0  T
  11   -350.7556761 -0.626999E-05  0.688E-03    0.68       1.0  T
  12   -350.7556796 -0.355893E-05  0.392E-03    0.68       1.8  T
  13   -350.7556809 -0.129103E-05  0.245E-03    0.68       2.9  T
  14   -350.7556813 -0.312088E-06  0.162E-03    0.68       4.4  T
  15   -350.7556814 -0.198725E-06  0.856E-04    0.68       8.2  T
  16   -350.7556815 -0.512049E-07  0.501E-04    0.68      14.1  T

   *** convergence criteria satisfied after 16 iterations ***

         #    Occupation            Energy/Eh            Energy/eV
      -------------------------------------------------------------
         1        2.0000           -1.0763992             -29.2903
       ...           ...                  ...                  ...
       313        2.0000           -0.3812789             -10.3751
       314        2.0000           -0.3794196             -10.3245
       315        2.0000           -0.3748827             -10.2011
       316        2.0000           -0.3740283             -10.1778
       317        2.0000           -0.3730166             -10.1503
       318        2.0000           -0.3652909              -9.9401
       319        2.0000           -0.3604401              -9.8081 (HOMO)
       320        0.0000           -0.3352779              -9.1234 (LUMO)
       321                         -0.3274102              -8.9093
       322                         -0.3235610              -8.8045
       323                         -0.3142980              -8.5525
       324                         -0.3025229              -8.2321
       ...                                ...                  ...
       669                          1.1540110              31.4022
      -------------------------------------------------------------
                  HL-Gap            0.0251621 Eh            0.6847 eV
             Fermi-level           -0.3478563 Eh           -9.4657 eV

 SCC (total)                   0 d,  0 h,  0 min,  0.853 sec
 SCC setup                      ...        0 min,  0.008 sec (  0.888%)
 Dispersion                     ...        0 min,  0.010 sec (  1.197%)
 classical contributions        ...        0 min,  0.000 sec (  0.038%)
 integral evaluation            ...        0 min,  0.041 sec (  4.779%)
 iterations                     ...        0 min,  0.686 sec ( 80.496%)
 molecular gradient             ...        0 min,  0.104 sec ( 12.174%)
 printout                       ...        0 min,  0.004 sec (  0.416%)

         :::::::::::::::::::::::::::::::::::::::::::::::::::::
         ::                     SUMMARY                     ::
         :::::::::::::::::::::::::::::::::::::::::::::::::::::
         :: total energy            -345.485698013537 Eh    ::
         :: total w/o Gsasa/hb      -345.465438798894 Eh    ::
         :: gradient norm              0.037587312359 Eh/a0 ::
         :: HOMO-LUMO gap              0.684696384590 eV    ::
         ::.................................................::
         :: SCC energy              -350.755681500241 Eh    ::
         :: -> isotropic ES            0.180408677964 Eh    ::
         :: -> anisotropic ES          0.005119159207 Eh    ::
         :: -> anisotropic XC          0.198764649930 Eh    ::
         :: -> dispersion             -0.340147392803 Eh    ::
         :: -> Gsolv                  -0.066197737419 Eh    ::
         ::    -> Gelec               -0.045938522777 Eh    ::
         ::    -> Gsasa               -0.013988907065 Eh    ::
         ::    -> Ghb                 -0.007351067276 Eh    ::
         ::    -> Gshift               0.001080759698 Eh    ::
         :: repulsion energy           5.270852177434 Eh    ::
         :: add. restraining           0.000000000000 Eh    ::
         :: total charge               0.000000000000 e     ::
         :::::::::::::::::::::::::::::::::::::::::::::::::::::

           -------------------------------------------------
          |                Property Printout                |
           -------------------------------------------------

    * Orbital Energies and Occupations

         #    Occupation            Energy/Eh            Energy/eV
      -------------------------------------------------------------
         1        2.0000           -1.0763992             -29.2903
       ...           ...                  ...                  ...
       307        2.0000           -0.3996051             -10.8738
       308        2.0000           -0.3967619             -10.7964
       309        2.0000           -0.3937202             -10.7137
       310        2.0000           -0.3906347             -10.6297
       311        2.0000           -0.3878886             -10.5550
       312        2.0000           -0.3841944             -10.4545
       313        2.0000           -0.3812789             -10.3751
       314        2.0000           -0.3794196             -10.3245
       315        2.0000           -0.3748827             -10.2011
       316        2.0000           -0.3740283             -10.1778
       317        2.0000           -0.3730166             -10.1503
       318        2.0000           -0.3652909              -9.9401
       319        2.0000           -0.3604401              -9.8081 (HOMO)
       320        0.0000           -0.3352779              -9.1234 (LUMO)
       321                         -0.3274102              -8.9093
       322                         -0.3235610              -8.8045
       323                         -0.3142980              -8.5525
       324                         -0.3025229              -8.2321
       325                         -0.2962251              -8.0607
       326                         -0.2854575              -7.7677
       327                         -0.2822500              -7.6804
       328                         -0.2677310              -7.2853
       329                         -0.2611562              -7.1064
       330                         -0.2543773              -6.9220
       ...                                ...                  ...
       669                          1.1540110              31.4022
      -------------------------------------------------------------
                  HL-Gap            0.0251621 Eh            0.6847 eV
             Fermi-level           -0.3478563 Eh           -9.4657 eV

     #   Z          covCN         q      C6AA      α(0)
     1   6 C        2.954    -0.011    28.289     8.724
     2   6 C        2.996    -0.035    28.857     8.812
     3   6 C        2.867     0.231    23.164     7.889
     4   8 O        0.856    -0.429    22.279     6.328
     5   6 C        3.059    -0.022    28.485     8.752
     6   6 C        2.904    -0.024    28.599     8.769
     7   6 C        3.260     0.016    26.506     8.319
     8   6 C        3.254     0.016    26.564     8.337
     9   6 C        2.905    -0.033    28.829     8.804
    10   6 C        3.042     0.005    27.860     8.657
    11   6 C        3.019     0.038    27.132     8.544
    12   6 C        2.947     0.003    27.952     8.671
    13   6 C        1.955     0.131    27.861     8.524
    14   7 N        0.911    -0.280    27.225     7.546
    15   6 C        1.957     0.136    27.753     8.508
    16   7 N        0.911    -0.281    27.251     7.550
    17   6 C        4.162    -0.025    20.929     6.498
    18   6 C        4.013    -0.016    20.783     6.476
    19   6 C        2.995    -0.043    29.069     8.844
    20   6 C        2.995    -0.044    29.086     8.847
    21   6 C        4.013    -0.016    20.778     6.476
    22   6 C        3.915    -0.062    21.628     6.610
    23   6 C        4.160    -0.025    20.925     6.497
    24   6 C        2.978     0.037    27.155     8.548
    25   6 C        3.062    -0.043    28.998     8.831
    26   6 C        3.144     0.000    27.769     8.622
    27   6 C        3.014     0.002    27.954     8.673
    28   6 C        2.993     0.023    27.475     8.598
    29   6 C        3.126    -0.060    29.283     8.861
    30   6 C        3.091     0.078    26.149     8.382
    31  17 Cl       0.943    -0.184   104.919    15.671
    32   6 C        2.999     0.042    27.057     8.533
    33  16 S        2.117    -0.166   148.071    20.480
    34   6 C        3.793    -0.008    20.727     6.483
    35   6 C        3.779    -0.112    22.663     6.782
    36  16 S        2.522     0.021   140.209    19.929
    37   6 C        3.005     0.026    27.399     8.586
    38   6 C        3.135     0.004    27.703     8.615
    39   6 C        3.014    -0.003    28.089     8.694
    40   6 C        2.994     0.019    27.581     8.615
    41  16 S        2.548    -0.012   141.547    20.024
    42   6 C        3.006     0.041    27.076     8.536
    43  16 S        2.093    -0.137   146.822    20.394
    44   6 C        3.793    -0.010    20.771     6.490
    45   6 C        3.778    -0.117    22.767     6.798
    46   6 C        3.112     0.068    26.330     8.406
    47   6 C        3.116    -0.061    29.333     8.872
    48  17 Cl       0.953    -0.186   105.005    15.677
    49   6 C        3.001     0.030    27.318     8.574
    50  16 S        2.438    -0.051   143.152    20.137
    51   6 C        3.064    -0.059    29.392     8.890
    52   6 C        3.028     0.038    27.123     8.543
    53  16 S        2.413    -0.041   142.756    20.109
    54   6 C        3.040     0.010    27.757     8.641
    55   6 C        3.107    -0.007    28.053     8.678
    56   6 C        2.974     0.010    27.790     8.647
    57   6 C        2.925    -0.038    28.952     8.824
    58   6 C        2.918    -0.033    28.819     8.803
    59   6 C        2.925    -0.035    28.875     8.812
    60   6 C        2.970     0.016    27.639     8.623
    61   6 C        3.807    -0.060    21.641     6.622
    62   6 C        3.754    -0.106    22.575     6.775
    63   6 C        2.930    -0.044    29.094     8.846
    64   6 C        3.198     0.013    27.195     8.500
    65  16 S        2.180    -0.065   143.735    20.178
    66   6 C        3.101     0.002    27.854     8.648
    67   6 C        3.081    -0.042    28.940     8.819
    68   6 C        3.338     0.068    24.100     7.771
    69   6 C        3.338     0.068    24.091     7.767
    70   7 N        1.853    -0.303    28.713     7.942
    71  16 S        2.682     0.288   129.861    19.180
    72   7 N        1.853    -0.303    28.704     7.941
    73   6 C        3.076    -0.042    28.955     8.822
    74   6 C        3.106     0.003    27.826     8.643
    75  16 S        2.181    -0.060   143.531    20.164
    76   6 C        3.195     0.012    27.236     8.509
    77   6 C        3.106    -0.004    27.977     8.666
    78   6 C        2.975     0.009    27.802     8.649
    79   6 C        2.925    -0.038    28.936     8.822
    80   6 C        2.918    -0.034    28.845     8.807
    81   6 C        2.926    -0.039    28.979     8.828
    82   6 C        2.970     0.018    27.608     8.619
    83   6 C        3.807    -0.063    21.709     6.633
    84   6 C        3.754    -0.107    22.597     6.779
    85   6 C        2.932    -0.042    29.037     8.837
    86   6 C        3.026     0.007    27.842     8.655
    87  16 S        2.270    -0.021   141.921    20.050
    88   6 C        3.122     0.008    27.651     8.612
    89   6 C        3.247     0.032    26.308     8.306
    90   7 N        2.794    -0.025    21.735     6.924
    91   6 C        3.091     0.033    27.154     8.541
    92   6 C        3.088     0.032    27.179     8.546
    93   7 N        2.792    -0.024    21.702     6.919
    94   6 C        3.257     0.029    26.248     8.283
    95   6 C        3.120     0.006    27.723     8.623
    96  16 S        2.329    -0.027   142.168    20.068
    97   6 C        3.743    -0.013    20.887     6.520
    98   6 C        3.752    -0.125    22.959     6.833
    99   6 C        3.741    -0.011    20.850     6.515
   100   6 C        3.752    -0.127    22.996     6.839
   101   6 C        3.025     0.039    27.110     8.541
   102   6 C        3.125    -0.060    29.283     8.861
   103   6 C        3.113     0.055    26.610     8.451
   104  16 S        2.090    -0.112   145.722    20.317
   105   6 C        3.792    -0.022    20.968     6.521
   106   6 C        3.775    -0.118    22.792     6.802
   107   6 C        3.017     0.018    27.588     8.616
   108  16 S        2.342    -0.041   142.751    20.109
   109   6 C        2.954    -0.015    28.385     8.738
   110   6 C        3.009    -0.044    29.064     8.843
   111   6 C        2.875     0.224    23.305     7.914
   112   8 O        0.913    -0.432    22.296     6.332
   113   6 C        3.062    -0.023    28.507     8.756
   114   6 C        2.904    -0.026    28.642     8.775
   115   6 C        3.259     0.014    26.557     8.328
   116   6 C        3.256     0.012    26.635     8.346
   117   6 C        2.904    -0.034    28.838     8.805
   118   6 C        3.048     0.002    27.945     8.670
   119   6 C        3.023     0.036    27.160     8.549
   120   6 C        2.947    -0.003    28.098     8.694
   121   6 C        1.940     0.130    27.902     8.530
   122   7 N        0.911    -0.291    27.505     7.585
   123   6 C        1.940     0.134    27.819     8.518
   124   7 N        0.911    -0.291    27.492     7.583
   125   6 C        4.162    -0.025    20.925     6.497
   126   6 C        4.013    -0.016    20.785     6.477
   127   6 C        2.995    -0.044    29.077     8.846
   128   6 C        2.995    -0.044    29.090     8.847
   129   6 C        4.013    -0.016    20.785     6.477
   130   6 C        3.915    -0.062    21.624     6.609
   131   6 C        4.161    -0.024    20.924     6.497
   132   1 H        0.925     0.073     2.058     2.243
   133   1 H        0.926     0.066     2.130     2.282
   134   1 H        0.926     0.057     2.235     2.338
   135   1 H        0.925     0.056     2.249     2.345
   136   1 H        0.925     0.043     2.410     2.428
   137   1 H        0.926     0.045     2.387     2.416
   138   1 H        0.926     0.045     2.383     2.414
   139   1 H        0.925     0.043     2.405     2.425
   140   1 H        0.925     0.034     2.535     2.490
   141   1 H        0.925     0.045     2.384     2.415
   142   1 H        0.925     0.057     2.237     2.339
   143   1 H        0.926     0.095     1.831     2.116
   144   1 H        0.926     0.074     2.045     2.236
   145   1 H        0.925     0.059     2.215     2.327
   146   1 H        0.925     0.076     2.020     2.223
   147   1 H        0.925     0.062     2.181     2.310
   148   1 H        0.925     0.062     2.173     2.305
   149   1 H        0.925     0.041     2.433     2.439
   150   1 H        0.925     0.075     2.031     2.229
   151   1 H        0.925     0.080     1.978     2.199
   152   1 H        0.925     0.068     2.112     2.273
   153   1 H        0.925     0.059     2.209     2.324
   154   1 H        0.925     0.051     2.303     2.373
   155   1 H        0.926     0.071     2.071     2.250
   156   1 H        0.926     0.057     2.229     2.335
   157   1 H        0.926     0.038     2.474     2.459
   158   1 H        0.926     0.039     2.463     2.454
   159   1 H        0.926     0.036     2.507     2.476
   160   1 H        0.924     0.044     2.399     2.422
   161   1 H        0.924     0.038     2.473     2.459
   162   1 H        0.925     0.044     2.394     2.420
   163   1 H        0.925     0.038     2.471     2.458
   164   1 H        0.925     0.038     2.471     2.458
   165   1 H        0.925     0.034     2.528     2.486
   166   1 H        0.926     0.037     2.487     2.466
   167   1 H        0.926     0.042     2.417     2.431
   168   1 H        0.926     0.042     2.416     2.431
   169   1 H        0.924     0.043     2.415     2.430
   170   1 H        0.924     0.045     2.389     2.417
   171   1 H        0.925     0.046     2.376     2.411
   172   1 H        0.925     0.040     2.451     2.448
   173   1 H        0.925     0.040     2.447     2.446
   174   1 H        0.926     0.038     2.471     2.458
   175   1 H        0.924     0.084     1.937     2.177
   176   1 H        0.924     0.084     1.941     2.179
   177   1 H        0.925     0.048     2.346     2.395
   178   1 H        0.925     0.074     2.038     2.232
   179   1 H        0.925     0.053     2.283     2.363
   180   1 H        0.925     0.083     1.946     2.181
   181   1 H        0.924     0.082     1.961     2.190
   182   1 H        0.925     0.056     2.248     2.345
   183   1 H        0.925     0.073     2.050     2.239
   184   1 H        0.925     0.048     2.343     2.394
   185   1 H        0.926     0.079     1.992     2.207
   186   1 H        0.925     0.076     2.025     2.225
   187   1 H        0.925     0.079     1.990     2.206
   188   1 H        0.925     0.053     2.281     2.362
   189   1 H        0.925     0.071     2.074     2.252
   190   1 H        0.925     0.050     2.323     2.384
   191   1 H        0.925     0.057     2.235     2.338
   192   1 H        0.926     0.064     2.155     2.296
   193   1 H        0.926     0.052     2.299     2.371
   194   1 H        0.925     0.052     2.291     2.367
   195   1 H        0.925     0.041     2.439     2.442
   196   1 H        0.926     0.044     2.402     2.424
   197   1 H        0.926     0.045     2.386     2.416
   198   1 H        0.925     0.043     2.406     2.426
   199   1 H        0.925     0.033     2.545     2.495
   200   1 H        0.925     0.044     2.393     2.419
   201   1 H        0.925     0.055     2.262     2.352

 Mol. C6AA /au·bohr⁶  :     762658.255761
 Mol. C8AA /au·bohr⁸  :   22405903.088036
 Mol. α(0) /au        :       1394.577820


Wiberg/Mayer (AO) data.
largest (>0.10) Wiberg bond orders for each atom

 ---------------------------------------------------------------------------
     #   Z sym  total        # sym  WBO       # sym  WBO       # sym  WBO
 ---------------------------------------------------------------------------
     1   6 C    3.937 --     2 C    1.540    24 C    1.251   132 H    0.939
     2   6 C    3.946 --     1 C    1.540    11 C    1.128     3 C    1.039
     3   6 C    3.912 --     4 O    1.713     2 C    1.039     5 C    1.038
     4   8 O    2.013 --     3 C    1.713
     5   6 C    3.973 --     6 C    1.375    10 C    1.303     3 C    1.038
     6   6 C    3.979 --     7 C    1.444     5 C    1.375   133 H    0.963
     7   6 C    3.951 --     6 C    1.444     8 C    1.316    23 C    0.995
     8   6 C    3.963 --     9 C    1.452     7 C    1.316    17 C    0.995
     9   6 C    3.977 --     8 C    1.452    10 C    1.359   134 H    0.958
    10   6 C    3.975 --     9 C    1.359     5 C    1.303    11 C    1.096
    11   6 C    3.967 --    12 C    1.477     2 C    1.128    10 C    1.096
    12   6 C    3.946 --    11 C    1.477    13 C    1.099    15 C    1.098
    13   6 C    3.940 --    14 N    2.736    12 C    1.099
    14   7 N    2.951 --    13 C    2.736
    15   6 C    3.940 --    16 N    2.748    12 C    1.098
    16   7 N    2.958 --    15 C    2.748
    17   6 C    3.983 --     8 C    0.995    23 C    0.975   135 H    0.959
                            18 C    0.949
    18   6 C    3.988 --    19 C    1.004    22 C    0.989   136 H    0.970
                            17 C    0.949
    19   6 C    3.980 --    20 C    1.923    18 C    1.004   137 H    0.970
    20   6 C    3.980 --    19 C    1.923    21 C    1.004   138 H    0.970
    21   6 C    3.987 --    20 C    1.004    22 C    0.989   139 H    0.970
                            23 C    0.949
    22   6 C    3.993 --    21 C    0.989    18 C    0.989   141 H    0.978
                           140 H    0.974
    23   6 C    3.981 --     7 C    0.995    17 C    0.975   142 H    0.959
                            21 C    0.949
    24   6 C    3.931 --    25 C    1.465     1 C    1.251    50 S    1.062
    25   6 C    3.937 --    24 C    1.465    26 C    1.284   143 H    0.934
    26   6 C    3.966 --    25 C    1.284    49 C    1.233    27 C    1.233
    27   6 C    3.944 --    37 C    1.382    26 C    1.233    28 C    1.103
    28   6 C    3.949 --    29 C    1.522    36 S    1.132    27 C    1.103
    29   6 C    3.968 --    28 C    1.522    30 C    1.277   144 H    0.957
    30   6 C    3.896 --    32 C    1.492    29 C    1.277    31 Cl   0.963
    31  17 Cl   1.110 --    30 C    0.963
    32   6 C    3.919 --    30 C    1.492    36 S    1.152    33 S    1.070
    33  16 S    2.220 --    32 C    1.070    34 C    0.957
    34   6 C    3.963 --    35 C    1.028   145 H    0.971   146 H    0.966
                            33 S    0.957
    35   6 C    3.991 --    34 C    1.028   149 H    0.985   148 H    0.984
                           147 H    0.975
    36  16 S    2.624 --    32 C    1.152    28 C    1.132
    37   6 C    3.942 --    27 C    1.382    38 C    1.236    53 S    1.105
    38   6 C    3.961 --    51 C    1.253    39 C    1.253    37 C    1.236
    39   6 C    3.948 --    49 C    1.359    38 C    1.253    40 C    1.107
    40   6 C    3.945 --    47 C    1.524    39 C    1.107    41 S    1.105
    41  16 S    2.612 --    42 C    1.146    40 C    1.105
    42   6 C    3.918 --    46 C    1.476    41 S    1.146    43 S    1.096
    43  16 S    2.316 --    42 C    1.096    44 C    0.969
    44   6 C    3.959 --    45 C    1.027    43 S    0.969   151 H    0.966
                           150 H    0.963
    45   6 C    3.989 --    44 C    1.027   153 H    0.985   154 H    0.982
                           152 H    0.974
    46   6 C    3.889 --    42 C    1.476    47 C    1.277    48 Cl   0.959
    47   6 C    3.970 --    40 C    1.524    46 C    1.277   155 H    0.954
    48  17 Cl   1.105 --    46 C    0.959
    49   6 C    3.942 --    39 C    1.359    26 C    1.233    50 S    1.127
    50  16 S    2.528 --    49 C    1.127    24 C    1.062
    51   6 C    3.948 --    52 C    1.510    38 C    1.253   156 H    0.953
    52   6 C    3.921 --    51 C    1.510    54 C    1.175    53 S    1.093
    53  16 S    2.528 --    37 C    1.105    52 C    1.093
    54   6 C    3.918 --    55 C    1.432    52 C    1.175    96 S    1.091
    55   6 C    3.956 --    54 C    1.432    64 C    1.265    56 C    1.034
    56   6 C    3.987 --    57 C    1.393    63 C    1.384    55 C    1.034
                            59 C    0.104
    57   6 C    3.986 --    58 C    1.439    56 C    1.393   157 H    0.969
                            60 C    0.104
    58   6 C    3.990 --    59 C    1.448    57 C    1.439   158 H    0.970
                            63 C    0.106
    59   6 C    3.985 --    58 C    1.448    60 C    1.397   159 H    0.969
                            56 C    0.104
    60   6 C    3.987 --    63 C    1.426    59 C    1.397    61 C    1.012
                            57 C    0.104
    61   6 C    3.996 --    60 C    1.012    62 C    1.000   161 H    0.975
                           160 H    0.970
    62   6 C    3.995 --    61 C    1.000   163 H    0.988   164 H    0.988
                           162 H    0.986
    63   6 C    3.988 --    60 C    1.426    56 C    1.384   165 H    0.968
                            58 C    0.106
    64   6 C    3.924 --    95 C    1.347    55 C    1.265    65 S    1.091
    65  16 S    2.506 --    66 C    1.107    64 C    1.091
    66   6 C    3.921 --    94 C    1.316    67 C    1.262    65 S    1.107
    67   6 C    3.956 --    92 C    1.276    66 C    1.262    68 C    1.176
    68   6 C    3.969 --    72 N    1.424    67 C    1.176    69 C    1.156
                            71 S    0.107
    69   6 C    3.969 --    70 N    1.423    73 C    1.177    68 C    1.156
                            71 S    0.107
    70   7 N    3.057 --    69 C    1.423    71 S    1.377    72 N    0.146
    71  16 S    3.087 --    72 N    1.377    70 N    1.377    68 C    0.107
                            69 C    0.107
    72   7 N    3.058 --    68 C    1.424    71 S    1.377    70 N    0.146
    73   6 C    3.957 --    91 C    1.277    74 C    1.259    69 C    1.177
    74   6 C    3.920 --    89 C    1.316    73 C    1.259    75 S    1.110
    75  16 S    2.509 --    74 C    1.110    76 C    1.092
    76   6 C    3.923 --    88 C    1.342    77 C    1.271    75 S    1.092
    77   6 C    3.959 --    86 C    1.427    76 C    1.271    78 C    1.035
    78   6 C    3.987 --    79 C    1.388    85 C    1.382    77 C    1.035
                            81 C    0.102
    79   6 C    3.984 --    80 C    1.441    78 C    1.388   166 H    0.969
                            82 C    0.104
    80   6 C    3.989 --    81 C    1.444    79 C    1.441   167 H    0.969
                            85 C    0.105
    81   6 C    3.983 --    80 C    1.444    82 C    1.401   168 H    0.969
                            78 C    0.102
    82   6 C    3.986 --    85 C    1.421    81 C    1.401    83 C    1.013
                            79 C    0.104
    83   6 C    3.995 --    82 C    1.013    84 C    1.000   169 H    0.974
                           170 H    0.972
    84   6 C    3.995 --    83 C    1.000   172 H    0.988   173 H    0.988
                           171 H    0.985
    85   6 C    3.988 --    82 C    1.421    78 C    1.382   174 H    0.967
                            80 C    0.105
    86   6 C    3.921 --    77 C    1.427   101 C    1.191    87 S    1.078
    87  16 S    2.542 --    88 C    1.121    86 C    1.078
    88   6 C    3.929 --    76 C    1.342    89 C    1.244    87 S    1.121
    89   6 C    3.943 --    74 C    1.316    88 C    1.244    90 N    1.155
    90   7 N    3.548 --    91 C    1.175    89 C    1.155    99 C    0.968
    91   6 C    3.938 --    73 C    1.277    92 C    1.221    90 N    1.175
    92   6 C    3.939 --    67 C    1.276    91 C    1.221    93 N    1.175
    93   7 N    3.555 --    92 C    1.175    94 C    1.163    97 C    0.968
    94   6 C    3.941 --    66 C    1.316    95 C    1.237    93 N    1.163
    95   6 C    3.929 --    64 C    1.347    94 C    1.237    96 S    1.123
    96  16 S    2.560 --    95 C    1.123    54 C    1.091
    97   6 C    3.948 --    98 C    1.009    93 N    0.968   176 H    0.961
                           175 H    0.952
    98   6 C    3.985 --    97 C    1.009   177 H    0.987   179 H    0.983
                           178 H    0.979
    99   6 C    3.949 --   100 C    1.006    90 N    0.968   181 H    0.963
                           180 H    0.959
   100   6 C    3.985 --    99 C    1.006   184 H    0.987   182 H    0.981
                           183 H    0.979
   101   6 C    3.932 --   102 C    1.443    86 C    1.191   108 S    1.135
   102   6 C    3.953 --   101 C    1.443   103 C    1.325   185 H    0.951
   103   6 C    3.944 --   107 C    1.328   102 C    1.325   104 S    1.106
   104  16 S    2.466 --   103 C    1.106   105 C    0.963
   105   6 C    3.961 --   106 C    1.026   186 H    0.966   187 H    0.965
                           104 S    0.963
   106   6 C    3.988 --   105 C    1.026   188 H    0.986   190 H    0.982
                           189 H    0.974
   107   6 C    3.928 --   103 C    1.328   109 C    1.312   108 S    1.080
   108  16 S    2.573 --   101 C    1.135   107 C    1.080
   109   6 C    3.956 --   110 C    1.470   107 C    1.312   191 H    0.946
   110   6 C    3.957 --   109 C    1.470   119 C    1.151   111 C    1.066
   111   6 C    3.916 --   112 O    1.668   110 C    1.066   113 C    1.027
   112   8 O    2.023 --   111 C    1.668
   113   6 C    3.973 --   114 C    1.384   118 C    1.307   111 C    1.027
   114   6 C    3.978 --   115 C    1.436   113 C    1.384   192 H    0.963
   115   6 C    3.954 --   114 C    1.436   116 C    1.326   131 C    0.993
   116   6 C    3.962 --   117 C    1.446   115 C    1.326   125 C    0.994
   117   6 C    3.977 --   116 C    1.446   118 C    1.366   193 H    0.959
   118   6 C    3.978 --   117 C    1.366   113 C    1.307   119 C    1.089
   119   6 C    3.967 --   120 C    1.457   110 C    1.151   118 C    1.089
   120   6 C    3.946 --   119 C    1.457   123 C    1.106   121 C    1.104
   121   6 C    3.940 --   122 N    2.741   120 C    1.104
   122   7 N    2.947 --   121 C    2.741
   123   6 C    3.939 --   124 N    2.743   120 C    1.106
   124   7 N    2.952 --   123 C    2.743
   125   6 C    3.983 --   116 C    0.994   131 C    0.975   194 H    0.960
                           126 C    0.951
   126   6 C    3.989 --   127 C    1.004   130 C    0.989   195 H    0.971
                           125 C    0.951
   127   6 C    3.981 --   128 C    1.923   126 C    1.004   196 H    0.970
   128   6 C    3.981 --   127 C    1.923   129 C    1.004   197 H    0.970
   129   6 C    3.987 --   128 C    1.004   130 C    0.989   198 H    0.970
                           131 C    0.950
   130   6 C    3.994 --   129 C    0.989   126 C    0.989   200 H    0.978
                           199 H    0.974
   131   6 C    3.982 --   115 C    0.993   125 C    0.975   201 H    0.960
                           129 C    0.950
   132   1 H    0.994 --     1 C    0.939
   133   1 H    0.995 --     6 C    0.963
   134   1 H    0.996 --     9 C    0.958
   135   1 H    0.995 --    17 C    0.959
   136   1 H    0.998 --    18 C    0.970
   137   1 H    0.998 --    19 C    0.970
   138   1 H    0.998 --    20 C    0.970
   139   1 H    0.998 --    21 C    0.970
   140   1 H    0.999 --    22 C    0.974
   141   1 H    0.998 --    22 C    0.978
   142   1 H    0.994 --    23 C    0.959
   143   1 H    0.990 --    25 C    0.934
   144   1 H    0.994 --    29 C    0.957
   145   1 H    0.996 --    34 C    0.971
   146   1 H    0.994 --    34 C    0.966
   147   1 H    0.996 --    35 C    0.975
   148   1 H    0.996 --    35 C    0.984
   149   1 H    0.998 --    35 C    0.985
   150   1 H    0.994 --    44 C    0.963
   151   1 H    0.993 --    44 C    0.966
   152   1 H    0.995 --    45 C    0.974
   153   1 H    0.996 --    45 C    0.985
   154   1 H    0.997 --    45 C    0.982
   155   1 H    0.994 --    47 C    0.954
   156   1 H    0.996 --    51 C    0.953
   157   1 H    0.998 --    57 C    0.969
   158   1 H    0.997 --    58 C    0.970
   159   1 H    0.998 --    59 C    0.969
   160   1 H    0.998 --    61 C    0.970
   161   1 H    0.998 --    61 C    0.975
   162   1 H    0.997 --    62 C    0.986
   163   1 H    0.998 --    62 C    0.988
   164   1 H    0.999 --    62 C    0.988
   165   1 H    0.999 --    63 C    0.968
   166   1 H    0.998 --    79 C    0.969
   167   1 H    0.997 --    80 C    0.969
   168   1 H    0.998 --    81 C    0.969
   169   1 H    0.998 --    83 C    0.974
   170   1 H    0.997 --    83 C    0.972
   171   1 H    0.997 --    84 C    0.985
   172   1 H    0.998 --    84 C    0.988
   173   1 H    0.998 --    84 C    0.988
   174   1 H    0.999 --    85 C    0.967
   175   1 H    0.990 --    97 C    0.952
   176   1 H    0.992 --    97 C    0.961
   177   1 H    0.998 --    98 C    0.987
   178   1 H    0.993 --    98 C    0.979
   179   1 H    0.997 --    98 C    0.983
   180   1 H    0.992 --    99 C    0.959
   181   1 H    0.990 --    99 C    0.963
   182   1 H    0.997 --   100 C    0.981
   183   1 H    0.994 --   100 C    0.979
   184   1 H    0.998 --   100 C    0.987
   185   1 H    0.993 --   102 C    0.951
   186   1 H    0.993 --   105 C    0.966
   187   1 H    0.993 --   105 C    0.965
   188   1 H    0.997 --   106 C    0.986
   189   1 H    0.994 --   106 C    0.974
   190   1 H    0.997 --   106 C    0.982
   191   1 H    0.994 --   109 C    0.946
   192   1 H    0.995 --   114 C    0.963
   193   1 H    0.997 --   117 C    0.959
   194   1 H    0.996 --   125 C    0.960
   195   1 H    0.998 --   126 C    0.971
   196   1 H    0.998 --   127 C    0.970
   197   1 H    0.998 --   128 C    0.970
   198   1 H    0.998 --   129 C    0.970
   199   1 H    0.999 --   130 C    0.974
   200   1 H    0.998 --   130 C    0.978
   201   1 H    0.995 --   131 C    0.960
 ---------------------------------------------------------------------------

Topologies differ in bond orders
Writing corrected topology to xtbtopo.mol

molecular dipole:
                 x           y           z       tot (Debye)
 q only:        2.742      -4.586      -1.973
   full:        3.324      -4.060      -2.485      14.756
molecular quadrupole (traceless):
                xx          xy          yy          xz          yz          zz
 q only:      122.739      11.401     120.722     -57.374       1.140    -243.462
  q+dip:      130.985       3.274     129.946     -75.264      -0.305    -260.931
   full:      129.691      13.125     142.089     -77.739      -1.854    -271.779


           -------------------------------------------------
          | TOTAL ENERGY             -345.485698013537 Eh   |
          | GRADIENT NORM               0.037587312359 Eh/α |
          | HOMO-LUMO GAP               0.684696384590 eV   |
           -------------------------------------------------

------------------------------------------------------------------------
 * finished run on 2022/02/12 at 11:08:00.168     
------------------------------------------------------------------------
 total:
 * wall-time:     0 d,  0 h,  0 min,  0.951 sec
 *  cpu-time:     0 d,  0 h,  0 min,  7.495 sec
 * ratio c/w:     7.884 speedup
 SCF:
 * wall-time:     0 d,  0 h,  0 min,  0.856 sec
 *  cpu-time:     0 d,  0 h,  0 min,  6.826 sec
 * ratio c/w:     7.970 speedup

