      -----------------------------------------------------------      
     |                   =====================                   |     
     |                           x T B                           |     
     |                   =====================                   |     
     |                         S. Grimme                         |     
     |          Mulliken Center for Theoretical Chemistry        |     
     |                    University of Bonn                     |     
      -----------------------------------------------------------      

   * xtb version 6.4.1 (unknown) compiled by 'oda6@login1.crc.pitt.edu' on 2021-06-25

   xtb is free software: you can redistribute it and/or modify it under
   the terms of the GNU Lesser General Public License as published by
   the Free Software Foundation, either version 3 of the License, or
   (at your option) any later version.
   
   xtb is distributed in the hope that it will be useful,
   but WITHOUT ANY WARRANTY; without even the implied warranty of
   MERCHANTABILITY or FITNESS FOR A PARTICULAR PURPOSE.  See the
   GNU Lesser General Public License for more details.
   
   Cite this work as:
   * C. Bannwarth, E. Caldeweyher, S. Ehlert, A. Hansen, P. Pracht,
     J. Seibert, S. Spicher, S. Grimme, WIREs Comput. Mol. Sci., 2020, 11,
     e01493. DOI: 10.1002/wcms.1493
   
   for GFN2-xTB:
   * C. Bannwarth, S. Ehlert and S. Grimme., J. Chem. Theory Comput., 2019,
     15, 1652-1671. DOI: 10.1021/acs.jctc.8b01176
   for GFN1-xTB:
   * S. Grimme, C. Bannwarth, P. Shushkov, J. Chem. Theory Comput., 2017,
     13, 1989-2009. DOI: 10.1021/acs.jctc.7b00118
   for GFN0-xTB:
   * P. Pracht, E. Caldeweyher, S. Ehlert, S. Grimme, ChemRxiv, 2019, preprint.
     DOI: 10.26434/chemrxiv.8326202.v1
   for GFN-FF:
   * S. Spicher and S. Grimme, Angew. Chem. Int. Ed., 2020, 59, 15665-15673.
     DOI: 10.1002/anie.202004239
   
   for DFT-D4:
   * E. Caldeweyher, C. Bannwarth and S. Grimme, J. Chem. Phys., 2017,
     147, 034112. DOI: 10.1063/1.4993215
   * E. Caldeweyher, S. Ehlert, A. Hansen, H. Neugebauer, S. Spicher,
     C. Bannwarth and S. Grimme, J. Chem. Phys., 2019, 150, 154122.
     DOI: 10.1063/1.5090222
   * E. Caldeweyher, J.-M. Mewes, S. Ehlert and S. Grimme, Phys. Chem. Chem. Phys.
     2020, 22, 8499-8512. DOI: 10.1039/D0CP00502A
   
   for sTDA-xTB:
   * S. Grimme and C. Bannwarth, J. Chem. Phys., 2016, 145, 054103.
     DOI: 10.1063/1.4959605
   
   in the mass-spec context:
   * V. Asgeirsson, C. Bauer and S. Grimme, Chem. Sci., 2017, 8, 4879.
     DOI: 10.1039/c7sc00601b
   * J. Koopman and S. Grimme, ACS Omega 2019, 4, 12, 15120-15133.
     DOI: 10.1021/acsomega.9b02011
   
   for metadynamics refer to:
   * S. Grimme, J. Chem. Theory Comput., 2019, 155, 2847-2862
     DOI: 10.1021/acs.jctc.9b00143
   
   for SPH calculations refer to:
   * S. Spicher and S. Grimme, J. Chem. Theory Comput., 2021, 17, 1701-1714
     DOI: 10.1021/acs.jctc.0c01306
   
   with help from (in alphabetical order)
   P. Atkinson, C. Bannwarth, F. Bohle, G. Brandenburg, E. Caldeweyher
   M. Checinski, S. Dohm, S. Ehlert, S. Ehrlich, I. Gerasimov, J. Koopman
   C. Lavigne, S. Lehtola, F. März, M. Müller, F. Musil, H. Neugebauer
   J. Pisarek, C. Plett, P. Pracht, J. Seibert, P. Shushkov, S. Spicher
   M. Stahn, M. Steiner, T. Strunk, J. Stückrath, T. Rose, and J. Unsleber
   
 * started run on 2022/02/18 at 23:21:20.081     

           -------------------------------------------------
          |                Calculation Setup                |
           -------------------------------------------------

          program call               : /ihome/ghutchison/oda6/xtb/xtb-641/bin/xtb ../../GFN2_output/39_50_86_50_60.mol --sp --alpb water
          hostname                   : smp-n9
          coordinate file            : ../../GFN2_output/39_50_86_50_60.mol
          omp threads                :                     8
          number of atoms            :                   158
          number of electrons        :                   496
          charge                     :                     0
          spin                       :                   0.0
          first test random number   :      0.63520757713944

   ID    Z sym.   atoms
    1    6 C      1-3, 5-13, 15, 17-26, 28-30, 32-42, 44-47, 51, 52, 54-64,
                  66, 67, 69, 70, 72, 73, 75-81, 83-85, 87-89, 91-93, 95-99,
                  101
    2    8 O      4, 90
    3    7 N      14, 16, 48, 50, 68, 71, 100, 102
    4   16 S      27, 31, 43, 49, 53, 65, 74, 82, 86, 94
    5    1 H      103-158

           -------------------------------------------------
          |                 G F N 2 - x T B                 |
           -------------------------------------------------

        Reference                      10.1021/acs.jctc.8b01176
      * Hamiltonian:
        H0-scaling (s, p, d)           1.850000    2.230000    2.230000
        zeta-weighting                 0.500000
      * Dispersion:
        s8                             2.700000
        a1                             0.520000
        a2                             5.000000
        s9                             5.000000
      * Repulsion:
        kExp                           1.500000    1.000000
        rExp                           1.000000
      * Coulomb:
        alpha                          2.000000
        third order                    shell-resolved
        anisotropic                    true
        a3                             3.000000
        a5                             4.000000
        cn-shift                       1.200000
        cn-exp                         4.000000
        max-rad                        5.000000

      * Solvation model:               ALPB
        Solvent                        water
        Parameter file                 internal GFN2-xTB/ALPB
        Dielectric constant                8.0200E+01
        Reference state                gsolv [1 M gas/solution]
        Free energy shift                  1.0808E-03 Eh       6.7819E-01 kcal/mol
        Temperature                        2.9815E+02 K
        Density                            1.0000E+00 kg/L
        Solvent mass                       1.8000E+01 g/mol
        Interaction kernel             P16
        Born radius scaling (c1)           1.4744E+00
        Born radii integrator          GBOBC
        Born offset                        0.0000E+00 a0       0.0000E+00 AA
        H-bond correction              true
        Ion screening                  false
        Surface tension                    1.0000E-05 Eh       1.5569E+01 dyn/cm
        Grid points                               230 per atom

          ...................................................
          :                      SETUP                      :
          :.................................................:
          :  # basis functions                 524          :
          :  # atomic orbitals                 514          :
          :  # shells                          270          :
          :  # electrons                       496          :
          :  max. iterations                   250          :
          :  Hamiltonian                  GFN2-xTB          :
          :  restarted?                      false          :
          :  GBSA solvation                   true          :
          :  PC potential                    false          :
          :  electronic temp.          300.0000000     K    :
          :  accuracy                    1.0000000          :
          :  -> integral cutoff          0.2500000E+02      :
          :  -> integral neglect         0.1000000E-07      :
          :  -> SCF convergence          0.1000000E-05 Eh   :
          :  -> wf. convergence          0.1000000E-03 e    :
          :  Broyden damping             0.4000000          :
          ...................................................

 iter      E             dE          RMSdq      gap      omega  full diag
   1   -271.9631935 -0.271963E+03  0.438E+00    1.03       0.0  T
   2   -272.2042031 -0.241010E+00  0.261E+00    0.88       1.0  T
   3   -272.1315187  0.726844E-01  0.139E+00    0.92       1.0  T
   4   -272.2896060 -0.158087E+00  0.474E-01    0.89       1.0  T
   5   -272.3075903 -0.179843E-01  0.178E-01    0.83       1.0  T
   6   -272.3090468 -0.145646E-02  0.854E-02    0.87       1.0  T
   7   -272.3094183 -0.371596E-03  0.347E-02    0.86       1.0  T
   8   -272.3094476 -0.292529E-04  0.193E-02    0.86       1.0  T
   9   -272.3094575 -0.987447E-05  0.104E-02    0.86       1.0  T
  10   -272.3094608 -0.334204E-05  0.541E-03    0.86       1.5  T
  11   -272.3094622 -0.133480E-05  0.295E-03    0.86       2.7  T
  12   -272.3094624 -0.201147E-06  0.140E-03    0.86       5.7  T
  13   -272.3094625 -0.104032E-06  0.639E-04    0.86      12.5  T
  14   -272.3094625 -0.119691E-07  0.392E-04    0.86      20.3  T

   *** convergence criteria satisfied after 14 iterations ***

         #    Occupation            Energy/Eh            Energy/eV
      -------------------------------------------------------------
         1        2.0000           -0.7609981             -20.7078
       ...           ...                  ...                  ...
       242        2.0000           -0.3894835             -10.5984
       243        2.0000           -0.3832155             -10.4278
       244        2.0000           -0.3818449             -10.3905
       245        2.0000           -0.3750708             -10.2062
       246        2.0000           -0.3734353             -10.1617
       247        2.0000           -0.3711898             -10.1006
       248        2.0000           -0.3633341              -9.8868 (HOMO)
       249        0.0000           -0.3317959              -9.0286 (LUMO)
       250                         -0.3264876              -8.8842
       251                         -0.3199357              -8.7059
       252                         -0.3080859              -8.3834
       253                         -0.3016799              -8.2091
       ...                                ...                  ...
       514                          1.1572568              31.4906
      -------------------------------------------------------------
                  HL-Gap            0.0315382 Eh            0.8582 eV
             Fermi-level           -0.3475667 Eh           -9.4578 eV

 SCC (total)                   0 d,  0 h,  0 min,  0.464 sec
 SCC setup                      ...        0 min,  0.005 sec (  1.151%)
 Dispersion                     ...        0 min,  0.006 sec (  1.259%)
 classical contributions        ...        0 min,  0.000 sec (  0.057%)
 integral evaluation            ...        0 min,  0.025 sec (  5.319%)
 iterations                     ...        0 min,  0.364 sec ( 78.384%)
 molecular gradient             ...        0 min,  0.062 sec ( 13.287%)
 printout                       ...        0 min,  0.002 sec (  0.530%)

         :::::::::::::::::::::::::::::::::::::::::::::::::::::
         ::                     SUMMARY                     ::
         :::::::::::::::::::::::::::::::::::::::::::::::::::::
         :: total energy            -268.102319249563 Eh    ::
         :: total w/o Gsasa/hb      -268.082445872543 Eh    ::
         :: gradient norm              0.040792284073 Eh/a0 ::
         :: HOMO-LUMO gap              0.858197986349 eV    ::
         ::.................................................::
         :: SCC energy              -272.309462470360 Eh    ::
         :: -> isotropic ES            0.172305292235 Eh    ::
         :: -> anisotropic ES          0.007391427259 Eh    ::
         :: -> anisotropic XC          0.166795494762 Eh    ::
         :: -> dispersion             -0.261407263342 Eh    ::
         :: -> Gsolv                  -0.066022648991 Eh    ::
         ::    -> Gelec               -0.046149271971 Eh    ::
         ::    -> Gsasa               -0.014486219214 Eh    ::
         ::    -> Ghb                 -0.006467917504 Eh    ::
         ::    -> Gshift               0.001080759698 Eh    ::
         :: repulsion energy           4.206845778945 Eh    ::
         :: add. restraining           0.000000000000 Eh    ::
         :: total charge              -0.000000000428 e     ::
         :::::::::::::::::::::::::::::::::::::::::::::::::::::

           -------------------------------------------------
          |                Property Printout                |
           -------------------------------------------------

    * Orbital Energies and Occupations

         #    Occupation            Energy/Eh            Energy/eV
      -------------------------------------------------------------
         1        2.0000           -0.7609981             -20.7078
       ...           ...                  ...                  ...
       236        2.0000           -0.4041106             -10.9964
       237        2.0000           -0.4027105             -10.9583
       238        2.0000           -0.3991102             -10.8603
       239        2.0000           -0.3981113             -10.8332
       240        2.0000           -0.3970289             -10.8037
       241        2.0000           -0.3947001             -10.7403
       242        2.0000           -0.3894835             -10.5984
       243        2.0000           -0.3832155             -10.4278
       244        2.0000           -0.3818449             -10.3905
       245        2.0000           -0.3750708             -10.2062
       246        2.0000           -0.3734353             -10.1617
       247        2.0000           -0.3711898             -10.1006
       248        2.0000           -0.3633341              -9.8868 (HOMO)
       249        0.0000           -0.3317959              -9.0286 (LUMO)
       250                         -0.3264876              -8.8842
       251                         -0.3199357              -8.7059
       252                         -0.3080859              -8.3834
       253                         -0.3016799              -8.2091
       254                         -0.2873566              -7.8194
       255                         -0.2838454              -7.7238
       256                         -0.2632297              -7.1628
       257                         -0.2551849              -6.9439
       258                         -0.2522777              -6.8648
       259                         -0.2457443              -6.6870
       ...                                ...                  ...
       514                          1.1572568              31.4906
      -------------------------------------------------------------
                  HL-Gap            0.0315382 Eh            0.8582 eV
             Fermi-level           -0.3475667 Eh           -9.4578 eV

     #   Z          covCN         q      C6AA      α(0)
     1   6 C        2.964    -0.013    28.342     8.732
     2   6 C        3.001    -0.040    28.979     8.830
     3   6 C        2.868     0.231    23.173     7.891
     4   8 O        0.856    -0.433    22.362     6.340
     5   6 C        3.060    -0.023    28.510     8.756
     6   6 C        2.904    -0.025    28.622     8.772
     7   6 C        3.260     0.015    26.516     8.320
     8   6 C        3.255     0.015    26.590     8.340
     9   6 C        2.904    -0.034    28.837     8.805
    10   6 C        3.045     0.004    27.888     8.661
    11   6 C        3.020     0.037    27.151     8.547
    12   6 C        2.947    -0.002    28.067     8.689
    13   6 C        1.952     0.135    27.790     8.513
    14   7 N        0.911    -0.287    27.394     7.570
    15   6 C        1.949     0.131    27.880     8.527
    16   7 N        0.911    -0.289    27.456     7.578
    17   6 C        4.162    -0.025    20.928     6.497
    18   6 C        4.013    -0.016    20.783     6.476
    19   6 C        2.995    -0.044    29.074     8.845
    20   6 C        2.995    -0.044    29.085     8.847
    21   6 C        4.013    -0.016    20.785     6.477
    22   6 C        3.915    -0.062    21.631     6.610
    23   6 C        4.160    -0.025    20.926     6.497
    24   6 C        2.985     0.025    27.434     8.592
    25   6 C        3.103    -0.043    28.927     8.813
    26   6 C        3.149     0.033    27.004     8.500
    27  16 S        2.198    -0.192   149.193    20.558
    28   6 C        3.793    -0.007    20.716     6.482
    29   6 C        3.778    -0.109    22.609     6.774
    30   6 C        3.040     0.032    27.250     8.562
    31  16 S        2.383    -0.028   142.192    20.070
    32   6 C        3.036     0.010    27.757     8.642
    33   6 C        3.111    -0.003    27.937     8.659
    34   6 C        2.983     0.010    27.795     8.648
    35   6 C        2.925    -0.038    28.955     8.824
    36   6 C        2.918    -0.033    28.829     8.805
    37   6 C        2.926    -0.039    28.963     8.826
    38   6 C        2.972     0.019    27.587     8.615
    39   6 C        3.807    -0.064    21.719     6.634
    40   6 C        3.754    -0.102    22.509     6.765
    41   6 C        2.929    -0.040    28.991     8.830
    42   6 C        3.183     0.014    27.264     8.522
    43  16 S        2.174    -0.062   143.617    20.170
    44   6 C        3.100     0.005    27.792     8.639
    45   6 C        3.081    -0.042    28.947     8.820
    46   6 C        3.337     0.069    24.096     7.771
    47   6 C        3.338     0.068    24.103     7.771
    48   7 N        1.853    -0.302    28.676     7.937
    49  16 S        2.681     0.290   129.784    19.174
    50   7 N        1.854    -0.302    28.679     7.937
    51   6 C        3.077    -0.040    28.906     8.815
    52   6 C        3.103     0.004    27.804     8.640
    53  16 S        2.181    -0.059   143.491    20.161
    54   6 C        3.194     0.012    27.229     8.508
    55   6 C        3.105    -0.003    27.958     8.664
    56   6 C        2.976     0.009    27.802     8.649
    57   6 C        2.926    -0.038    28.937     8.822
    58   6 C        2.918    -0.034    28.850     8.808
    59   6 C        2.926    -0.038    28.934     8.821
    60   6 C        2.970     0.021    27.527     8.606
    61   6 C        3.807    -0.058    21.619     6.619
    62   6 C        3.754    -0.107    22.608     6.780
    63   6 C        2.934    -0.038    28.941     8.823
    64   6 C        3.029     0.008    27.816     8.651
    65  16 S        2.266    -0.015   141.687    20.034
    66   6 C        3.120     0.009    27.651     8.612
    67   6 C        3.254     0.033    26.211     8.282
    68   7 N        2.793    -0.026    21.752     6.927
    69   6 C        3.090     0.032    27.184     8.546
    70   6 C        3.086     0.031    27.202     8.550
    71   7 N        2.797    -0.014    21.513     6.889
    72   6 C        3.255     0.030    26.246     8.286
    73   6 C        3.118     0.005    27.736     8.626
    74  16 S        2.421    -0.012   141.560    20.025
    75   6 C        3.742    -0.014    20.901     6.522
    76   6 C        3.752    -0.132    23.091     6.853
    77   6 C        3.743    -0.015    20.915     6.524
    78   6 C        3.752    -0.126    22.978     6.836
    79   6 C        3.033     0.028    27.351     8.578
    80   6 C        3.091    -0.063    29.444     8.894
    81   6 C        3.120     0.046    26.791     8.477
    82  16 S        2.036    -0.128   146.444    20.368
    83   6 C        3.793    -0.013    20.812     6.497
    84   6 C        3.779    -0.120    22.821     6.806
    85   6 C        3.019     0.013    27.699     8.633
    86  16 S        2.397    -0.012   141.542    20.024
    87   6 C        2.920    -0.016    28.399     8.739
    88   6 C        3.019    -0.045    29.094     8.848
    89   6 C        2.863     0.229    23.198     7.895
    90   8 O        0.974    -0.426    22.158     6.314
    91   6 C        3.255    -0.052    28.139     8.580
    92   6 C        3.231    -0.014    27.532     8.520
    93   6 C        2.927    -0.025    28.624     8.774
    94  16 S        2.354     0.035   139.650    19.889
    95   6 C        2.968     0.047    26.940     8.514
    96   6 C        3.770    -0.128    22.997     6.834
    97   6 C        3.014     0.035    27.206     8.556
    98   6 C        2.947    -0.013    28.343     8.732
    99   6 C        1.937     0.128    27.946     8.537
   100   7 N        0.911    -0.301    27.736     7.617
   101   6 C        1.930     0.128    27.962     8.540
   102   7 N        0.911    -0.298    27.668     7.608
   103   1 H        0.925     0.063     2.164     2.300
   104   1 H        0.926     0.067     2.120     2.277
   105   1 H        0.926     0.054     2.268     2.355
   106   1 H        0.925     0.054     2.270     2.356
   107   1 H        0.925     0.042     2.425     2.435
   108   1 H        0.926     0.044     2.395     2.420
   109   1 H        0.926     0.045     2.380     2.413
   110   1 H        0.925     0.045     2.389     2.417
   111   1 H        0.925     0.045     2.378     2.411
   112   1 H        0.925     0.034     2.537     2.491
   113   1 H        0.925     0.056     2.245     2.343
   114   1 H        0.926     0.092     1.858     2.131
   115   1 H        0.925     0.077     2.007     2.215
   116   1 H        0.925     0.055     2.254     2.348
   117   1 H        0.925     0.060     2.200     2.319
   118   1 H        0.925     0.060     2.193     2.316
   119   1 H        0.925     0.035     2.515     2.480
   120   1 H        0.926     0.036     2.504     2.474
   121   1 H        0.926     0.045     2.384     2.415
   122   1 H        0.926     0.044     2.392     2.418
   123   1 H        0.924     0.046     2.366     2.406
   124   1 H        0.924     0.045     2.382     2.414
   125   1 H        0.925     0.032     2.563     2.504
   126   1 H        0.925     0.041     2.441     2.443
   127   1 H        0.925     0.043     2.407     2.426
   128   1 H        0.926     0.036     2.498     2.472
   129   1 H        0.926     0.035     2.510     2.478
   130   1 H        0.926     0.043     2.413     2.429
   131   1 H        0.926     0.042     2.417     2.431
   132   1 H        0.924     0.042     2.424     2.435
   133   1 H        0.924     0.037     2.485     2.465
   134   1 H        0.925     0.039     2.459     2.452
   135   1 H        0.925     0.042     2.428     2.437
   136   1 H        0.925     0.046     2.376     2.410
   137   1 H        0.926     0.035     2.514     2.479
   138   1 H        0.924     0.075     2.028     2.227
   139   1 H        0.925     0.083     1.945     2.181
   140   1 H        0.925     0.061     2.183     2.310
   141   1 H        0.925     0.062     2.175     2.306
   142   1 H        0.925     0.077     2.006     2.215
   143   1 H        0.925     0.091     1.874     2.141
   144   1 H        0.924     0.083     1.947     2.182
   145   1 H        0.925     0.052     2.297     2.370
   146   1 H        0.925     0.074     2.044     2.236
   147   1 H        0.925     0.048     2.349     2.397
   148   1 H        0.926     0.081     1.970     2.195
   149   1 H        0.925     0.081     1.966     2.193
   150   1 H        0.925     0.080     1.983     2.202
   151   1 H        0.925     0.072     2.065     2.247
   152   1 H        0.925     0.055     2.260     2.351
   153   1 H        0.925     0.054     2.266     2.354
   154   1 H        0.925     0.064     2.155     2.296
   155   1 H        0.926     0.066     2.125     2.280
   156   1 H        0.925     0.093     1.854     2.129
   157   1 H        0.925     0.076     2.025     2.225
   158   1 H        0.925     0.093     1.852     2.128

 Mol. C6AA /au·bohr⁶  :     453091.344726
 Mol. C8AA /au·bohr⁸  :   13084415.541510
 Mol. α(0) /au        :       1074.293023


Wiberg/Mayer (AO) data.
largest (>0.10) Wiberg bond orders for each atom

 ---------------------------------------------------------------------------
     #   Z sym  total        # sym  WBO       # sym  WBO       # sym  WBO
 ---------------------------------------------------------------------------
     1   6 C    3.939 --     2 C    1.511    24 C    1.277   103 H    0.942
     2   6 C    3.951 --     1 C    1.511    11 C    1.138     3 C    1.043
     3   6 C    3.910 --     4 O    1.712     2 C    1.043     5 C    1.032
     4   8 O    2.005 --     3 C    1.712
     5   6 C    3.972 --     6 C    1.379    10 C    1.305     3 C    1.032
     6   6 C    3.978 --     7 C    1.441     5 C    1.379   104 H    0.963
     7   6 C    3.951 --     6 C    1.441     8 C    1.320    23 C    0.994
     8   6 C    3.963 --     9 C    1.450     7 C    1.320    17 C    0.995
     9   6 C    3.976 --     8 C    1.450    10 C    1.362   105 H    0.958
    10   6 C    3.975 --     9 C    1.362     5 C    1.305    11 C    1.092
    11   6 C    3.963 --    12 C    1.465     2 C    1.138    10 C    1.092
    12   6 C    3.943 --    11 C    1.465    15 C    1.103    13 C    1.101
    13   6 C    3.939 --    14 N    2.745    12 C    1.101
    14   7 N    2.954 --    13 C    2.745
    15   6 C    3.939 --    16 N    2.733    12 C    1.103
    16   7 N    2.948 --    15 C    2.733
    17   6 C    3.983 --     8 C    0.995    23 C    0.975   106 H    0.960
                            18 C    0.949
    18   6 C    3.988 --    19 C    1.004    22 C    0.989   107 H    0.970
                            17 C    0.949
    19   6 C    3.980 --    20 C    1.923    18 C    1.004   108 H    0.970
    20   6 C    3.980 --    19 C    1.923    21 C    1.004   109 H    0.970
    21   6 C    3.987 --    20 C    1.004    22 C    0.989   110 H    0.970
                            23 C    0.949
    22   6 C    3.994 --    18 C    0.989    21 C    0.989   111 H    0.978
                           112 H    0.974
    23   6 C    3.982 --     7 C    0.994    17 C    0.975   113 H    0.959
                            21 C    0.949
    24   6 C    3.930 --    25 C    1.396     1 C    1.277    31 S    1.078
    25   6 C    3.953 --    24 C    1.396    26 C    1.388   114 H    0.943
    26   6 C    3.940 --    25 C    1.388    30 C    1.354    27 S    1.005
    27  16 S    2.192 --    26 C    1.005    28 C    0.956
    28   6 C    3.960 --    29 C    1.029   116 H    0.973   115 H    0.966
                            27 S    0.956
    29   6 C    3.992 --    28 C    1.029   119 H    0.985   117 H    0.985
                           118 H    0.976
    30   6 C    3.925 --    26 C    1.354    32 C    1.222    31 S    1.158
    31  16 S    2.608 --    30 C    1.158    24 C    1.078
    32   6 C    3.921 --    33 C    1.395    30 C    1.222    74 S    1.080
    33   6 C    3.955 --    32 C    1.395    42 C    1.304    34 C    1.017
    34   6 C    3.987 --    41 C    1.396    35 C    1.382    33 C    1.017
                            37 C    0.104
    35   6 C    3.988 --    36 C    1.445    34 C    1.382   120 H    0.970
                            38 C    0.106
    36   6 C    3.990 --    35 C    1.445    37 C    1.440   121 H    0.969
                            41 C    0.106
    37   6 C    3.987 --    36 C    1.440    38 C    1.409   122 H    0.968
                            34 C    0.104
    38   6 C    3.986 --    41 C    1.412    37 C    1.409    39 C    1.013
                            35 C    0.106
    39   6 C    3.995 --    38 C    1.013    40 C    0.999   123 H    0.974
                           124 H    0.973
    40   6 C    3.995 --    39 C    0.999   125 H    0.988   126 H    0.987
                           127 H    0.985
    41   6 C    3.988 --    38 C    1.412    34 C    1.396   128 H    0.968
                            36 C    0.106
    42   6 C    3.922 --    73 C    1.323    33 C    1.304    43 S    1.084
    43  16 S    2.497 --    44 C    1.107    42 C    1.084
    44   6 C    3.914 --    72 C    1.302    45 C    1.274    43 S    1.107
    45   6 C    3.953 --    44 C    1.274    70 C    1.264    46 C    1.173
    46   6 C    3.969 --    50 N    1.427    45 C    1.173    47 C    1.157
                            49 S    0.107
    47   6 C    3.969 --    48 N    1.426    51 C    1.175    46 C    1.157
                            49 S    0.108
    48   7 N    3.058 --    47 C    1.426    49 S    1.377    50 N    0.144
    49  16 S    3.086 --    48 N    1.377    50 N    1.376    47 C    0.108
                            46 C    0.107
    50   7 N    3.059 --    46 C    1.427    49 S    1.376    48 N    0.144
    51   6 C    3.955 --    69 C    1.276    52 C    1.262    47 C    1.175
    52   6 C    3.918 --    67 C    1.312    51 C    1.262    53 S    1.111
    53  16 S    2.508 --    52 C    1.111    54 C    1.090
    54   6 C    3.922 --    66 C    1.336    55 C    1.280    53 S    1.090
    55   6 C    3.957 --    64 C    1.418    54 C    1.280    56 C    1.030
    56   6 C    3.987 --    57 C    1.387    63 C    1.387    55 C    1.030
                            59 C    0.102
    57   6 C    3.984 --    58 C    1.442    56 C    1.387   129 H    0.969
                            60 C    0.104
    58   6 C    3.989 --    59 C    1.442    57 C    1.442   130 H    0.969
                            63 C    0.106
    59   6 C    3.984 --    58 C    1.442    60 C    1.404   131 H    0.968
                            56 C    0.102
    60   6 C    3.985 --    63 C    1.417    59 C    1.404    61 C    1.013
                            57 C    0.104
    61   6 C    3.996 --    60 C    1.013    62 C    1.000   132 H    0.974
                           133 H    0.973
    62   6 C    3.995 --    61 C    1.000   135 H    0.988   134 H    0.988
                           136 H    0.986
    63   6 C    3.988 --    60 C    1.417    56 C    1.387   137 H    0.967
                            58 C    0.106
    64   6 C    3.922 --    55 C    1.418    79 C    1.205    65 S    1.075
    65  16 S    2.540 --    66 C    1.125    64 C    1.075
    66   6 C    3.927 --    54 C    1.336    67 C    1.247    65 S    1.125
    67   6 C    3.941 --    52 C    1.312    66 C    1.247    68 N    1.156
    68   7 N    3.545 --    69 C    1.174    67 C    1.156    77 C    0.966
    69   6 C    3.936 --    51 C    1.276    70 C    1.219    68 N    1.174
    70   6 C    3.935 --    45 C    1.264    69 C    1.219    71 N    1.188
    71   7 N    3.573 --    70 C    1.188    72 C    1.164    75 C    0.970
    72   6 C    3.940 --    44 C    1.302    73 C    1.248    71 N    1.164
    73   6 C    3.928 --    42 C    1.323    72 C    1.248    74 S    1.125
    74  16 S    2.623 --    73 C    1.125    32 C    1.080
    75   6 C    3.947 --    76 C    1.007    71 N    0.970   139 H    0.963
                           138 H    0.960
    76   6 C    3.982 --    75 C    1.007   142 H    0.980   141 H    0.979
                           140 H    0.978
    77   6 C    3.946 --    78 C    1.005    68 N    0.966   144 H    0.963
                           143 H    0.958
    78   6 C    3.985 --    77 C    1.005   147 H    0.987   145 H    0.984
                           146 H    0.979
    79   6 C    3.939 --    80 C    1.395    64 C    1.205    86 S    1.159
    80   6 C    3.954 --    79 C    1.395    81 C    1.376   148 H    0.951
    81   6 C    3.942 --    80 C    1.376    85 C    1.268    82 S    1.110
    82  16 S    2.376 --    81 C    1.110    83 C    0.970
    83   6 C    3.954 --    84 C    1.025    82 S    0.970   150 H    0.965
                           149 H    0.964
    84   6 C    3.987 --    83 C    1.025   152 H    0.986   153 H    0.983
                           151 H    0.974
    85   6 C    3.927 --    87 C    1.363    81 C    1.268    86 S    1.091
    86  16 S    2.747 --    79 C    1.159    85 C    1.091    90 O    0.128
    87   6 C    3.951 --    88 C    1.434    85 C    1.363   154 H    0.934
    88   6 C    3.956 --    87 C    1.434    97 C    1.164    89 C    1.075
    89   6 C    3.914 --    90 O    1.649    88 C    1.075    91 C    1.050
    90   8 O    2.069 --    89 C    1.649    86 S    0.128
    91   6 C    3.971 --    95 C    1.542    92 C    1.148    89 C    1.050
    92   6 C    3.980 --    93 C    1.573    91 C    1.148    97 C    1.096
    93   6 C    3.935 --    92 C    1.573    94 S    1.190   155 H    0.965
    94  16 S    2.609 --    93 C    1.190    95 C    1.155
    95   6 C    3.944 --    91 C    1.542    94 S    1.155    96 C    1.054
    96   6 C    3.985 --    95 C    1.054   157 H    0.973   156 H    0.956
                           158 H    0.953
    97   6 C    3.969 --    98 C    1.431    88 C    1.164    92 C    1.096
    98   6 C    3.942 --    97 C    1.431   101 C    1.115    99 C    1.110
    99   6 C    3.939 --   100 N    2.741    98 C    1.110
   100   7 N    2.952 --    99 C    2.741
   101   6 C    3.940 --   102 N    2.730    98 C    1.115
   102   7 N    2.949 --   101 C    2.730
   103   1 H    0.995 --     1 C    0.942
   104   1 H    0.995 --     6 C    0.963
   105   1 H    0.997 --     9 C    0.958
   106   1 H    0.995 --    17 C    0.960
   107   1 H    0.998 --    18 C    0.970
   108   1 H    0.998 --    19 C    0.970
   109   1 H    0.998 --    20 C    0.970
   110   1 H    0.998 --    21 C    0.970
   111   1 H    0.998 --    22 C    0.978
   112   1 H    0.999 --    22 C    0.974
   113   1 H    0.995 --    23 C    0.959
   114   1 H    0.991 --    25 C    0.943
   115   1 H    0.993 --    28 C    0.966
   116   1 H    0.997 --    28 C    0.973
   117   1 H    0.996 --    29 C    0.985
   118   1 H    0.996 --    29 C    0.976
   119   1 H    0.999 --    29 C    0.985
   120   1 H    0.998 --    35 C    0.970
   121   1 H    0.997 --    36 C    0.969
   122   1 H    0.998 --    37 C    0.968
   123   1 H    0.997 --    39 C    0.974
   124   1 H    0.998 --    39 C    0.973
   125   1 H    0.999 --    40 C    0.988
   126   1 H    0.998 --    40 C    0.987
   127   1 H    0.997 --    40 C    0.985
   128   1 H    0.999 --    41 C    0.968
   129   1 H    0.998 --    57 C    0.969
   130   1 H    0.997 --    58 C    0.969
   131   1 H    0.998 --    59 C    0.968
   132   1 H    0.998 --    61 C    0.974
   133   1 H    0.998 --    61 C    0.973
   134   1 H    0.998 --    62 C    0.988
   135   1 H    0.998 --    62 C    0.988
   136   1 H    0.997 --    62 C    0.986
   137   1 H    0.999 --    63 C    0.967
   138   1 H    0.992 --    75 C    0.960
   139   1 H    0.992 --    75 C    0.963
   140   1 H    0.996 --    76 C    0.978
   141   1 H    0.996 --    76 C    0.979
   142   1 H    0.993 --    76 C    0.980
   143   1 H    0.991 --    77 C    0.958
   144   1 H    0.991 --    77 C    0.963
   145   1 H    0.997 --    78 C    0.984
   146   1 H    0.994 --    78 C    0.979
   147   1 H    0.998 --    78 C    0.987
   148   1 H    0.992 --    80 C    0.951
   149   1 H    0.993 --    83 C    0.964
   150   1 H    0.993 --    83 C    0.965
   151   1 H    0.994 --    84 C    0.974
   152   1 H    0.997 --    84 C    0.986
   153   1 H    0.997 --    84 C    0.983
   154   1 H    0.994 --    87 C    0.934
   155   1 H    0.995 --    93 C    0.965
   156   1 H    0.989 --    96 C    0.956
   157   1 H    0.994 --    96 C    0.973
   158   1 H    0.989 --    96 C    0.953
 ---------------------------------------------------------------------------

Topologies differ in bond orders
Writing corrected topology to xtbtopo.mol

molecular dipole:
                 x           y           z       tot (Debye)
 q only:        0.713      -0.583       3.666
   full:        1.070      -0.486       3.587       9.593
molecular quadrupole (traceless):
                xx          xy          yy          xz          yz          zz
 q only:     -140.907    -207.232      -5.885     -21.218     -10.644     146.791
  q+dip:     -124.756    -216.379     -20.184     -17.250      -7.466     144.940
   full:     -124.382    -218.248     -23.133     -17.045      -3.177     147.515


           -------------------------------------------------
          | TOTAL ENERGY             -268.102319249563 Eh   |
          | GRADIENT NORM               0.040792284073 Eh/α |
          | HOMO-LUMO GAP               0.858197986349 eV   |
           -------------------------------------------------

------------------------------------------------------------------------
 * finished run on 2022/02/18 at 23:21:20.626     
------------------------------------------------------------------------
 total:
 * wall-time:     0 d,  0 h,  0 min,  0.545 sec
 *  cpu-time:     0 d,  0 h,  0 min,  4.186 sec
 * ratio c/w:     7.687 speedup
 SCF:
 * wall-time:     0 d,  0 h,  0 min,  0.466 sec
 *  cpu-time:     0 d,  0 h,  0 min,  3.673 sec
 * ratio c/w:     7.879 speedup

