      -----------------------------------------------------------      
     |                   =====================                   |     
     |                           x T B                           |     
     |                   =====================                   |     
     |                         S. Grimme                         |     
     |          Mulliken Center for Theoretical Chemistry        |     
     |                    University of Bonn                     |     
      -----------------------------------------------------------      

   * xtb version 6.4.1 (unknown) compiled by 'oda6@login1.crc.pitt.edu' on 2021-06-25

   xtb is free software: you can redistribute it and/or modify it under
   the terms of the GNU Lesser General Public License as published by
   the Free Software Foundation, either version 3 of the License, or
   (at your option) any later version.
   
   xtb is distributed in the hope that it will be useful,
   but WITHOUT ANY WARRANTY; without even the implied warranty of
   MERCHANTABILITY or FITNESS FOR A PARTICULAR PURPOSE.  See the
   GNU Lesser General Public License for more details.
   
   Cite this work as:
   * C. Bannwarth, E. Caldeweyher, S. Ehlert, A. Hansen, P. Pracht,
     J. Seibert, S. Spicher, S. Grimme, WIREs Comput. Mol. Sci., 2020, 11,
     e01493. DOI: 10.1002/wcms.1493
   
   for GFN2-xTB:
   * C. Bannwarth, S. Ehlert and S. Grimme., J. Chem. Theory Comput., 2019,
     15, 1652-1671. DOI: 10.1021/acs.jctc.8b01176
   for GFN1-xTB:
   * S. Grimme, C. Bannwarth, P. Shushkov, J. Chem. Theory Comput., 2017,
     13, 1989-2009. DOI: 10.1021/acs.jctc.7b00118
   for GFN0-xTB:
   * P. Pracht, E. Caldeweyher, S. Ehlert, S. Grimme, ChemRxiv, 2019, preprint.
     DOI: 10.26434/chemrxiv.8326202.v1
   for GFN-FF:
   * S. Spicher and S. Grimme, Angew. Chem. Int. Ed., 2020, 59, 15665-15673.
     DOI: 10.1002/anie.202004239
   
   for DFT-D4:
   * E. Caldeweyher, C. Bannwarth and S. Grimme, J. Chem. Phys., 2017,
     147, 034112. DOI: 10.1063/1.4993215
   * E. Caldeweyher, S. Ehlert, A. Hansen, H. Neugebauer, S. Spicher,
     C. Bannwarth and S. Grimme, J. Chem. Phys., 2019, 150, 154122.
     DOI: 10.1063/1.5090222
   * E. Caldeweyher, J.-M. Mewes, S. Ehlert and S. Grimme, Phys. Chem. Chem. Phys.
     2020, 22, 8499-8512. DOI: 10.1039/D0CP00502A
   
   for sTDA-xTB:
   * S. Grimme and C. Bannwarth, J. Chem. Phys., 2016, 145, 054103.
     DOI: 10.1063/1.4959605
   
   in the mass-spec context:
   * V. Asgeirsson, C. Bauer and S. Grimme, Chem. Sci., 2017, 8, 4879.
     DOI: 10.1039/c7sc00601b
   * J. Koopman and S. Grimme, ACS Omega 2019, 4, 12, 15120-15133.
     DOI: 10.1021/acsomega.9b02011
   
   for metadynamics refer to:
   * S. Grimme, J. Chem. Theory Comput., 2019, 155, 2847-2862
     DOI: 10.1021/acs.jctc.9b00143
   
   for SPH calculations refer to:
   * S. Spicher and S. Grimme, J. Chem. Theory Comput., 2021, 17, 1701-1714
     DOI: 10.1021/acs.jctc.0c01306
   
   with help from (in alphabetical order)
   P. Atkinson, C. Bannwarth, F. Bohle, G. Brandenburg, E. Caldeweyher
   M. Checinski, S. Dohm, S. Ehlert, S. Ehrlich, I. Gerasimov, J. Koopman
   C. Lavigne, S. Lehtola, F. März, M. Müller, F. Musil, H. Neugebauer
   J. Pisarek, C. Plett, P. Pracht, J. Seibert, P. Shushkov, S. Spicher
   M. Stahn, M. Steiner, T. Strunk, J. Stückrath, T. Rose, and J. Unsleber
   
 * started run on 2022/02/14 at 01:21:54.512     

           -------------------------------------------------
          |                Calculation Setup                |
           -------------------------------------------------

          program call               : /ihome/ghutchison/oda6/xtb/xtb-641/bin/xtb ../../GFN2_output/39_71_86_130_14.mol --sp --alpb water
          hostname                   : smp-n25
          coordinate file            : ../../GFN2_output/39_71_86_130_14.mol
          omp threads                :                     8
          number of atoms            :                   246
          number of electrons        :                   752
          charge                     :                     0
          spin                       :                   0.0
          first test random number   :      0.15314587439289

   ID    Z sym.   atoms
    1    6 C      1-3, 5-13, 15, 17-32, 34-44, 46-49, 51, 52, 54-64, 66-69,
                  73, 74, 76-86, 88, 89, 91, 92, 94, 95, 97-102, 104-107,
                  109-115, 117-120, 122, 123, 125-128, 130-136, 138-141,
                  143-145, 147-153
    2    8 O      4, 146, 154
    3    7 N      14, 16, 70, 72, 90, 93, 103, 124
    4   16 S      33, 45, 50, 53, 65, 71, 75, 87, 96, 108, 116, 121, 129,
                  137, 142
    5    1 H      155-246

           -------------------------------------------------
          |                 G F N 2 - x T B                 |
           -------------------------------------------------

        Reference                      10.1021/acs.jctc.8b01176
      * Hamiltonian:
        H0-scaling (s, p, d)           1.850000    2.230000    2.230000
        zeta-weighting                 0.500000
      * Dispersion:
        s8                             2.700000
        a1                             0.520000
        a2                             5.000000
        s9                             5.000000
      * Repulsion:
        kExp                           1.500000    1.000000
        rExp                           1.000000
      * Coulomb:
        alpha                          2.000000
        third order                    shell-resolved
        anisotropic                    true
        a3                             3.000000
        a5                             4.000000
        cn-shift                       1.200000
        cn-exp                         4.000000
        max-rad                        5.000000

      * Solvation model:               ALPB
        Solvent                        water
        Parameter file                 internal GFN2-xTB/ALPB
        Dielectric constant                8.0200E+01
        Reference state                gsolv [1 M gas/solution]
        Free energy shift                  1.0808E-03 Eh       6.7819E-01 kcal/mol
        Temperature                        2.9815E+02 K
        Density                            1.0000E+00 kg/L
        Solvent mass                       1.8000E+01 g/mol
        Interaction kernel             P16
        Born radius scaling (c1)           1.4744E+00
        Born radii integrator          GBOBC
        Born offset                        0.0000E+00 a0       0.0000E+00 AA
        H-bond correction              true
        Ion screening                  false
        Surface tension                    1.0000E-05 Eh       1.5569E+01 dyn/cm
        Grid points                               230 per atom

          ...................................................
          :                      SETUP                      :
          :.................................................:
          :  # basis functions                 798          :
          :  # atomic orbitals                 783          :
          :  # shells                          415          :
          :  # electrons                       752          :
          :  max. iterations                   250          :
          :  Hamiltonian                  GFN2-xTB          :
          :  restarted?                      false          :
          :  GBSA solvation                   true          :
          :  PC potential                    false          :
          :  electronic temp.          300.0000000     K    :
          :  accuracy                    1.0000000          :
          :  -> integral cutoff          0.2500000E+02      :
          :  -> integral neglect         0.1000000E-07      :
          :  -> SCF convergence          0.1000000E-05 Eh   :
          :  -> wf. convergence          0.1000000E-03 e    :
          :  Broyden damping             0.4000000          :
          ...................................................

 iter      E             dE          RMSdq      gap      omega  full diag
   1   -411.3648256 -0.411365E+03  0.434E+00    0.44       0.0  T
   2   -411.7204387 -0.355613E+00  0.252E+00    0.60       1.0  T
   3   -411.6272048  0.932339E-01  0.117E+00    0.38       1.0  T
   4   -411.7916753 -0.164470E+00  0.437E-01    0.41       1.0  T
   5   -411.8156273 -0.239520E-01  0.172E-01    0.34       1.0  T
   6   -411.8172776 -0.165026E-02  0.814E-02    0.37       1.0  T
   7   -411.8179874 -0.709786E-03  0.330E-02    0.36       1.0  T
   8   -411.8180636 -0.761901E-04  0.181E-02    0.37       1.0  T
   9   -411.8180797 -0.161442E-04  0.103E-02    0.37       1.0  T
  10   -411.8180861 -0.638095E-05  0.474E-03    0.37       1.3  T
  11   -411.8180879 -0.176965E-05  0.268E-03    0.37       2.4  T
  12   -411.8180881 -0.261059E-06  0.145E-03    0.37       4.4  T
  13   -411.8180883 -0.144324E-06  0.657E-04    0.37       9.7  T
  14   -411.8180883 -0.234011E-07  0.393E-04    0.37      16.2  T

   *** convergence criteria satisfied after 14 iterations ***

         #    Occupation            Energy/Eh            Energy/eV
      -------------------------------------------------------------
         1        2.0000           -0.7581338             -20.6299
       ...           ...                  ...                  ...
       370        2.0000           -0.3650852              -9.9345
       371        2.0000           -0.3621589              -9.8548
       372        2.0000           -0.3619073              -9.8480
       373        2.0000           -0.3608310              -9.8187
       374        2.0000           -0.3595589              -9.7841
       375        2.0000           -0.3561552              -9.6915
       376        1.9984           -0.3468238              -9.4376 (HOMO)
       377        0.0016           -0.3333156              -9.0700 (LUMO)
       378                         -0.3218386              -8.7577
       379                         -0.3172810              -8.6337
       380                         -0.3082907              -8.3890
       381                         -0.3000862              -8.1658
       ...                                ...                  ...
       783                          1.1490762              31.2680
      -------------------------------------------------------------
                  HL-Gap            0.0135082 Eh            0.3676 eV
             Fermi-level           -0.3400697 Eh           -9.2538 eV

 SCC (total)                   0 d,  0 h,  0 min,  1.072 sec
 SCC setup                      ...        0 min,  0.011 sec (  0.999%)
 Dispersion                     ...        0 min,  0.014 sec (  1.334%)
 classical contributions        ...        0 min,  0.000 sec (  0.044%)
 integral evaluation            ...        0 min,  0.054 sec (  5.065%)
 iterations                     ...        0 min,  0.824 sec ( 76.915%)
 molecular gradient             ...        0 min,  0.161 sec ( 14.997%)
 printout                       ...        0 min,  0.007 sec (  0.637%)

         :::::::::::::::::::::::::::::::::::::::::::::::::::::
         ::                     SUMMARY                     ::
         :::::::::::::::::::::::::::::::::::::::::::::::::::::
         :: total energy            -405.410943983001 Eh    ::
         :: total w/o Gsasa/hb      -405.400249398852 Eh    ::
         :: gradient norm              0.041434595446 Eh/a0 ::
         :: HOMO-LUMO gap              0.367576061430 eV    ::
         ::.................................................::
         :: SCC energy              -411.818088288511 Eh    ::
         :: -> isotropic ES            0.201987424223 Eh    ::
         :: -> anisotropic ES          0.006446199464 Eh    ::
         :: -> anisotropic XC          0.220827382132 Eh    ::
         :: -> dispersion             -0.426243285220 Eh    ::
         :: -> Gsolv                  -0.060020209228 Eh    ::
         ::    -> Gelec               -0.049325625079 Eh    ::
         ::    -> Gsasa               -0.003375555206 Eh    ::
         ::    -> Ghb                 -0.008399788642 Eh    ::
         ::    -> Gshift               0.001080759698 Eh    ::
         :: repulsion energy           6.401107956170 Eh    ::
         :: add. restraining           0.000000000000 Eh    ::
         :: total charge              -0.000000000000 e     ::
         :::::::::::::::::::::::::::::::::::::::::::::::::::::

           -------------------------------------------------
          |                Property Printout                |
           -------------------------------------------------

    * Orbital Energies and Occupations

         #    Occupation            Energy/Eh            Energy/eV
      -------------------------------------------------------------
         1        2.0000           -0.7581338             -20.6299
       ...           ...                  ...                  ...
       364        2.0000           -0.3834238             -10.4335
       365        2.0000           -0.3793120             -10.3216
       366        2.0000           -0.3785813             -10.3017
       367        2.0000           -0.3738673             -10.1734
       368        2.0000           -0.3710834             -10.0977
       369        2.0000           -0.3689127             -10.0386
       370        2.0000           -0.3650852              -9.9345
       371        2.0000           -0.3621589              -9.8548
       372        2.0000           -0.3619073              -9.8480
       373        2.0000           -0.3608310              -9.8187
       374        2.0000           -0.3595589              -9.7841
       375        2.0000           -0.3561552              -9.6915
       376        1.9984           -0.3468238              -9.4376 (HOMO)
       377        0.0016           -0.3333156              -9.0700 (LUMO)
       378                         -0.3218386              -8.7577
       379                         -0.3172810              -8.6337
       380                         -0.3082907              -8.3890
       381                         -0.3000862              -8.1658
       382                         -0.2900967              -7.8939
       383                         -0.2819547              -7.6724
       384                         -0.2672913              -7.2734
       385                         -0.2578571              -7.0166
       386                         -0.2563848              -6.9766
       387                         -0.2529693              -6.8836
       ...                                ...                  ...
       783                          1.1490762              31.2680
      -------------------------------------------------------------
                  HL-Gap            0.0135082 Eh            0.3676 eV
             Fermi-level           -0.3400697 Eh           -9.2538 eV

     #   Z          covCN         q      C6AA      α(0)
     1   6 C        2.959    -0.012    28.304     8.726
     2   6 C        3.000    -0.038    28.935     8.824
     3   6 C        2.867     0.231    23.163     7.889
     4   8 O        0.856    -0.429    22.266     6.326
     5   6 C        3.061    -0.022    28.497     8.754
     6   6 C        2.904    -0.025    28.616     8.771
     7   6 C        3.259     0.016    26.519     8.322
     8   6 C        3.256     0.016    26.557     8.333
     9   6 C        2.904    -0.033    28.828     8.804
    10   6 C        3.044     0.005    27.872     8.659
    11   6 C        3.023     0.037    27.148     8.547
    12   6 C        2.947    -0.000    28.033     8.684
    13   6 C        1.945     0.131    27.879     8.527
    14   7 N        0.911    -0.288    27.431     7.575
    15   6 C        1.947     0.135    27.791     8.513
    16   7 N        0.911    -0.284    27.320     7.560
    17   6 C        4.162    -0.025    20.928     6.497
    18   6 C        4.013    -0.016    20.783     6.476
    19   6 C        2.995    -0.044    29.070     8.844
    20   6 C        2.995    -0.044    29.087     8.847
    21   6 C        4.013    -0.016    20.784     6.476
    22   6 C        3.915    -0.062    21.630     6.610
    23   6 C        4.160    -0.025    20.926     6.497
    24   6 C        2.978     0.035    27.222     8.558
    25   6 C        3.056    -0.037    28.863     8.811
    26   6 C        3.139    -0.001    27.824     8.632
    27   6 C        2.992     0.002    27.973     8.676
    28   6 C        2.977     0.015    27.683     8.631
    29   6 C        2.924    -0.037    28.921     8.819
    30   6 C        2.920    -0.032    28.793     8.799
    31   6 C        2.943    -0.042    29.054     8.840
    32   6 C        2.965     0.054    26.786     8.489
    33  16 S        2.063    -0.206   149.849    20.603
    34   6 C        3.793    -0.005    20.671     6.474
    35   6 C        3.779    -0.112    22.655     6.781
    36   6 C        2.992    -0.043    29.058     8.843
    37   6 C        3.004     0.025    27.433     8.592
    38   6 C        3.137     0.004    27.704     8.615
    39   6 C        2.993    -0.006    28.163     8.705
    40   6 C        2.977     0.013    27.718     8.636
    41   6 C        2.923    -0.040    28.997     8.831
    42   6 C        2.919    -0.030    28.745     8.792
    43   6 C        2.968    -0.041    29.007     8.834
    44   6 C        2.965     0.054    26.785     8.489
    45  16 S        2.045    -0.221   150.476    20.646
    46   6 C        3.792    -0.000    20.596     6.463
    47   6 C        3.770    -0.108    22.606     6.776
    48   6 C        2.962    -0.044    29.086     8.846
    49   6 C        3.003     0.030    27.323     8.574
    50  16 S        2.303    -0.073   144.107    20.204
    51   6 C        3.064    -0.059    29.404     8.892
    52   6 C        3.025     0.035    27.186     8.553
    53  16 S        2.326    -0.060   143.534    20.164
    54   6 C        3.034     0.009    27.780     8.645
    55   6 C        3.107    -0.008    28.070     8.681
    56   6 C        2.974     0.010    27.795     8.648
    57   6 C        2.924    -0.039    28.964     8.826
    58   6 C        2.917    -0.033    28.833     8.805
    59   6 C        2.925    -0.039    28.978     8.828
    60   6 C        2.970     0.017    27.622     8.621
    61   6 C        3.807    -0.064    21.728     6.636
    62   6 C        3.753    -0.104    22.546     6.771
    63   6 C        2.930    -0.042    29.048     8.839
    64   6 C        3.199     0.012    27.197     8.499
    65  16 S        2.180    -0.066   143.813    20.184
    66   6 C        3.098     0.001    27.881     8.653
    67   6 C        3.087    -0.044    28.977     8.824
    68   6 C        3.341     0.068    24.045     7.753
    69   6 C        3.340     0.068    24.048     7.755
    70   7 N        1.854    -0.305    28.756     7.948
    71  16 S        2.686     0.283   130.048    19.193
    72   7 N        1.854    -0.305    28.762     7.949
    73   6 C        3.088    -0.043    28.974     8.823
    74   6 C        3.098    -0.000    27.908     8.658
    75  16 S        2.184    -0.071   144.012    20.198
    76   6 C        3.194     0.011    27.256     8.513
    77   6 C        3.110    -0.011    28.149     8.692
    78   6 C        2.975     0.009    27.812     8.651
    79   6 C        2.926    -0.038    28.942     8.822
    80   6 C        2.918    -0.031    28.775     8.796
    81   6 C        2.926    -0.037    28.927     8.820
    82   6 C        2.970     0.015    27.670     8.628
    83   6 C        3.807    -0.059    21.636     6.622
    84   6 C        3.754    -0.106    22.576     6.775
    85   6 C        2.934    -0.039    28.971     8.827
    86   6 C        3.031     0.009    27.782     8.646
    87  16 S        2.272    -0.054   143.311    20.148
    88   6 C        3.123     0.003    27.773     8.630
    89   6 C        3.256     0.027    26.303     8.294
    90   7 N        2.800    -0.019    21.617     6.905
    91   6 C        3.070     0.032    27.226     8.556
    92   6 C        3.070     0.033    27.197     8.551
    93   7 N        2.798    -0.020    21.642     6.909
    94   6 C        3.254     0.027    26.334     8.302
    95   6 C        3.119     0.005    27.739     8.626
    96  16 S        2.322    -0.036   142.559    20.096
    97   6 C        3.744    -0.013    20.886     6.520
    98   6 C        3.752    -0.123    22.921     6.827
    99   6 C        3.744    -0.013    20.879     6.518
   100   6 C        3.752    -0.124    22.942     6.831
   101   6 C        3.027     0.005    27.893     8.663
   102   6 C        3.055     0.045    26.936     8.511
   103   7 N        2.748    -0.059    22.376     7.025
   104   6 C        2.931     0.061    26.637     8.464
   105   6 C        2.926    -0.044    29.103     8.847
   106   6 C        2.951    -0.036    28.894     8.816
   107   6 C        2.967     0.049    26.901     8.508
   108  16 S        2.028    -0.209   149.977    20.612
   109   6 C        3.744    -0.052    21.586     6.628
   110   6 C        2.971    -0.039    28.958     8.827
   111   6 C        2.922    -0.045    29.116     8.849
   112   6 C        2.927     0.058    26.704     8.475
   113   6 C        2.922    -0.046    29.138     8.852
   114   6 C        2.985    -0.041    29.020     8.837
   115   6 C        2.966     0.045    26.986     8.521
   116  16 S        2.034    -0.204   149.754    20.596
   117   6 C        3.744    -0.065    21.820     6.664
   118   6 C        2.942    -0.046    29.140     8.854
   119   6 C        2.925    -0.047    29.178     8.858
   120   6 C        3.159     0.003    27.637     8.595
   121  16 S        2.266    -0.047   142.989    20.126
   122   6 C        2.986     0.001    27.997     8.680
   123   6 C        3.042     0.060    26.614     8.461
   124   7 N        2.748    -0.043    22.081     6.979
   125   6 C        2.929     0.059    26.681     8.471
   126   6 C        2.922    -0.043    29.071     8.842
   127   6 C        2.953    -0.035    28.877     8.814
   128   6 C        2.967     0.052    26.822     8.495
   129  16 S        2.029    -0.204   149.717    20.594
   130   6 C        3.744    -0.059    21.713     6.647
   131   6 C        2.971    -0.038    28.941     8.824
   132   6 C        2.922    -0.043    29.071     8.842
   133   6 C        2.929     0.056    26.740     8.480
   134   6 C        2.929    -0.043    29.059     8.840
   135   6 C        2.945    -0.044    29.082     8.845
   136   6 C        2.966     0.049    26.896     8.507
   137  16 S        2.036    -0.171   148.284    20.495
   138   6 C        3.744    -0.065    21.811     6.662
   139   6 C        2.985    -0.039    28.958     8.827
   140   6 C        2.922    -0.042    29.032     8.836
   141   6 C        3.157    -0.001    27.737     8.611
   142  16 S        2.262    -0.063   143.684    20.175
   143   6 C        2.926    -0.010    28.272     8.720
   144   6 C        3.004    -0.086    30.134     9.005
   145   6 C        2.863     0.224    23.306     7.913
   146   8 O        0.901    -0.438    22.429     6.351
   147   6 C        3.037    -0.021    28.495     8.756
   148   6 C        2.913    -0.017    28.428     8.743
   149   6 C        2.922    -0.025    28.622     8.773
   150   6 C        2.922    -0.025    28.620     8.773
   151   6 C        2.913    -0.018    28.467     8.749
   152   6 C        3.031    -0.022    28.520     8.760
   153   6 C        2.870     0.221    23.350     7.921
   154   8 O        0.856    -0.455    22.814     6.404
   155   1 H        0.925     0.066     2.134     2.284
   156   1 H        0.926     0.068     2.111     2.272
   157   1 H        0.926     0.055     2.255     2.348
   158   1 H        0.925     0.055     2.259     2.350
   159   1 H        0.925     0.042     2.421     2.433
   160   1 H        0.926     0.044     2.392     2.419
   161   1 H        0.926     0.046     2.376     2.411
   162   1 H        0.925     0.045     2.385     2.415
   163   1 H        0.925     0.033     2.538     2.491
   164   1 H        0.925     0.045     2.377     2.411
   165   1 H        0.925     0.057     2.237     2.339
   166   1 H        0.926     0.086     1.915     2.164
   167   1 H        0.926     0.040     2.449     2.447
   168   1 H        0.926     0.048     2.343     2.394
   169   1 H        0.926     0.051     2.313     2.378
   170   1 H        0.925     0.057     2.233     2.337
   171   1 H        0.925     0.069     2.100     2.266
   172   1 H        0.925     0.045     2.385     2.415
   173   1 H        0.925     0.052     2.291     2.367
   174   1 H        0.925     0.057     2.235     2.338
   175   1 H        0.926     0.047     2.354     2.399
   176   1 H        0.926     0.045     2.382     2.413
   177   1 H        0.926     0.050     2.317     2.381
   178   1 H        0.926     0.052     2.296     2.369
   179   1 H        0.925     0.059     2.215     2.327
   180   1 H        0.925     0.053     2.283     2.363
   181   1 H        0.925     0.051     2.304     2.374
   182   1 H        0.925     0.059     2.206     2.322
   183   1 H        0.925     0.042     2.422     2.434
   184   1 H        0.926     0.047     2.357     2.401
   185   1 H        0.926     0.057     2.236     2.339
   186   1 H        0.926     0.031     2.568     2.506
   187   1 H        0.926     0.037     2.484     2.465
   188   1 H        0.926     0.041     2.430     2.438
   189   1 H        0.924     0.046     2.372     2.408
   190   1 H        0.924     0.043     2.412     2.429
   191   1 H        0.925     0.045     2.380     2.413
   192   1 H        0.925     0.039     2.457     2.451
   193   1 H        0.925     0.037     2.487     2.466
   194   1 H        0.926     0.039     2.469     2.457
   195   1 H        0.926     0.035     2.522     2.483
   196   1 H        0.926     0.047     2.355     2.400
   197   1 H        0.926     0.043     2.403     2.424
   198   1 H        0.924     0.043     2.407     2.426
   199   1 H        0.924     0.036     2.505     2.475
   200   1 H        0.925     0.041     2.431     2.438
   201   1 H        0.925     0.037     2.491     2.468
   202   1 H        0.925     0.045     2.390     2.417
   203   1 H        0.926     0.026     2.648     2.545
   204   1 H        0.924     0.081     1.969     2.194
   205   1 H        0.924     0.087     1.908     2.160
   206   1 H        0.925     0.051     2.309     2.376
   207   1 H        0.925     0.071     2.071     2.251
   208   1 H        0.925     0.053     2.286     2.364
   209   1 H        0.924     0.080     1.978     2.199
   210   1 H        0.925     0.088     1.902     2.157
   211   1 H        0.925     0.054     2.271     2.357
   212   1 H        0.925     0.049     2.326     2.385
   213   1 H        0.925     0.072     2.068     2.249
   214   1 H        0.926     0.044     2.395     2.420
   215   1 H        0.926     0.046     2.367     2.406
   216   1 H        0.925     0.061     2.188     2.313
   217   1 H        0.925     0.069     2.098     2.265
   218   1 H        0.925     0.059     2.205     2.322
   219   1 H        0.926     0.053     2.281     2.362
   220   1 H        0.926     0.048     2.340     2.392
   221   1 H        0.926     0.027     2.631     2.537
   222   1 H        0.926     0.041     2.433     2.439
   223   1 H        0.925     0.075     2.028     2.227
   224   1 H        0.925     0.081     1.966     2.193
   225   1 H        0.925     0.074     2.039     2.233
   226   1 H        0.926     0.062     2.177     2.307
   227   1 H        0.926     0.054     2.269     2.356
   228   1 H        0.926     0.057     2.233     2.337
   229   1 H        0.926     0.059     2.206     2.323
   230   1 H        0.925     0.075     2.029     2.227
   231   1 H        0.925     0.067     2.121     2.277
   232   1 H        0.925     0.070     2.085     2.258
   233   1 H        0.926     0.055     2.255     2.348
   234   1 H        0.926     0.046     2.367     2.406
   235   1 H        0.926     0.048     2.346     2.395
   236   1 H        0.926     0.059     2.215     2.327
   237   1 H        0.925     0.071     2.071     2.250
   238   1 H        0.925     0.069     2.093     2.263
   239   1 H        0.925     0.082     1.958     2.188
   240   1 H        0.926     0.056     2.242     2.342
   241   1 H        0.926     0.050     2.324     2.384
   242   1 H        0.925     0.065     2.143     2.289
   243   1 H        0.926     0.061     2.188     2.313
   244   1 H        0.926     0.073     2.055     2.242
   245   1 H        0.926     0.072     2.059     2.244
   246   1 H        0.926     0.062     2.170     2.304

 Mol. C6AA /au·bohr⁶  :    1071283.497234
 Mol. C8AA /au·bohr⁸  :   30867605.237375
 Mol. α(0) /au        :       1663.486174


Wiberg/Mayer (AO) data.
largest (>0.10) Wiberg bond orders for each atom

 ---------------------------------------------------------------------------
     #   Z sym  total        # sym  WBO       # sym  WBO       # sym  WBO
 ---------------------------------------------------------------------------
     1   6 C    3.936 --     2 C    1.527    24 C    1.260   155 H    0.943
     2   6 C    3.944 --     1 C    1.527    11 C    1.134     3 C    1.039
     3   6 C    3.911 --     4 O    1.717     2 C    1.039     5 C    1.032
     4   8 O    2.013 --     3 C    1.717
     5   6 C    3.972 --     6 C    1.378    10 C    1.303     3 C    1.032
     6   6 C    3.978 --     7 C    1.442     5 C    1.378   156 H    0.962
     7   6 C    3.951 --     6 C    1.442     8 C    1.319    23 C    0.994
     8   6 C    3.963 --     9 C    1.450     7 C    1.319    17 C    0.995
     9   6 C    3.976 --     8 C    1.450    10 C    1.361   157 H    0.959
    10   6 C    3.975 --     9 C    1.361     5 C    1.303    11 C    1.095
    11   6 C    3.964 --    12 C    1.467     2 C    1.134    10 C    1.095
    12   6 C    3.945 --    11 C    1.467    13 C    1.103    15 C    1.102
    13   6 C    3.939 --    14 N    2.735    12 C    1.103
    14   7 N    2.949 --    13 C    2.735
    15   6 C    3.940 --    16 N    2.747    12 C    1.102
    16   7 N    2.956 --    15 C    2.747
    17   6 C    3.983 --     8 C    0.995    23 C    0.975   158 H    0.959
                            18 C    0.949
    18   6 C    3.988 --    19 C    1.004    22 C    0.989   159 H    0.970
                            17 C    0.949
    19   6 C    3.980 --    20 C    1.923    18 C    1.004   160 H    0.970
    20   6 C    3.980 --    19 C    1.923    21 C    1.004   161 H    0.970
    21   6 C    3.987 --    20 C    1.004    22 C    0.989   162 H    0.970
                            23 C    0.949
    22   6 C    3.993 --    21 C    0.989    18 C    0.989   164 H    0.978
                           163 H    0.974
    23   6 C    3.981 --     7 C    0.994    17 C    0.975   165 H    0.959
                            21 C    0.949
    24   6 C    3.933 --    25 C    1.459     1 C    1.260    50 S    1.063
    25   6 C    3.937 --    24 C    1.459    26 C    1.285   166 H    0.940
    26   6 C    3.967 --    25 C    1.285    27 C    1.251    49 C    1.222
    27   6 C    3.956 --    37 C    1.414    26 C    1.251    28 C    1.045
    28   6 C    3.986 --    36 C    1.401    29 C    1.369    27 C    1.045
    29   6 C    3.982 --    30 C    1.448    28 C    1.369   167 H    0.968
    30   6 C    3.990 --    29 C    1.448    31 C    1.434   168 H    0.968
                            36 C    0.103
    31   6 C    3.980 --    30 C    1.434    32 C    1.391   169 H    0.963
    32   6 C    3.966 --    31 C    1.391    36 C    1.389    33 S    1.042
    33  16 S    2.233 --    32 C    1.042    34 C    0.979
    34   6 C    3.970 --    35 C    1.027    33 S    0.979   170 H    0.969
                           171 H    0.967
    35   6 C    3.992 --    34 C    1.027   173 H    0.986   172 H    0.984
                           174 H    0.977
    36   6 C    3.982 --    28 C    1.401    32 C    1.389   175 H    0.963
                            30 C    0.103
    37   6 C    3.943 --    27 C    1.414    38 C    1.226    53 S    1.092
    38   6 C    3.963 --    39 C    1.275    51 C    1.251    37 C    1.226
    39   6 C    3.960 --    49 C    1.394    38 C    1.275    40 C    1.044
    40   6 C    3.987 --    48 C    1.387    41 C    1.382    39 C    1.044
    41   6 C    3.985 --    42 C    1.438    40 C    1.382   176 H    0.967
    42   6 C    3.989 --    43 C    1.446    41 C    1.438   177 H    0.966
                            48 C    0.101
    43   6 C    3.981 --    42 C    1.446    44 C    1.384   178 H    0.968
    44   6 C    3.964 --    48 C    1.405    43 C    1.384    45 S    1.034
    45  16 S    2.198 --    44 C    1.034    46 C    0.969
    46   6 C    3.971 --    47 C    1.028   179 H    0.973   180 H    0.970
                            45 S    0.969
    47   6 C    3.993 --    46 C    1.028   181 H    0.986   183 H    0.983
                           182 H    0.974
    48   6 C    3.983 --    44 C    1.405    40 C    1.387   184 H    0.957
                            42 C    0.101
    49   6 C    3.944 --    39 C    1.394    26 C    1.222    50 S    1.112
    50  16 S    2.498 --    49 C    1.112    24 C    1.063
    51   6 C    3.946 --    52 C    1.510    38 C    1.251   185 H    0.949
    52   6 C    3.923 --    51 C    1.510    54 C    1.179    53 S    1.093
    53  16 S    2.502 --    52 C    1.093    37 C    1.092
    54   6 C    3.917 --    55 C    1.431    52 C    1.179    96 S    1.090
    55   6 C    3.955 --    54 C    1.431    64 C    1.269    56 C    1.029
    56   6 C    3.987 --    63 C    1.398    57 C    1.382    55 C    1.029
                            59 C    0.105
    57   6 C    3.989 --    58 C    1.446    56 C    1.382   186 H    0.970
                            60 C    0.106
    58   6 C    3.991 --    57 C    1.446    59 C    1.439   187 H    0.970
                            63 C    0.105
    59   6 C    3.986 --    58 C    1.439    60 C    1.408   188 H    0.969
                            56 C    0.105
    60   6 C    3.986 --    63 C    1.415    59 C    1.408    61 C    1.013
                            57 C    0.106
    61   6 C    3.995 --    60 C    1.013    62 C    1.001   190 H    0.975
                           189 H    0.971
    62   6 C    3.995 --    61 C    1.001   193 H    0.988   192 H    0.986
                           191 H    0.985
    63   6 C    3.986 --    60 C    1.415    56 C    1.398   194 H    0.967
                            58 C    0.105
    64   6 C    3.924 --    95 C    1.346    55 C    1.269    65 S    1.089
    65  16 S    2.501 --    66 C    1.105    64 C    1.089
    66   6 C    3.921 --    94 C    1.316    67 C    1.264    65 S    1.105
    67   6 C    3.957 --    92 C    1.272    66 C    1.264    68 C    1.178
    68   6 C    3.970 --    72 N    1.422    67 C    1.178    69 C    1.159
                            71 S    0.107
    69   6 C    3.970 --    70 N    1.422    73 C    1.178    68 C    1.159
                            71 S    0.107
    70   7 N    3.056 --    69 C    1.422    71 S    1.376    72 N    0.146
    71  16 S    3.088 --    70 N    1.376    72 N    1.375    69 C    0.107
                            68 C    0.107
    72   7 N    3.056 --    68 C    1.422    71 S    1.375    70 N    0.146
    73   6 C    3.957 --    91 C    1.271    74 C    1.266    69 C    1.178
    74   6 C    3.920 --    89 C    1.317    73 C    1.266    75 S    1.102
    75  16 S    2.497 --    74 C    1.102    76 C    1.088
    76   6 C    3.924 --    88 C    1.352    77 C    1.263    75 S    1.088
    77   6 C    3.955 --    86 C    1.428    76 C    1.263    78 C    1.039
    78   6 C    3.987 --    79 C    1.384    85 C    1.380    77 C    1.039
                            81 C    0.102
    79   6 C    3.983 --    80 C    1.444    78 C    1.384   195 H    0.968
                            82 C    0.103
    80   6 C    3.989 --    79 C    1.444    81 C    1.441   196 H    0.968
                            85 C    0.104
    81   6 C    3.982 --    80 C    1.441    82 C    1.403   197 H    0.968
                            78 C    0.102
    82   6 C    3.986 --    85 C    1.422    81 C    1.403    83 C    1.012
                            79 C    0.103
    83   6 C    3.996 --    82 C    1.012    84 C    1.001   199 H    0.975
                           198 H    0.972
    84   6 C    3.995 --    83 C    1.001   201 H    0.988   200 H    0.988
                           202 H    0.986
    85   6 C    3.987 --    82 C    1.422    78 C    1.380   203 H    0.967
                            80 C    0.104
    86   6 C    3.915 --    77 C    1.428   101 C    1.189    87 S    1.074
    87  16 S    2.557 --    88 C    1.118    86 C    1.074
    88   6 C    3.925 --    76 C    1.352    89 C    1.232    87 S    1.118
    89   6 C    3.943 --    74 C    1.317    88 C    1.232    90 N    1.167
    90   7 N    3.566 --    91 C    1.177    89 C    1.167    99 C    0.973
    91   6 C    3.937 --    73 C    1.271    92 C    1.219    90 N    1.177
    92   6 C    3.937 --    67 C    1.272    91 C    1.219    93 N    1.177
    93   7 N    3.563 --    92 C    1.177    94 C    1.164    97 C    0.972
    94   6 C    3.942 --    66 C    1.316    95 C    1.235    93 N    1.164
    95   6 C    3.927 --    64 C    1.346    94 C    1.235    96 S    1.122
    96  16 S    2.554 --    95 C    1.122    54 C    1.090
    97   6 C    3.948 --    98 C    1.007    93 N    0.972   204 H    0.961
                           205 H    0.950
    98   6 C    3.985 --    97 C    1.007   206 H    0.986   208 H    0.982
                           207 H    0.980
    99   6 C    3.949 --   100 C    1.006    90 N    0.973   209 H    0.960
                           210 H    0.950
   100   6 C    3.986 --    99 C    1.006   212 H    0.986   211 H    0.982
                           213 H    0.980
   101   6 C    3.901 --   102 C    1.387    86 C    1.189   142 S    1.084
   102   6 C    3.944 --   101 C    1.387   120 C    1.228   103 N    1.093
   103   7 N    3.500 --   102 C    1.093   112 C    1.052   104 C    1.047
   104   6 C    3.963 --   105 C    1.362   111 C    1.359   103 N    1.047
   105   6 C    3.983 --   106 C    1.452   104 C    1.362   214 H    0.966
   106   6 C    3.989 --   105 C    1.452   107 C    1.393   215 H    0.966
                           111 C    0.100
   107   6 C    3.952 --   106 C    1.393   110 C    1.380   108 S    1.030
   108  16 S    2.193 --   107 C    1.030   109 C    1.001
   109   6 C    3.970 --   108 S    1.001   218 H    0.983   217 H    0.979
                           216 H    0.976
   110   6 C    3.988 --   111 C    1.469   107 C    1.380   219 H    0.967
   111   6 C    3.982 --   110 C    1.469   104 C    1.359   220 H    0.965
                           106 C    0.100
   112   6 C    3.961 --   119 C    1.361   113 C    1.352   103 N    1.052
   113   6 C    3.985 --   114 C    1.477   112 C    1.352   221 H    0.966
   114   6 C    3.989 --   113 C    1.477   115 C    1.366   222 H    0.968
   115   6 C    3.956 --   118 C    1.385   114 C    1.366   116 S    1.048
   116  16 S    2.251 --   115 C    1.048   117 C    1.008
   117   6 C    3.965 --   116 S    1.008   225 H    0.979   223 H    0.978
                           224 H    0.974
   118   6 C    3.987 --   119 C    1.455   115 C    1.385   226 H    0.962
   119   6 C    3.983 --   118 C    1.455   112 C    1.361   227 H    0.965
   120   6 C    3.941 --   141 C    1.341   102 C    1.228   121 S    1.133
   121  16 S    2.633 --   120 C    1.133   122 C    1.064
   122   6 C    3.923 --   143 C    1.364   123 C    1.258   121 S    1.064
   123   6 C    3.953 --   141 C    1.263   122 C    1.258   124 N    1.173
   124   7 N    3.524 --   123 C    1.173   133 C    1.033   125 C    1.014
   125   6 C    3.961 --   126 C    1.377   132 C    1.366   124 N    1.014
   126   6 C    3.983 --   127 C    1.454   125 C    1.377   228 H    0.965
                           131 C    0.100
   127   6 C    3.989 --   126 C    1.454   128 C    1.391   229 H    0.965
                           132 C    0.101
   128   6 C    3.961 --   127 C    1.391   131 C    1.382   129 S    1.037
   129  16 S    2.203 --   128 C    1.037   130 C    0.999
   130   6 C    3.966 --   129 S    0.999   231 H    0.981   232 H    0.978
                           230 H    0.978
   131   6 C    3.988 --   132 C    1.468   128 C    1.382   233 H    0.967
                           126 C    0.100
   132   6 C    3.986 --   131 C    1.468   125 C    1.366   234 H    0.967
                           127 C    0.101
   133   6 C    3.956 --   134 C    1.364   140 C    1.354   124 N    1.033
   134   6 C    3.978 --   135 C    1.448   133 C    1.364   235 H    0.966
   135   6 C    3.986 --   134 C    1.448   136 C    1.386   236 H    0.963
   136   6 C    3.953 --   135 C    1.386   139 C    1.362   137 S    1.061
   137  16 S    2.264 --   136 C    1.061   138 C    1.008
   138   6 C    3.967 --   137 S    1.008   237 H    0.979   238 H    0.979
                           239 H    0.975
   139   6 C    3.988 --   140 C    1.480   136 C    1.362   240 H    0.966
   140   6 C    3.975 --   139 C    1.480   133 C    1.354   241 H    0.965
   141   6 C    3.929 --   120 C    1.341   123 C    1.263   142 S    1.097
   142  16 S    2.563 --   141 C    1.097   101 C    1.084
   143   6 C    3.948 --   144 C    1.444   122 C    1.364   242 H    0.940
   144   6 C    3.943 --   143 C    1.444   145 C    1.113   153 C    1.081
   145   6 C    3.916 --   146 O    1.660   144 C    1.113   147 C    1.008
   146   8 O    2.043 --   145 C    1.660
   147   6 C    3.980 --   148 C    1.430   152 C    1.309   145 C    1.008
   148   6 C    3.980 --   147 C    1.430   149 C    1.411   243 H    0.966
   149   6 C    3.977 --   150 C    1.451   148 C    1.411   244 H    0.967
   150   6 C    3.977 --   149 C    1.451   151 C    1.411   245 H    0.967
   151   6 C    3.981 --   152 C    1.431   150 C    1.411   246 H    0.966
   152   6 C    3.980 --   151 C    1.431   147 C    1.309   153 C    1.008
   153   6 C    3.920 --   154 O    1.697   144 C    1.081   152 C    1.008
   154   8 O    1.989 --   153 C    1.697
   155   1 H    0.995 --     1 C    0.943
   156   1 H    0.995 --     6 C    0.962
   157   1 H    0.996 --     9 C    0.959
   158   1 H    0.995 --    17 C    0.959
   159   1 H    0.998 --    18 C    0.970
   160   1 H    0.998 --    19 C    0.970
   161   1 H    0.998 --    20 C    0.970
   162   1 H    0.998 --    21 C    0.970
   163   1 H    0.999 --    22 C    0.974
   164   1 H    0.998 --    22 C    0.978
   165   1 H    0.994 --    23 C    0.959
   166   1 H    0.992 --    25 C    0.940
   167   1 H    0.998 --    29 C    0.968
   168   1 H    0.997 --    30 C    0.968
   169   1 H    0.997 --    31 C    0.963
   170   1 H    0.997 --    34 C    0.969
   171   1 H    0.995 --    34 C    0.967
   172   1 H    0.998 --    35 C    0.984
   173   1 H    0.997 --    35 C    0.986
   174   1 H    0.996 --    35 C    0.977
   175   1 H    0.998 --    36 C    0.963
   176   1 H    0.997 --    41 C    0.967
   177   1 H    0.996 --    42 C    0.966
   178   1 H    0.997 --    43 C    0.968
   179   1 H    0.996 --    46 C    0.973
   180   1 H    0.997 --    46 C    0.970
   181   1 H    0.997 --    47 C    0.986
   182   1 H    0.996 --    47 C    0.974
   183   1 H    0.998 --    47 C    0.983
   184   1 H    0.998 --    48 C    0.957
   185   1 H    0.996 --    51 C    0.949
   186   1 H    0.998 --    57 C    0.970
   187   1 H    0.998 --    58 C    0.970
   188   1 H    0.998 --    59 C    0.969
   189   1 H    0.997 --    61 C    0.971
   190   1 H    0.998 --    61 C    0.975
   191   1 H    0.997 --    62 C    0.985
   192   1 H    0.998 --    62 C    0.986
   193   1 H    0.999 --    62 C    0.988
   194   1 H    0.998 --    63 C    0.967
   195   1 H    0.998 --    79 C    0.968
   196   1 H    0.996 --    80 C    0.968
   197   1 H    0.998 --    81 C    0.968
   198   1 H    0.998 --    83 C    0.972
   199   1 H    0.998 --    83 C    0.975
   200   1 H    0.998 --    84 C    0.988
   201   1 H    0.999 --    84 C    0.988
   202   1 H    0.997 --    84 C    0.986
   203   1 H    0.999 --    85 C    0.967
   204   1 H    0.993 --    97 C    0.961
   205   1 H    0.990 --    97 C    0.950
   206   1 H    0.997 --    98 C    0.986
   207   1 H    0.994 --    98 C    0.980
   208   1 H    0.997 --    98 C    0.982
   209   1 H    0.993 --    99 C    0.960
   210   1 H    0.990 --    99 C    0.950
   211   1 H    0.996 --   100 C    0.982
   212   1 H    0.997 --   100 C    0.986
   213   1 H    0.994 --   100 C    0.980
   214   1 H    0.998 --   105 C    0.966
   215   1 H    0.997 --   106 C    0.966
   216   1 H    0.996 --   109 C    0.976
   217   1 H    0.995 --   109 C    0.979
   218   1 H    0.996 --   109 C    0.983
   219   1 H    0.997 --   110 C    0.967
   220   1 H    0.997 --   111 C    0.965
   221   1 H    0.999 --   113 C    0.966
   222   1 H    0.998 --   114 C    0.968
   223   1 H    0.994 --   117 C    0.978
   224   1 H    0.993 --   117 C    0.974
   225   1 H    0.994 --   117 C    0.979
   226   1 H    0.996 --   118 C    0.962
   227   1 H    0.997 --   119 C    0.965
   228   1 H    0.997 --   126 C    0.965
   229   1 H    0.996 --   127 C    0.965
   230   1 H    0.994 --   130 C    0.978
   231   1 H    0.995 --   130 C    0.981
   232   1 H    0.995 --   130 C    0.978
   233   1 H    0.996 --   131 C    0.967
   234   1 H    0.998 --   132 C    0.967
   235   1 H    0.998 --   134 C    0.966
   236   1 H    0.996 --   135 C    0.963
   237   1 H    0.994 --   138 C    0.979
   238   1 H    0.995 --   138 C    0.979
   239   1 H    0.993 --   138 C    0.975
   240   1 H    0.996 --   139 C    0.966
   241   1 H    0.997 --   140 C    0.965
   242   1 H    0.995 --   143 C    0.940
   243   1 H    0.996 --   148 C    0.966
   244   1 H    0.994 --   149 C    0.967
   245   1 H    0.994 --   150 C    0.967
   246   1 H    0.996 --   151 C    0.966
 ---------------------------------------------------------------------------

Topologies differ in bond orders
Writing corrected topology to xtbtopo.mol

molecular dipole:
                 x           y           z       tot (Debye)
 q only:        2.723      -1.425      -1.954
   full:        3.028      -2.291      -2.581      11.670
molecular quadrupole (traceless):
                xx          xy          yy          xz          yz          zz
 q only:     -250.107     -22.180     110.541     -78.122      28.594     139.566
  q+dip:     -264.833     -36.962     107.643     -65.422       7.644     157.190
   full:     -272.909     -33.069     114.387     -63.642      -3.019     158.523


           -------------------------------------------------
          | TOTAL ENERGY             -405.410943983001 Eh   |
          | GRADIENT NORM               0.041434595446 Eh/α |
          | HOMO-LUMO GAP               0.367576061430 eV   |
           -------------------------------------------------

------------------------------------------------------------------------
 * finished run on 2022/02/14 at 01:21:55.706     
------------------------------------------------------------------------
 total:
 * wall-time:     0 d,  0 h,  0 min,  1.194 sec
 *  cpu-time:     0 d,  0 h,  0 min,  9.450 sec
 * ratio c/w:     7.917 speedup
 SCF:
 * wall-time:     0 d,  0 h,  0 min,  1.076 sec
 *  cpu-time:     0 d,  0 h,  0 min,  8.588 sec
 * ratio c/w:     7.981 speedup

