      -----------------------------------------------------------      
     |                   =====================                   |     
     |                           x T B                           |     
     |                   =====================                   |     
     |                         S. Grimme                         |     
     |          Mulliken Center for Theoretical Chemistry        |     
     |                    University of Bonn                     |     
      -----------------------------------------------------------      

   * xtb version 6.4.1 (unknown) compiled by 'oda6@login1.crc.pitt.edu' on 2021-06-25

   xtb is free software: you can redistribute it and/or modify it under
   the terms of the GNU Lesser General Public License as published by
   the Free Software Foundation, either version 3 of the License, or
   (at your option) any later version.
   
   xtb is distributed in the hope that it will be useful,
   but WITHOUT ANY WARRANTY; without even the implied warranty of
   MERCHANTABILITY or FITNESS FOR A PARTICULAR PURPOSE.  See the
   GNU Lesser General Public License for more details.
   
   Cite this work as:
   * C. Bannwarth, E. Caldeweyher, S. Ehlert, A. Hansen, P. Pracht,
     J. Seibert, S. Spicher, S. Grimme, WIREs Comput. Mol. Sci., 2020, 11,
     e01493. DOI: 10.1002/wcms.1493
   
   for GFN2-xTB:
   * C. Bannwarth, S. Ehlert and S. Grimme., J. Chem. Theory Comput., 2019,
     15, 1652-1671. DOI: 10.1021/acs.jctc.8b01176
   for GFN1-xTB:
   * S. Grimme, C. Bannwarth, P. Shushkov, J. Chem. Theory Comput., 2017,
     13, 1989-2009. DOI: 10.1021/acs.jctc.7b00118
   for GFN0-xTB:
   * P. Pracht, E. Caldeweyher, S. Ehlert, S. Grimme, ChemRxiv, 2019, preprint.
     DOI: 10.26434/chemrxiv.8326202.v1
   for GFN-FF:
   * S. Spicher and S. Grimme, Angew. Chem. Int. Ed., 2020, 59, 15665-15673.
     DOI: 10.1002/anie.202004239
   
   for DFT-D4:
   * E. Caldeweyher, C. Bannwarth and S. Grimme, J. Chem. Phys., 2017,
     147, 034112. DOI: 10.1063/1.4993215
   * E. Caldeweyher, S. Ehlert, A. Hansen, H. Neugebauer, S. Spicher,
     C. Bannwarth and S. Grimme, J. Chem. Phys., 2019, 150, 154122.
     DOI: 10.1063/1.5090222
   * E. Caldeweyher, J.-M. Mewes, S. Ehlert and S. Grimme, Phys. Chem. Chem. Phys.
     2020, 22, 8499-8512. DOI: 10.1039/D0CP00502A
   
   for sTDA-xTB:
   * S. Grimme and C. Bannwarth, J. Chem. Phys., 2016, 145, 054103.
     DOI: 10.1063/1.4959605
   
   in the mass-spec context:
   * V. Asgeirsson, C. Bauer and S. Grimme, Chem. Sci., 2017, 8, 4879.
     DOI: 10.1039/c7sc00601b
   * J. Koopman and S. Grimme, ACS Omega 2019, 4, 12, 15120-15133.
     DOI: 10.1021/acsomega.9b02011
   
   for metadynamics refer to:
   * S. Grimme, J. Chem. Theory Comput., 2019, 155, 2847-2862
     DOI: 10.1021/acs.jctc.9b00143
   
   for SPH calculations refer to:
   * S. Spicher and S. Grimme, J. Chem. Theory Comput., 2021, 17, 1701-1714
     DOI: 10.1021/acs.jctc.0c01306
   
   with help from (in alphabetical order)
   P. Atkinson, C. Bannwarth, F. Bohle, G. Brandenburg, E. Caldeweyher
   M. Checinski, S. Dohm, S. Ehlert, S. Ehrlich, I. Gerasimov, J. Koopman
   C. Lavigne, S. Lehtola, F. März, M. Müller, F. Musil, H. Neugebauer
   J. Pisarek, C. Plett, P. Pracht, J. Seibert, P. Shushkov, S. Spicher
   M. Stahn, M. Steiner, T. Strunk, J. Stückrath, T. Rose, and J. Unsleber
   
 * started run on 2022/02/08 at 04:07:25.466     

           -------------------------------------------------
          |                Calculation Setup                |
           -------------------------------------------------

          program call               : /ihome/ghutchison/oda6/xtb/xtb-641/bin/xtb ../../GFN2_output/49_28_100_83_49.mol --sp --alpb water
          hostname                   : smp-n26
          coordinate file            : ../../GFN2_output/49_28_100_83_49.mol
          omp threads                :                     8
          number of atoms            :                   231
          number of electrons        :                   712
          charge                     :                     0
          spin                       :                   0.0
          first test random number   :      0.86769033910412

   ID    Z sym.   atoms
    1    6 C      1-3, 5-8, 10-14, 16, 18, 19, 21-35, 37, 38, 40-54, 56-66,
                  68-71, 75, 76, 78-88, 90, 91, 93, 94, 96, 97, 99-107,
                  109-114, 116-119, 121-126, 128-133, 135-138, 140-144, 146
    2    8 O      4, 115, 127, 134
    3   35 Br     9, 139
    4    7 N      15, 17, 20, 39, 72, 74, 92, 95, 108, 120, 145, 147
    5   16 S      36, 55, 67, 73, 77, 89, 98
    6    1 H      148-231

           -------------------------------------------------
          |                 G F N 2 - x T B                 |
           -------------------------------------------------

        Reference                      10.1021/acs.jctc.8b01176
      * Hamiltonian:
        H0-scaling (s, p, d)           1.850000    2.230000    2.230000
        zeta-weighting                 0.500000
      * Dispersion:
        s8                             2.700000
        a1                             0.520000
        a2                             5.000000
        s9                             5.000000
      * Repulsion:
        kExp                           1.500000    1.000000
        rExp                           1.000000
      * Coulomb:
        alpha                          2.000000
        third order                    shell-resolved
        anisotropic                    true
        a3                             3.000000
        a5                             4.000000
        cn-shift                       1.200000
        cn-exp                         4.000000
        max-rad                        5.000000

      * Solvation model:               ALPB
        Solvent                        water
        Parameter file                 internal GFN2-xTB/ALPB
        Dielectric constant                8.0200E+01
        Reference state                gsolv [1 M gas/solution]
        Free energy shift                  1.0808E-03 Eh       6.7819E-01 kcal/mol
        Temperature                        2.9815E+02 K
        Density                            1.0000E+00 kg/L
        Solvent mass                       1.8000E+01 g/mol
        Interaction kernel             P16
        Born radius scaling (c1)           1.4744E+00
        Born radii integrator          GBOBC
        Born offset                        0.0000E+00 a0       0.0000E+00 AA
        H-bond correction              true
        Ion screening                  false
        Surface tension                    1.0000E-05 Eh       1.5569E+01 dyn/cm
        Grid points                               230 per atom

          ...................................................
          :                      SETUP                      :
          :.................................................:
          :  # basis functions                 726          :
          :  # atomic orbitals                 717          :
          :  # shells                          387          :
          :  # electrons                       712          :
          :  max. iterations                   250          :
          :  Hamiltonian                  GFN2-xTB          :
          :  restarted?                      false          :
          :  GBSA solvation                   true          :
          :  PC potential                    false          :
          :  electronic temp.          300.0000000     K    :
          :  accuracy                    1.0000000          :
          :  -> integral cutoff          0.2500000E+02      :
          :  -> integral neglect         0.1000000E-07      :
          :  -> SCF convergence          0.1000000E-05 Eh   :
          :  -> wf. convergence          0.1000000E-03 e    :
          :  Broyden damping             0.4000000          :
          ...................................................

 iter      E             dE          RMSdq      gap      omega  full diag
   1   -392.2858499 -0.392286E+03  0.462E+00    0.20       0.0  T
   2   -392.6124478 -0.326598E+00  0.283E+00    0.55       1.0  T
   3   -392.4388346  0.173613E+00  0.141E+00    0.38       1.0  T
   4   -392.7108167 -0.271982E+00  0.493E-01    0.45       1.0  T
   5   -392.7442406 -0.334240E-01  0.191E-01    0.41       1.0  T
   6   -392.7470482 -0.280758E-02  0.103E-01    0.43       1.0  T
   7   -392.7476496 -0.601344E-03  0.559E-02    0.43       1.0  T
   8   -392.7477700 -0.120427E-03  0.391E-02    0.43       1.0  T
   9   -392.7478064 -0.363990E-04  0.282E-02    0.43       1.0  T
  10   -392.7478388 -0.324453E-04  0.162E-02    0.43       1.0  T
  11   -392.7478575 -0.186317E-04  0.822E-03    0.43       1.0  T
  12   -392.7478606 -0.316159E-05  0.394E-03    0.43       1.7  T
  13   -392.7478616 -0.960240E-06  0.192E-03    0.43       3.4  T
  14   -392.7478618 -0.188626E-06  0.107E-03    0.43       6.1  T
  15   -392.7478618 -0.453794E-07  0.627E-04    0.43      10.5  T
  16   -392.7478618 -0.179602E-07  0.367E-04    0.43      17.9  T

   *** convergence criteria satisfied after 16 iterations ***

         #    Occupation            Energy/Eh            Energy/eV
      -------------------------------------------------------------
         1        2.0000           -0.8566081             -23.3095
       ...           ...                  ...                  ...
       350        2.0000           -0.3803732             -10.3505
       351        2.0000           -0.3796002             -10.3294
       352        2.0000           -0.3732086             -10.1555
       353        2.0000           -0.3680434             -10.0150
       354        2.0000           -0.3660961              -9.9620
       355        2.0000           -0.3648760              -9.9288
       356        1.9995           -0.3529518              -9.6043 (HOMO)
       357        0.0005           -0.3372477              -9.1770 (LUMO)
       358        0.0000           -0.3300816              -8.9820
       359                         -0.3280985              -8.9280
       360                         -0.3194988              -8.6940
       361                         -0.3029719              -8.2443
       ...                                ...                  ...
       717                          1.1545060              31.4157
      -------------------------------------------------------------
                  HL-Gap            0.0157041 Eh            0.4273 eV
             Fermi-level           -0.3451001 Eh           -9.3907 eV

 SCC (total)                   0 d,  0 h,  0 min,  1.054 sec
 SCC setup                      ...        0 min,  0.010 sec (  0.970%)
 Dispersion                     ...        0 min,  0.012 sec (  1.161%)
 classical contributions        ...        0 min,  0.000 sec (  0.042%)
 integral evaluation            ...        0 min,  0.048 sec (  4.575%)
 iterations                     ...        0 min,  0.810 sec ( 76.893%)
 molecular gradient             ...        0 min,  0.166 sec ( 15.796%)
 printout                       ...        0 min,  0.006 sec (  0.554%)

         :::::::::::::::::::::::::::::::::::::::::::::::::::::
         ::                     SUMMARY                     ::
         :::::::::::::::::::::::::::::::::::::::::::::::::::::
         :: total energy            -386.434507863893 Eh    ::
         :: total w/o Gsasa/hb      -386.409494301889 Eh    ::
         :: gradient norm              0.041673647011 Eh/a0 ::
         :: HOMO-LUMO gap              0.427329681275 eV    ::
         ::.................................................::
         :: SCC energy              -392.747861840186 Eh    ::
         :: -> isotropic ES            0.226946599935 Eh    ::
         :: -> anisotropic ES          0.016050216256 Eh    ::
         :: -> anisotropic XC          0.226027718760 Eh    ::
         :: -> dispersion             -0.405265164437 Eh    ::
         :: -> Gsolv                  -0.069437160177 Eh    ::
         ::    -> Gelec               -0.044423598173 Eh    ::
         ::    -> Gsasa               -0.017636229026 Eh    ::
         ::    -> Ghb                 -0.008458092676 Eh    ::
         ::    -> Gshift               0.001080759698 Eh    ::
         :: repulsion energy           6.304210512612 Eh    ::
         :: add. restraining           0.000000000000 Eh    ::
         :: total charge               0.000000000000 e     ::
         :::::::::::::::::::::::::::::::::::::::::::::::::::::

           -------------------------------------------------
          |                Property Printout                |
           -------------------------------------------------

    * Orbital Energies and Occupations

         #    Occupation            Energy/Eh            Energy/eV
      -------------------------------------------------------------
         1        2.0000           -0.8566081             -23.3095
       ...           ...                  ...                  ...
       344        2.0000           -0.3977839             -10.8242
       345        2.0000           -0.3965668             -10.7911
       346        2.0000           -0.3943020             -10.7295
       347        2.0000           -0.3934552             -10.7065
       348        2.0000           -0.3870968             -10.5334
       349        2.0000           -0.3815178             -10.3816
       350        2.0000           -0.3803732             -10.3505
       351        2.0000           -0.3796002             -10.3294
       352        2.0000           -0.3732086             -10.1555
       353        2.0000           -0.3680434             -10.0150
       354        2.0000           -0.3660961              -9.9620
       355        2.0000           -0.3648760              -9.9288
       356        1.9995           -0.3529518              -9.6043 (HOMO)
       357        0.0005           -0.3372477              -9.1770 (LUMO)
       358        0.0000           -0.3300816              -8.9820
       359                         -0.3280985              -8.9280
       360                         -0.3194988              -8.6940
       361                         -0.3029719              -8.2443
       362                         -0.2999966              -8.1633
       363                         -0.2857140              -7.7747
       364                         -0.2756785              -7.5016
       365                         -0.2703782              -7.3574
       366                         -0.2669449              -7.2639
       367                         -0.2625048              -7.1431
       ...                                ...                  ...
       717                          1.1545060              31.4157
      -------------------------------------------------------------
                  HL-Gap            0.0157041 Eh            0.4273 eV
             Fermi-level           -0.3451001 Eh           -9.3907 eV

     #   Z          covCN         q      C6AA      α(0)
     1   6 C        2.932    -0.015    28.391     8.738
     2   6 C        3.015    -0.049    29.205     8.865
     3   6 C        2.875     0.228    23.214     7.898
     4   8 O        0.856    -0.437    22.445     6.352
     5   6 C        3.042    -0.021    28.491     8.755
     6   6 C        2.915    -0.019    28.473     8.750
     7   6 C        2.998    -0.036    28.875     8.815
     8   6 C        2.920     0.092    25.952     8.354
     9  35 Br       1.080    -0.166   189.637    22.204
    10   6 C        2.992    -0.035    28.849     8.811
    11   6 C        3.045     0.011    27.735     8.638
    12   6 C        3.022     0.034    27.216     8.557
    13   6 C        2.948    -0.004    28.134     8.700
    14   6 C        1.938     0.131    27.891     8.529
    15   7 N        0.911    -0.289    27.457     7.578
    16   6 C        1.943     0.134    27.816     8.517
    17   7 N        0.911    -0.296    27.634     7.603
    18   6 C        2.988     0.003    27.941     8.671
    19   6 C        3.038     0.068    26.442     8.434
    20   7 N        2.748    -0.037    21.957     6.959
    21   6 C        2.929     0.055    26.762     8.484
    22   6 C        2.919    -0.047    29.167     8.856
    23   6 C        2.926    -0.040    28.998     8.831
    24   6 C        2.966     0.020    27.561     8.611
    25   6 C        3.758    -0.126    22.960     6.832
    26   6 C        2.926    -0.041    29.031     8.836
    27   6 C        2.920    -0.045    29.118     8.849
    28   6 C        2.933     0.056    26.738     8.480
    29   6 C        2.922    -0.043    29.062     8.841
    30   6 C        2.925    -0.038    28.945     8.823
    31   6 C        2.966     0.024    27.476     8.598
    32   6 C        3.758    -0.125    22.948     6.830
    33   6 C        2.926    -0.041    29.018     8.834
    34   6 C        2.920    -0.043    29.058     8.840
    35   6 C        3.161    -0.003    27.766     8.614
    36  16 S        2.263    -0.022   141.972    20.054
    37   6 C        3.031     0.002    27.939     8.670
    38   6 C        3.054     0.048    26.878     8.502
    39   7 N        2.748    -0.068    22.549     7.053
    40   6 C        2.925     0.058    26.709     8.475
    41   6 C        2.921    -0.049    29.216     8.864
    42   6 C        2.925    -0.042    29.044     8.838
    43   6 C        2.966     0.011    27.761     8.642
    44   6 C        3.758    -0.122    22.894     6.822
    45   6 C        2.925    -0.043    29.057     8.840
    46   6 C        2.921    -0.051    29.276     8.873
    47   6 C        2.929     0.058    26.701     8.474
    48   6 C        2.920    -0.047    29.158     8.855
    49   6 C        2.925    -0.040    29.002     8.832
    50   6 C        2.965     0.013    27.731     8.638
    51   6 C        3.758    -0.123    22.906     6.823
    52   6 C        2.925    -0.043    29.080     8.843
    53   6 C        2.920    -0.049    29.215     8.864
    54   6 C        3.176     0.015    27.275     8.529
    55  16 S        2.245    -0.081   144.416    20.226
    56   6 C        3.036     0.010    27.762     8.642
    57   6 C        3.108    -0.004    27.988     8.668
    58   6 C        2.979     0.004    27.930     8.669
    59   6 C        2.928    -0.036    28.886     8.814
    60   6 C        2.919    -0.037    28.925     8.819
    61   6 C        2.919    -0.032    28.807     8.801
    62   6 C        2.927    -0.039    28.972     8.827
    63   6 C        2.972     0.014    27.702     8.633
    64   6 C        3.807    -0.063    21.708     6.633
    65   6 C        3.753    -0.102    22.503     6.764
    66   6 C        3.192     0.011    27.261     8.515
    67  16 S        2.183    -0.059   143.481    20.160
    68   6 C        3.104     0.001    27.865     8.650
    69   6 C        3.073    -0.039    28.901     8.814
    70   6 C        3.335     0.068    24.152     7.785
    71   6 C        3.334     0.069    24.157     7.788
    72   7 N        1.853    -0.303    28.696     7.940
    73  16 S        2.677     0.292   129.713    19.169
    74   7 N        1.853    -0.300    28.637     7.931
    75   6 C        3.072    -0.041    28.941     8.821
    76   6 C        3.102     0.007    27.745     8.631
    77  16 S        2.172    -0.067   143.834    20.185
    78   6 C        3.186     0.014    27.232     8.515
    79   6 C        3.103     0.003    27.825     8.644
    80   6 C        2.979     0.005    27.917     8.667
    81   6 C        2.972     0.011    27.767     8.644
    82   6 C        3.806    -0.058    21.618     6.619
    83   6 C        3.753    -0.104    22.551     6.772
    84   6 C        2.926    -0.040    28.995     8.830
    85   6 C        2.918    -0.036    28.886     8.813
    86   6 C        2.919    -0.037    28.919     8.819
    87   6 C        2.925    -0.036    28.904     8.817
    88   6 C        3.001     0.015    27.656     8.627
    89  16 S        2.583    -0.040   142.708    20.106
    90   6 C        3.111    -0.000    27.885     8.651
    91   6 C        3.258     0.033    26.136     8.263
    92   7 N        2.792    -0.026    21.751     6.927
    93   6 C        3.102     0.034    27.105     8.531
    94   6 C        3.101     0.031    27.173     8.542
    95   7 N        2.791    -0.032    21.856     6.944
    96   6 C        3.259     0.033    26.132     8.261
    97   6 C        3.122     0.005    27.736     8.625
    98  16 S        2.257    -0.036   142.558    20.095
    99   6 C        3.743    -0.012    20.863     6.516
   100   6 C        3.752    -0.119    22.842     6.816
   101   6 C        3.741    -0.009    20.819     6.510
   102   6 C        3.752    -0.120    22.866     6.819
   103   6 C        3.007     0.011    27.751     8.641
   104   6 C        2.916    -0.040    28.998     8.830
   105   6 C        2.914    -0.029    28.720     8.788
   106   6 C        2.963    -0.000    28.030     8.684
   107   6 C        2.968     0.078    26.254     8.405
   108   7 N        1.857    -0.250    27.377     7.755
   109   6 C        2.947     0.094    25.903     8.347
   110   6 C        2.984     0.008    27.840     8.655
   111   6 C        2.920    -0.043    29.068     8.841
   112   6 C        2.920    -0.034    28.850     8.808
   113   6 C        2.918    -0.064    29.593     8.921
   114   6 C        2.859     0.151    24.717     8.149
   115   8 O        1.706    -0.300    18.999     5.885
   116   6 C        3.689     0.075    19.507     6.321
   117   6 C        3.750    -0.128    23.021     6.843
   118   6 C        2.930    -0.048    29.204     8.863
   119   6 C        2.945     0.088    26.034     8.368
   120   7 N        2.192    -0.201    25.856     7.546
   121   6 C        2.967     0.072    26.378     8.424
   122   6 C        2.984     0.006    27.876     8.661
   123   6 C        2.921    -0.042    29.035     8.836
   124   6 C        2.919    -0.032    28.787     8.798
   125   6 C        2.921    -0.058    29.439     8.898
   126   6 C        2.859     0.150    24.747     8.154
   127   8 O        1.705    -0.295    18.908     5.871
   128   6 C        3.689     0.072    19.558     6.330
   129   6 C        3.750    -0.125    22.970     6.835
   130   6 C        2.925    -0.061    29.514     8.909
   131   6 C        2.910    -0.009    28.233     8.713
   132   6 C        2.999    -0.037    28.905     8.819
   133   6 C        2.865     0.233    23.120     7.882
   134   8 O        0.856    -0.419    22.068     6.298
   135   6 C        3.044    -0.018    28.405     8.741
   136   6 C        2.915    -0.016    28.417     8.741
   137   6 C        2.998    -0.033    28.815     8.805
   138   6 C        2.919     0.093    25.928     8.350
   139  35 Br       1.080    -0.163   189.560    22.199
   140   6 C        2.993    -0.034    28.848     8.811
   141   6 C        3.032     0.012    27.713     8.635
   142   6 C        3.021     0.035    27.193     8.554
   143   6 C        2.947     0.007    27.874     8.659
   144   6 C        1.949     0.131    27.866     8.525
   145   7 N        0.911    -0.269    26.966     7.510
   146   6 C        1.952     0.134    27.801     8.515
   147   7 N        0.911    -0.278    27.183     7.541
   148   1 H        0.925     0.070     2.090     2.261
   149   1 H        0.926     0.082     1.957     2.187
   150   1 H        0.926     0.083     1.950     2.183
   151   1 H        0.926     0.066     2.129     2.282
   152   1 H        0.926     0.041     2.432     2.439
   153   1 H        0.926     0.041     2.440     2.443
   154   1 H        0.924     0.061     2.188     2.313
   155   1 H        0.925     0.062     2.171     2.304
   156   1 H        0.925     0.053     2.281     2.362
   157   1 H        0.926     0.054     2.271     2.357
   158   1 H        0.926     0.049     2.329     2.386
   159   1 H        0.926     0.038     2.479     2.462
   160   1 H        0.926     0.050     2.324     2.384
   161   1 H        0.925     0.061     2.184     2.311
   162   1 H        0.925     0.067     2.121     2.278
   163   1 H        0.925     0.055     2.257     2.349
   164   1 H        0.926     0.056     2.244     2.343
   165   1 H        0.926     0.046     2.375     2.410
   166   1 H        0.926     0.043     2.405     2.425
   167   1 H        0.926     0.048     2.349     2.397
   168   1 H        0.925     0.055     2.261     2.351
   169   1 H        0.925     0.052     2.301     2.372
   170   1 H        0.925     0.055     2.264     2.353
   171   1 H        0.926     0.037     2.491     2.468
   172   1 H        0.926     0.022     2.703     2.571
   173   1 H        0.926     0.027     2.622     2.532
   174   1 H        0.926     0.027     2.633     2.537
   175   1 H        0.925     0.056     2.245     2.343
   176   1 H        0.925     0.049     2.338     2.391
   177   1 H        0.924     0.062     2.174     2.306
   178   1 H        0.926     0.044     2.395     2.420
   179   1 H        0.926     0.042     2.422     2.433
   180   1 H        0.926     0.028     2.613     2.528
   181   1 H        0.926     0.039     2.469     2.457
   182   1 H        0.926     0.041     2.442     2.444
   183   1 H        0.926     0.048     2.345     2.395
   184   1 H        0.924     0.047     2.354     2.399
   185   1 H        0.925     0.042     2.424     2.435
   186   1 H        0.925     0.039     2.466     2.456
   187   1 H        0.925     0.032     2.565     2.505
   188   1 H        0.925     0.048     2.348     2.396
   189   1 H        0.924     0.031     2.570     2.507
   190   1 H        0.924     0.044     2.396     2.421
   191   1 H        0.925     0.036     2.499     2.472
   192   1 H        0.925     0.044     2.400     2.423
   193   1 H        0.925     0.042     2.416     2.431
   194   1 H        0.926     0.043     2.414     2.429
   195   1 H        0.926     0.042     2.427     2.436
   196   1 H        0.926     0.042     2.424     2.435
   197   1 H        0.926     0.035     2.514     2.479
   198   1 H        0.925     0.083     1.947     2.182
   199   1 H        0.924     0.079     1.987     2.204
   200   1 H        0.925     0.068     2.108     2.271
   201   1 H        0.925     0.049     2.336     2.390
   202   1 H        0.925     0.048     2.344     2.394
   203   1 H        0.925     0.084     1.943     2.180
   204   1 H        0.924     0.075     2.033     2.230
   205   1 H        0.925     0.050     2.323     2.383
   206   1 H        0.925     0.050     2.326     2.385
   207   1 H        0.925     0.071     2.079     2.255
   208   1 H        0.926     0.061     2.191     2.315
   209   1 H        0.926     0.088     1.896     2.153
   210   1 H        0.926     0.042     2.428     2.437
   211   1 H        0.926     0.059     2.216     2.328
   212   1 H        0.926     0.056     2.245     2.343
   213   1 H        0.924     0.058     2.218     2.329
   214   1 H        0.924     0.040     2.443     2.444
   215   1 H        0.925     0.056     2.241     2.341
   216   1 H        0.925     0.055     2.255     2.348
   217   1 H        0.925     0.061     2.186     2.312
   218   1 H        0.926     0.047     2.361     2.403
   219   1 H        0.926     0.037     2.495     2.470
   220   1 H        0.926     0.059     2.210     2.325
   221   1 H        0.926     0.066     2.129     2.282
   222   1 H        0.924     0.042     2.429     2.437
   223   1 H        0.924     0.066     2.127     2.281
   224   1 H        0.925     0.045     2.386     2.416
   225   1 H        0.925     0.057     2.232     2.336
   226   1 H        0.925     0.057     2.235     2.338
   227   1 H        0.926     0.051     2.311     2.377
   228   1 H        0.925     0.083     1.944     2.181
   229   1 H        0.926     0.089     1.887     2.148
   230   1 H        0.926     0.087     1.904     2.158
   231   1 H        0.926     0.068     2.107     2.270

 Mol. C6AA /au·bohr⁶  :     902535.608151
 Mol. C8AA /au·bohr⁸  :   25161903.503551
 Mol. α(0) /au        :       1519.946877


Wiberg/Mayer (AO) data.
largest (>0.10) Wiberg bond orders for each atom

 ---------------------------------------------------------------------------
     #   Z sym  total        # sym  WBO       # sym  WBO       # sym  WBO
 ---------------------------------------------------------------------------
     1   6 C    3.942 --     2 C    1.434    18 C    1.352   148 H    0.943
     2   6 C    3.952 --     1 C    1.434    12 C    1.183     3 C    1.052
     3   6 C    3.909 --     4 O    1.715     2 C    1.052     5 C    1.011
     4   8 O    1.987 --     3 C    1.715
     5   6 C    3.975 --     6 C    1.424    11 C    1.297     3 C    1.011
     6   6 C    3.975 --     5 C    1.424     7 C    1.416   149 H    0.961
     7   6 C    3.968 --     6 C    1.416     8 C    1.414   150 H    0.964
     8   6 C    3.928 --     7 C    1.414    10 C    1.388     9 Br   0.987
     9  35 Br   1.117 --     8 C    0.987
    10   6 C    3.971 --    11 C    1.417     8 C    1.388   151 H    0.961
    11   6 C    3.983 --    10 C    1.417     5 C    1.297    12 C    1.064
    12   6 C    3.954 --    13 C    1.432     2 C    1.183    11 C    1.064
    13   6 C    3.953 --    12 C    1.432    14 C    1.115    16 C    1.109
    14   6 C    3.940 --    15 N    2.729    13 C    1.115
    15   7 N    2.951 --    14 C    2.729
    16   6 C    3.940 --    17 N    2.729    13 C    1.109
    17   7 N    2.962 --    16 C    2.729
    18   6 C    3.916 --     1 C    1.352    19 C    1.266    55 S    1.055
    19   6 C    3.956 --    18 C    1.266    35 C    1.237    20 N    1.204
    20   7 N    3.528 --    19 C    1.204    28 C    1.023    21 C    1.009
    21   6 C    3.956 --    27 C    1.380    22 C    1.378    20 N    1.009
    22   6 C    3.986 --    23 C    1.457    21 C    1.378   152 H    0.960
                            26 C    0.106
    23   6 C    3.989 --    22 C    1.457    24 C    1.400   153 H    0.968
                            27 C    0.102
    24   6 C    3.979 --    26 C    1.402    23 C    1.400    25 C    1.030
    25   6 C    3.993 --    24 C    1.030   156 H    0.983   155 H    0.976
                           154 H    0.963
    26   6 C    3.989 --    27 C    1.455    24 C    1.402   157 H    0.967
                            22 C    0.106
    27   6 C    3.980 --    26 C    1.455    21 C    1.380   158 H    0.967
                            23 C    0.102
    28   6 C    3.953 --    29 C    1.371    34 C    1.366    20 N    1.023
    29   6 C    3.979 --    30 C    1.448    28 C    1.371   159 H    0.967
                            33 C    0.103
    30   6 C    3.987 --    29 C    1.448    31 C    1.406   160 H    0.966
                            34 C    0.102
    31   6 C    3.969 --    30 C    1.406    33 C    1.391    32 C    1.031
    32   6 C    3.992 --    31 C    1.031   163 H    0.983   161 H    0.972
                           162 H    0.964
    33   6 C    3.988 --    34 C    1.467    31 C    1.391   164 H    0.967
                            29 C    0.103
    34   6 C    3.972 --    33 C    1.467    28 C    1.366   165 H    0.967
                            30 C    0.102
    35   6 C    3.932 --    54 C    1.353    19 C    1.237    36 S    1.109
    36  16 S    2.581 --    35 C    1.109    37 C    1.100
    37   6 C    3.901 --    38 C    1.381    56 C    1.176    36 S    1.100
    38   6 C    3.950 --    37 C    1.381    54 C    1.238    39 N    1.097
    39   7 N    3.492 --    38 C    1.097    40 C    1.048    47 C    1.039
    40   6 C    3.961 --    41 C    1.367    46 C    1.363    39 N    1.048
    41   6 C    3.984 --    42 C    1.453    40 C    1.367   166 H    0.967
                            45 C    0.104
    42   6 C    3.989 --    41 C    1.453    43 C    1.405   167 H    0.966
                            46 C    0.101
    43   6 C    3.980 --    42 C    1.405    45 C    1.395    44 C    1.028
    44   6 C    3.994 --    43 C    1.028   169 H    0.985   168 H    0.972
                           170 H    0.970
    45   6 C    3.990 --    46 C    1.464    43 C    1.395   171 H    0.969
                            41 C    0.104
    46   6 C    3.985 --    45 C    1.464    40 C    1.363   172 H    0.965
                            42 C    0.101
    47   6 C    3.963 --    53 C    1.372    48 C    1.367    39 N    1.039
    48   6 C    3.985 --    49 C    1.458    47 C    1.367   173 H    0.968
                            52 C    0.102
    49   6 C    3.991 --    48 C    1.458    50 C    1.399   174 H    0.970
                            53 C    0.105
    50   6 C    3.977 --    52 C    1.402    49 C    1.399    51 C    1.030
    51   6 C    3.991 --    50 C    1.030   176 H    0.984   177 H    0.965
                           175 H    0.962
    52   6 C    3.989 --    53 C    1.457    50 C    1.402   178 H    0.968
                            48 C    0.102
    53   6 C    3.983 --    52 C    1.457    47 C    1.372   179 H    0.967
                            49 C    0.105
    54   6 C    3.932 --    35 C    1.353    38 C    1.238    55 S    1.107
    55  16 S    2.519 --    54 C    1.107    18 C    1.055
    56   6 C    3.914 --    57 C    1.442    37 C    1.176    98 S    1.080
    57   6 C    3.956 --    56 C    1.442    66 C    1.266    58 C    1.020
    58   6 C    3.986 --    59 C    1.391    63 C    1.368    57 C    1.020
                            61 C    0.105
    59   6 C    3.989 --    60 C    1.448    58 C    1.391   180 H    0.967
                            62 C    0.108
    60   6 C    3.990 --    59 C    1.448    61 C    1.429   181 H    0.970
                            63 C    0.106
    61   6 C    3.988 --    62 C    1.445    60 C    1.429   182 H    0.969
                            58 C    0.105
    62   6 C    3.989 --    61 C    1.445    63 C    1.414   183 H    0.966
                            59 C    0.108
    63   6 C    3.983 --    62 C    1.414    58 C    1.368    64 C    1.014
                            60 C    0.106
    64   6 C    3.996 --    63 C    1.014    65 C    1.000   184 H    0.974
                           185 H    0.966
    65   6 C    3.994 --    64 C    1.000   186 H    0.987   188 H    0.985
                           187 H    0.983
    66   6 C    3.922 --    97 C    1.346    57 C    1.266    67 S    1.089
    67  16 S    2.503 --    68 C    1.107    66 C    1.089
    68   6 C    3.918 --    96 C    1.319    69 C    1.258    67 S    1.107
    69   6 C    3.953 --    94 C    1.278    68 C    1.258    70 C    1.175
    70   6 C    3.969 --    74 N    1.428    69 C    1.175    71 C    1.154
                            73 S    0.108
    71   6 C    3.969 --    72 N    1.427    75 C    1.176    70 C    1.154
                            73 S    0.107
    72   7 N    3.058 --    71 C    1.427    73 S    1.375    74 N    0.144
    73  16 S    3.081 --    74 N    1.376    72 N    1.375    70 C    0.108
                            71 C    0.107
    74   7 N    3.058 --    70 C    1.428    73 S    1.376    72 N    0.144
    75   6 C    3.954 --    76 C    1.269    93 C    1.265    71 C    1.176
    76   6 C    3.908 --    91 C    1.302    75 C    1.269    77 S    1.111
    77  16 S    2.495 --    76 C    1.111    78 C    1.075
    78   6 C    3.914 --    79 C    1.315    90 C    1.314    77 S    1.075
    79   6 C    3.930 --    88 C    1.387    78 C    1.315    80 C    1.007
    80   6 C    3.986 --    87 C    1.399    81 C    1.369    79 C    1.007
                            85 C    0.107
    81   6 C    3.985 --    84 C    1.413    80 C    1.369    82 C    1.013
                            86 C    0.108
    82   6 C    3.996 --    81 C    1.013    83 C    1.001   189 H    0.973
                           190 H    0.971
    83   6 C    3.995 --    82 C    1.001   193 H    0.987   192 H    0.986
                           191 H    0.985
    84   6 C    3.990 --    85 C    1.446    81 C    1.413   194 H    0.967
                            87 C    0.109
    85   6 C    3.990 --    84 C    1.446    86 C    1.433   195 H    0.970
                            80 C    0.107
    86   6 C    3.990 --    87 C    1.443    85 C    1.433   196 H    0.969
                            81 C    0.108
    87   6 C    3.987 --    86 C    1.443    80 C    1.399   197 H    0.970
                            84 C    0.109
    88   6 C    3.910 --    79 C    1.387   103 C    1.214    89 S    1.087
    89  16 S    2.724 --    90 C    1.119    88 C    1.087   120 N    0.181
    90   6 C    3.927 --    78 C    1.314    91 C    1.259    89 S    1.119
    91   6 C    3.937 --    76 C    1.302    90 C    1.259    92 N    1.152
    92   7 N    3.550 --    93 C    1.181    91 C    1.152   101 C    0.969
    93   6 C    3.930 --    75 C    1.265    94 C    1.228    92 N    1.181
    94   6 C    3.940 --    69 C    1.278    93 C    1.228    95 N    1.168
    95   7 N    3.538 --    94 C    1.168    96 C    1.155    99 C    0.968
    96   6 C    3.939 --    68 C    1.319    97 C    1.240    95 N    1.155
    97   6 C    3.928 --    66 C    1.346    96 C    1.240    98 S    1.122
    98  16 S    2.556 --    97 C    1.122    56 C    1.080
    99   6 C    3.951 --   100 C    1.005    95 N    0.968   199 H    0.965
                           198 H    0.963
   100   6 C    3.987 --    99 C    1.005   202 H    0.987   201 H    0.983
                           200 H    0.980
   101   6 C    3.952 --   102 C    1.005    92 N    0.969   204 H    0.965
                           203 H    0.964
   102   6 C    3.986 --   101 C    1.005   205 H    0.987   206 H    0.983
                           207 H    0.977
   103   6 C    3.925 --   104 C    1.353    88 C    1.214   121 C    1.178
   104   6 C    3.960 --   105 C    1.452   103 C    1.353   208 H    0.957
   105   6 C    3.939 --   104 C    1.452   106 C    1.346   209 H    0.949
   106   6 C    3.937 --   105 C    1.346   131 C    1.245   107 C    1.167
   107   6 C    3.967 --   108 N    1.325   121 C    1.245   106 C    1.167
   108   7 N    3.070 --   109 C    1.473   107 C    1.325
   109   6 C    3.955 --   108 N    1.473   119 C    1.207   110 C    1.053
   110   6 C    3.982 --   118 C    1.405   111 C    1.358   109 C    1.053
   111   6 C    3.981 --   112 C    1.457   110 C    1.358   210 H    0.967
   112   6 C    3.988 --   111 C    1.457   113 C    1.431   211 H    0.968
                           118 C    0.102
   113   6 C    3.976 --   112 C    1.431   114 C    1.365   212 H    0.963
   114   6 C    3.934 --   113 C    1.365   118 C    1.356   115 O    1.069
   115   8 O    2.226 --   114 C    1.069   116 C    0.956
   116   6 C    3.933 --   117 C    1.009   213 H    0.970   214 H    0.967
                           115 O    0.956
   117   6 C    3.989 --   116 C    1.009   215 H    0.986   216 H    0.983
                           217 H    0.983
   118   6 C    3.982 --   110 C    1.405   114 C    1.356   218 H    0.966
                           112 C    0.102
   119   6 C    3.953 --   120 N    1.471   109 C    1.207   122 C    1.037
   120   7 N    3.223 --   119 C    1.471   121 C    1.313    89 S    0.181
   121   6 C    3.968 --   120 N    1.313   107 C    1.245   103 C    1.178
   122   6 C    3.985 --   123 C    1.387   130 C    1.384   119 C    1.037
                           125 C    0.101
   123   6 C    3.983 --   124 C    1.431   122 C    1.387   219 H    0.970
   124   6 C    3.988 --   125 C    1.460   123 C    1.431   220 H    0.967
   125   6 C    3.979 --   124 C    1.460   126 C    1.347   221 H    0.966
                           122 C    0.101
   126   6 C    3.938 --   130 C    1.383   125 C    1.347   127 O    1.062
   127   8 O    2.219 --   126 C    1.062   128 C    0.957
   128   6 C    3.937 --   129 C    1.012   223 H    0.969   222 H    0.965
                           127 O    0.957
   129   6 C    3.991 --   128 C    1.012   226 H    0.986   224 H    0.984
                           225 H    0.983
   130   6 C    3.983 --   122 C    1.384   126 C    1.383   227 H    0.961
   131   6 C    3.916 --   132 C    1.512   106 C    1.245   228 H    0.930
   132   6 C    3.926 --   131 C    1.512   142 C    1.141   133 C    1.050
   133   6 C    3.908 --   134 O    1.723   132 C    1.050   135 C    1.019
   134   8 O    2.008 --   133 C    1.723
   135   6 C    3.977 --   136 C    1.415   141 C    1.298   133 C    1.019
   136   6 C    3.976 --   137 C    1.424   135 C    1.415   229 H    0.960
   137   6 C    3.966 --   136 C    1.424   138 C    1.404   230 H    0.963
   138   6 C    3.928 --   137 C    1.404   140 C    1.397   139 Br   0.990
   139  35 Br   1.122 --   138 C    0.990
   140   6 C    3.974 --   141 C    1.405   138 C    1.397   231 H    0.958
   141   6 C    3.983 --   140 C    1.405   135 C    1.298   142 C    1.078
   142   6 C    3.959 --   143 C    1.480   132 C    1.141   141 C    1.078
   143   6 C    3.948 --   142 C    1.480   146 C    1.100   144 C    1.095
   144   6 C    3.942 --   145 N    2.743   143 C    1.095
   145   7 N    2.957 --   144 C    2.743
   146   6 C    3.940 --   147 N    2.749   143 C    1.100
   147   7 N    2.956 --   146 C    2.749
   148   1 H    0.992 --     1 C    0.943
   149   1 H    0.992 --     6 C    0.961
   150   1 H    0.992 --     7 C    0.964
   151   1 H    0.995 --    10 C    0.961
   152   1 H    0.998 --    22 C    0.960
   153   1 H    0.998 --    23 C    0.968
   154   1 H    0.995 --    25 C    0.963
   155   1 H    0.995 --    25 C    0.976
   156   1 H    0.997 --    25 C    0.983
   157   1 H    0.996 --    26 C    0.967
   158   1 H    0.997 --    27 C    0.967
   159   1 H    0.998 --    29 C    0.967
   160   1 H    0.997 --    30 C    0.966
   161   1 H    0.995 --    32 C    0.972
   162   1 H    0.993 --    32 C    0.964
   163   1 H    0.997 --    32 C    0.983
   164   1 H    0.996 --    33 C    0.967
   165   1 H    0.997 --    34 C    0.967
   166   1 H    0.998 --    41 C    0.967
   167   1 H    0.997 --    42 C    0.966
   168   1 H    0.996 --    44 C    0.972
   169   1 H    0.997 --    44 C    0.985
   170   1 H    0.996 --    44 C    0.970
   171   1 H    0.998 --    45 C    0.969
   172   1 H    0.999 --    46 C    0.965
   173   1 H    0.999 --    48 C    0.968
   174   1 H    0.999 --    49 C    0.970
   175   1 H    0.996 --    51 C    0.962
   176   1 H    0.997 --    51 C    0.984
   177   1 H    0.994 --    51 C    0.965
   178   1 H    0.998 --    52 C    0.968
   179   1 H    0.998 --    53 C    0.967
   180   1 H    0.999 --    59 C    0.967
   181   1 H    0.997 --    60 C    0.970
   182   1 H    0.998 --    61 C    0.969
   183   1 H    0.997 --    62 C    0.966
   184   1 H    0.997 --    64 C    0.974
   185   1 H    0.998 --    64 C    0.966
   186   1 H    0.998 --    65 C    0.987
   187   1 H    0.999 --    65 C    0.983
   188   1 H    0.997 --    65 C    0.985
   189   1 H    0.999 --    82 C    0.973
   190   1 H    0.998 --    82 C    0.971
   191   1 H    0.999 --    83 C    0.985
   192   1 H    0.997 --    83 C    0.986
   193   1 H    0.998 --    83 C    0.987
   194   1 H    0.997 --    84 C    0.967
   195   1 H    0.997 --    85 C    0.970
   196   1 H    0.996 --    86 C    0.969
   197   1 H    0.998 --    87 C    0.970
   198   1 H    0.992 --    99 C    0.963
   199   1 H    0.992 --    99 C    0.965
   200   1 H    0.995 --   100 C    0.980
   201   1 H    0.997 --   100 C    0.983
   202   1 H    0.998 --   100 C    0.987
   203   1 H    0.992 --   101 C    0.964
   204   1 H    0.992 --   101 C    0.965
   205   1 H    0.997 --   102 C    0.987
   206   1 H    0.997 --   102 C    0.983
   207   1 H    0.994 --   102 C    0.977
   208   1 H    0.995 --   104 C    0.957
   209   1 H    0.991 --   105 C    0.949
   210   1 H    0.998 --   111 C    0.967
   211   1 H    0.996 --   112 C    0.968
   212   1 H    0.996 --   113 C    0.963
   213   1 H    0.996 --   116 C    0.970
   214   1 H    0.998 --   116 C    0.967
   215   1 H    0.997 --   117 C    0.986
   216   1 H    0.997 --   117 C    0.983
   217   1 H    0.996 --   117 C    0.983
   218   1 H    0.998 --   118 C    0.966
   219   1 H    0.999 --   123 C    0.970
   220   1 H    0.995 --   124 C    0.967
   221   1 H    0.995 --   125 C    0.966
   222   1 H    0.998 --   128 C    0.965
   223   1 H    0.995 --   128 C    0.969
   224   1 H    0.998 --   129 C    0.984
   225   1 H    0.997 --   129 C    0.983
   226   1 H    0.997 --   129 C    0.986
   227   1 H    0.997 --   130 C    0.961
   228   1 H    0.992 --   131 C    0.930
   229   1 H    0.992 --   136 C    0.960
   230   1 H    0.991 --   137 C    0.963
   231   1 H    0.995 --   140 C    0.958
 ---------------------------------------------------------------------------

Topologies differ in bond orders
Writing corrected topology to xtbtopo.mol

molecular dipole:
                 x           y           z       tot (Debye)
 q only:       -0.614       5.785      -2.028
   full:       -0.405       6.317      -2.031      16.898
molecular quadrupole (traceless):
                xx          xy          yy          xz          yz          zz
 q only:       89.658     -21.785      18.449      91.712      26.882    -108.107
  q+dip:       98.889      -7.118     -21.243      83.445      25.495     -77.646
   full:      111.552      -4.507     -30.415      79.450      25.989     -81.138


           -------------------------------------------------
          | TOTAL ENERGY             -386.434507863893 Eh   |
          | GRADIENT NORM               0.041673647011 Eh/α |
          | HOMO-LUMO GAP               0.427329681275 eV   |
           -------------------------------------------------

------------------------------------------------------------------------
 * finished run on 2022/02/08 at 04:07:26.642     
------------------------------------------------------------------------
 total:
 * wall-time:     0 d,  0 h,  0 min,  1.176 sec
 *  cpu-time:     0 d,  0 h,  0 min,  9.299 sec
 * ratio c/w:     7.905 speedup
 SCF:
 * wall-time:     0 d,  0 h,  0 min,  1.057 sec
 *  cpu-time:     0 d,  0 h,  0 min,  8.439 sec
 * ratio c/w:     7.982 speedup

