      -----------------------------------------------------------      
     |                   =====================                   |     
     |                           x T B                           |     
     |                   =====================                   |     
     |                         S. Grimme                         |     
     |          Mulliken Center for Theoretical Chemistry        |     
     |                    University of Bonn                     |     
      -----------------------------------------------------------      

   * xtb version 6.4.1 (unknown) compiled by 'oda6@login1.crc.pitt.edu' on 2021-06-25

   xtb is free software: you can redistribute it and/or modify it under
   the terms of the GNU Lesser General Public License as published by
   the Free Software Foundation, either version 3 of the License, or
   (at your option) any later version.
   
   xtb is distributed in the hope that it will be useful,
   but WITHOUT ANY WARRANTY; without even the implied warranty of
   MERCHANTABILITY or FITNESS FOR A PARTICULAR PURPOSE.  See the
   GNU Lesser General Public License for more details.
   
   Cite this work as:
   * C. Bannwarth, E. Caldeweyher, S. Ehlert, A. Hansen, P. Pracht,
     J. Seibert, S. Spicher, S. Grimme, WIREs Comput. Mol. Sci., 2020, 11,
     e01493. DOI: 10.1002/wcms.1493
   
   for GFN2-xTB:
   * C. Bannwarth, S. Ehlert and S. Grimme., J. Chem. Theory Comput., 2019,
     15, 1652-1671. DOI: 10.1021/acs.jctc.8b01176
   for GFN1-xTB:
   * S. Grimme, C. Bannwarth, P. Shushkov, J. Chem. Theory Comput., 2017,
     13, 1989-2009. DOI: 10.1021/acs.jctc.7b00118
   for GFN0-xTB:
   * P. Pracht, E. Caldeweyher, S. Ehlert, S. Grimme, ChemRxiv, 2019, preprint.
     DOI: 10.26434/chemrxiv.8326202.v1
   for GFN-FF:
   * S. Spicher and S. Grimme, Angew. Chem. Int. Ed., 2020, 59, 15665-15673.
     DOI: 10.1002/anie.202004239
   
   for DFT-D4:
   * E. Caldeweyher, C. Bannwarth and S. Grimme, J. Chem. Phys., 2017,
     147, 034112. DOI: 10.1063/1.4993215
   * E. Caldeweyher, S. Ehlert, A. Hansen, H. Neugebauer, S. Spicher,
     C. Bannwarth and S. Grimme, J. Chem. Phys., 2019, 150, 154122.
     DOI: 10.1063/1.5090222
   * E. Caldeweyher, J.-M. Mewes, S. Ehlert and S. Grimme, Phys. Chem. Chem. Phys.
     2020, 22, 8499-8512. DOI: 10.1039/D0CP00502A
   
   for sTDA-xTB:
   * S. Grimme and C. Bannwarth, J. Chem. Phys., 2016, 145, 054103.
     DOI: 10.1063/1.4959605
   
   in the mass-spec context:
   * V. Asgeirsson, C. Bauer and S. Grimme, Chem. Sci., 2017, 8, 4879.
     DOI: 10.1039/c7sc00601b
   * J. Koopman and S. Grimme, ACS Omega 2019, 4, 12, 15120-15133.
     DOI: 10.1021/acsomega.9b02011
   
   for metadynamics refer to:
   * S. Grimme, J. Chem. Theory Comput., 2019, 155, 2847-2862
     DOI: 10.1021/acs.jctc.9b00143
   
   for SPH calculations refer to:
   * S. Spicher and S. Grimme, J. Chem. Theory Comput., 2021, 17, 1701-1714
     DOI: 10.1021/acs.jctc.0c01306
   
   with help from (in alphabetical order)
   P. Atkinson, C. Bannwarth, F. Bohle, G. Brandenburg, E. Caldeweyher
   M. Checinski, S. Dohm, S. Ehlert, S. Ehrlich, I. Gerasimov, J. Koopman
   C. Lavigne, S. Lehtola, F. März, M. Müller, F. Musil, H. Neugebauer
   J. Pisarek, C. Plett, P. Pracht, J. Seibert, P. Shushkov, S. Spicher
   M. Stahn, M. Steiner, T. Strunk, J. Stückrath, T. Rose, and J. Unsleber
   
 * started run on 2022/02/09 at 02:08:01.732     

           -------------------------------------------------
          |                Calculation Setup                |
           -------------------------------------------------

          program call               : /ihome/ghutchison/oda6/xtb/xtb-641/bin/xtb ../../GFN2_output/50_28_100_28_65.mol --sp --alpb water
          hostname                   : smp-n26
          coordinate file            : ../../GFN2_output/50_28_100_28_65.mol
          omp threads                :                     8
          number of atoms            :                   244
          number of electrons        :                   752
          charge                     :                     0
          spin                       :                   0.0
          first test random number   :      0.65855466200837

   ID    Z sym.   atoms
    1    6 C      1, 2, 4, 7-9, 11, 12, 14-28, 30, 31, 33-47, 49-59, 61-64,
                  68, 69, 71-81, 83, 84, 86, 87, 89, 90, 92-97, 99-113, 115,
                  116, 118-132, 134-136, 138, 139, 141, 143, 145, 147-150, 152
    2   16 S      3, 29, 48, 60, 66, 70, 82, 91, 114, 133
    3    8 O      5, 10, 137
    4    7 N      6, 13, 32, 65, 67, 85, 88, 98, 117, 151, 153
    5   17 Cl     140, 142, 144, 146
    6    1 H      154-244

           -------------------------------------------------
          |                 G F N 2 - x T B                 |
           -------------------------------------------------

        Reference                      10.1021/acs.jctc.8b01176
      * Hamiltonian:
        H0-scaling (s, p, d)           1.850000    2.230000    2.230000
        zeta-weighting                 0.500000
      * Dispersion:
        s8                             2.700000
        a1                             0.520000
        a2                             5.000000
        s9                             5.000000
      * Repulsion:
        kExp                           1.500000    1.000000
        rExp                           1.000000
      * Coulomb:
        alpha                          2.000000
        third order                    shell-resolved
        anisotropic                    true
        a3                             3.000000
        a5                             4.000000
        cn-shift                       1.200000
        cn-exp                         4.000000
        max-rad                        5.000000

      * Solvation model:               ALPB
        Solvent                        water
        Parameter file                 internal GFN2-xTB/ALPB
        Dielectric constant                8.0200E+01
        Reference state                gsolv [1 M gas/solution]
        Free energy shift                  1.0808E-03 Eh       6.7819E-01 kcal/mol
        Temperature                        2.9815E+02 K
        Density                            1.0000E+00 kg/L
        Solvent mass                       1.8000E+01 g/mol
        Interaction kernel             P16
        Born radius scaling (c1)           1.4744E+00
        Born radii integrator          GBOBC
        Born offset                        0.0000E+00 a0       0.0000E+00 AA
        H-bond correction              true
        Ion screening                  false
        Surface tension                    1.0000E-05 Eh       1.5569E+01 dyn/cm
        Grid points                               230 per atom

          ...................................................
          :                      SETUP                      :
          :.................................................:
          :  # basis functions                 787          :
          :  # atomic orbitals                 773          :
          :  # shells                          411          :
          :  # electrons                       752          :
          :  max. iterations                   250          :
          :  Hamiltonian                  GFN2-xTB          :
          :  restarted?                      false          :
          :  GBSA solvation                   true          :
          :  PC potential                    false          :
          :  electronic temp.          300.0000000     K    :
          :  accuracy                    1.0000000          :
          :  -> integral cutoff          0.2500000E+02      :
          :  -> integral neglect         0.1000000E-07      :
          :  -> SCF convergence          0.1000000E-05 Eh   :
          :  -> wf. convergence          0.1000000E-03 e    :
          :  Broyden damping             0.4000000          :
          ...................................................

 iter      E             dE          RMSdq      gap      omega  full diag
   1   -415.3096251 -0.415310E+03  0.406E+00    0.37       0.0  T
   2   -415.6795404 -0.369915E+00  0.242E+00    0.41       1.0  T
   3   -415.5961096  0.834308E-01  0.115E+00    0.22       1.0  T
   4   -415.7386760 -0.142566E+00  0.468E-01    0.49       1.0  T
   5   -415.7760410 -0.373651E-01  0.161E-01    0.25       1.0  T
   6   -415.7787872 -0.274618E-02  0.797E-02    0.30       1.0  T
   7   -415.7793557 -0.568503E-03  0.362E-02    0.28       1.0  T
   8   -415.7794431 -0.873826E-04  0.226E-02    0.28       1.0  T
   9   -415.7794761 -0.330560E-04  0.148E-02    0.28       1.0  T
  10   -415.7794916 -0.154814E-04  0.979E-03    0.28       1.0  T
  11   -415.7794992 -0.762544E-05  0.615E-03    0.28       1.0  T
  12   -415.7795023 -0.307643E-05  0.364E-03    0.28       1.8  T
  13   -415.7795036 -0.125778E-05  0.219E-03    0.28       2.9  T
  14   -415.7795040 -0.423992E-06  0.151E-03    0.28       4.3  T
  15   -415.7795042 -0.191649E-06  0.988E-04    0.28       6.5  T
  16   -415.7795043 -0.894698E-07  0.617E-04    0.28      10.4  T

   *** convergence criteria satisfied after 16 iterations ***

         #    Occupation            Energy/Eh            Energy/eV
      -------------------------------------------------------------
         1        2.0000           -1.0892315             -29.6395
       ...           ...                  ...                  ...
       370        2.0000           -0.3739664             -10.1761
       371        2.0000           -0.3711387             -10.0992
       372        2.0000           -0.3687588             -10.0344
       373        2.0000           -0.3604190              -9.8075
       374        2.0000           -0.3560654              -9.6890
       375        1.9999           -0.3503094              -9.5324
       376        1.9918           -0.3460627              -9.4168 (HOMO)
       377        0.0083           -0.3356354              -9.1331 (LUMO)
       378                         -0.3221485              -8.7661
       379                         -0.3134867              -8.5304
       380                         -0.2976014              -8.0981
       381                         -0.2877660              -7.8305
       ...                                ...                  ...
       773                          1.1482905              31.2466
      -------------------------------------------------------------
                  HL-Gap            0.0104273 Eh            0.2837 eV
             Fermi-level           -0.3408435 Eh           -9.2748 eV

 SCC (total)                   0 d,  0 h,  0 min,  1.243 sec
 SCC setup                      ...        0 min,  0.012 sec (  0.975%)
 Dispersion                     ...        0 min,  0.018 sec (  1.447%)
 classical contributions        ...        0 min,  0.001 sec (  0.051%)
 integral evaluation            ...        0 min,  0.057 sec (  4.627%)
 iterations                     ...        0 min,  0.968 sec ( 77.907%)
 molecular gradient             ...        0 min,  0.180 sec ( 14.503%)
 printout                       ...        0 min,  0.006 sec (  0.484%)

         :::::::::::::::::::::::::::::::::::::::::::::::::::::
         ::                     SUMMARY                     ::
         :::::::::::::::::::::::::::::::::::::::::::::::::::::
         :: total energy            -409.402478019715 Eh    ::
         :: total w/o Gsasa/hb      -409.388077656037 Eh    ::
         :: gradient norm              0.048491260382 Eh/a0 ::
         :: HOMO-LUMO gap              0.283741474887 eV    ::
         ::.................................................::
         :: SCC energy              -415.779504288855 Eh    ::
         :: -> isotropic ES            0.212743276757 Eh    ::
         :: -> anisotropic ES          0.017563739863 Eh    ::
         :: -> anisotropic XC          0.199587203857 Eh    ::
         :: -> dispersion             -0.460469371431 Eh    ::
         :: -> Gsolv                  -0.059275130369 Eh    ::
         ::    -> Gelec               -0.044874766692 Eh    ::
         ::    -> Gsasa               -0.008230898421 Eh    ::
         ::    -> Ghb                 -0.007250224954 Eh    ::
         ::    -> Gshift               0.001080759698 Eh    ::
         :: repulsion energy           6.359511379714 Eh    ::
         :: add. restraining           0.000000000000 Eh    ::
         :: total charge               0.000000001076 e     ::
         :::::::::::::::::::::::::::::::::::::::::::::::::::::

           -------------------------------------------------
          |                Property Printout                |
           -------------------------------------------------

    * Orbital Energies and Occupations

         #    Occupation            Energy/Eh            Energy/eV
      -------------------------------------------------------------
         1        2.0000           -1.0892315             -29.6395
       ...           ...                  ...                  ...
       364        2.0000           -0.3939461             -10.7198
       365        2.0000           -0.3922607             -10.6740
       366        2.0000           -0.3895795             -10.6010
       367        2.0000           -0.3880942             -10.5606
       368        2.0000           -0.3859916             -10.5034
       369        2.0000           -0.3769070             -10.2562
       370        2.0000           -0.3739664             -10.1761
       371        2.0000           -0.3711387             -10.0992
       372        2.0000           -0.3687588             -10.0344
       373        2.0000           -0.3604190              -9.8075
       374        2.0000           -0.3560654              -9.6890
       375        1.9999           -0.3503094              -9.5324
       376        1.9918           -0.3460627              -9.4168 (HOMO)
       377        0.0083           -0.3356354              -9.1331 (LUMO)
       378                         -0.3221485              -8.7661
       379                         -0.3134867              -8.5304
       380                         -0.2976014              -8.0981
       381                         -0.2877660              -7.8305
       382                         -0.2792049              -7.5976
       383                         -0.2732423              -7.4353
       384                         -0.2592492              -7.0545
       385                         -0.2550927              -6.9414
       386                         -0.2536100              -6.9011
       387                         -0.2494011              -6.7865
       ...                                ...                  ...
       773                          1.1482905              31.2466
      -------------------------------------------------------------
                  HL-Gap            0.0104273 Eh            0.2837 eV
             Fermi-level           -0.3408435 Eh           -9.2748 eV

     #   Z          covCN         q      C6AA      α(0)
     1   6 C        2.968    -0.021    28.516     8.759
     2   6 C        2.956    -0.020    28.511     8.758
     3  16 S        2.216    -0.128   146.418    20.366
     4   6 C        2.773     0.309    21.761     7.640
     5   8 O        0.869    -0.451    22.725     6.392
     6   7 N        2.854    -0.101    23.218     7.157
     7   6 C        3.746     0.009    20.492     6.457
     8   6 C        3.752    -0.117    22.807     6.810
     9   6 C        2.882     0.271    22.442     7.766
    10   8 O        0.924    -0.450    22.662     6.384
    11   6 C        2.988     0.003    27.953     8.673
    12   6 C        3.050     0.058    26.664     8.469
    13   7 N        2.748    -0.054    22.281     7.011
    14   6 C        2.924     0.056    26.746     8.481
    15   6 C        2.920    -0.049    29.218     8.864
    16   6 C        2.925    -0.043    29.057     8.840
    17   6 C        2.966     0.016    27.653     8.626
    18   6 C        3.758    -0.125    22.943     6.829
    19   6 C        2.925    -0.042    29.044     8.838
    20   6 C        2.920    -0.049    29.227     8.865
    21   6 C        2.930     0.057    26.721     8.477
    22   6 C        2.921    -0.046    29.151     8.854
    23   6 C        2.926    -0.041    29.024     8.835
    24   6 C        2.966     0.018    27.601     8.618
    25   6 C        3.758    -0.121    22.868     6.818
    26   6 C        2.926    -0.039    28.970     8.827
    27   6 C        2.921    -0.046    29.144     8.853
    28   6 C        3.157    -0.001    27.734     8.611
    29  16 S        2.250    -0.058   143.462    20.159
    30   6 C        3.023     0.004    27.898     8.664
    31   6 C        3.052     0.046    26.922     8.510
    32   7 N        2.748    -0.067    22.538     7.051
    33   6 C        2.931     0.059    26.675     8.470
    34   6 C        2.921    -0.053    29.316     8.879
    35   6 C        2.925    -0.042    29.046     8.838
    36   6 C        2.965     0.011    27.774     8.644
    37   6 C        3.757    -0.120    22.861     6.817
    38   6 C        2.925    -0.043    29.061     8.840
    39   6 C        2.922    -0.051    29.278     8.873
    40   6 C        2.936     0.058    26.697     8.474
    41   6 C        2.920    -0.046    29.143     8.853
    42   6 C        2.926    -0.041    29.014     8.833
    43   6 C        2.966     0.017    27.637     8.623
    44   6 C        3.758    -0.119    22.822     6.811
    45   6 C        2.925    -0.040    29.003     8.832
    46   6 C        2.922    -0.047    29.159     8.855
    47   6 C        3.164     0.000    27.674     8.598
    48  16 S        2.290    -0.041   142.733    20.108
    49   6 C        3.033     0.011    27.734     8.638
    50   6 C        3.116    -0.009    28.086     8.681
    51   6 C        2.984     0.003    27.945     8.671
    52   6 C        2.927    -0.034    28.857     8.810
    53   6 C        2.920    -0.037    28.921     8.819
    54   6 C        2.919    -0.034    28.844     8.807
    55   6 C        2.927    -0.037    28.931     8.821
    56   6 C        2.972     0.010    27.782     8.646
    57   6 C        3.806    -0.057    21.593     6.615
    58   6 C        3.753    -0.095    22.374     6.745
    59   6 C        3.197     0.011    27.247     8.509
    60  16 S        2.180    -0.077   144.270    20.216
    61   6 C        3.098    -0.000    27.908     8.658
    62   6 C        3.083    -0.044    28.991     8.827
    63   6 C        3.338     0.068    24.109     7.772
    64   6 C        3.338     0.068    24.103     7.770
    65   7 N        1.853    -0.305    28.753     7.947
    66  16 S        2.682     0.279   130.204    19.205
    67   7 N        1.853    -0.306    28.785     7.952
    68   6 C        3.079    -0.043    28.989     8.827
    69   6 C        3.101    -0.002    27.939     8.662
    70  16 S        2.196    -0.067   143.817    20.184
    71   6 C        3.184     0.006    27.434     8.548
    72   6 C        3.104    -0.009    28.110     8.688
    73   6 C        2.977     0.000    28.016     8.682
    74   6 C        2.967     0.013    27.709     8.634
    75   6 C        3.806    -0.062    21.681     6.629
    76   6 C        3.751    -0.101    22.492     6.763
    77   6 C        2.927    -0.039    28.978     8.828
    78   6 C        2.919    -0.034    28.856     8.809
    79   6 C        2.918    -0.039    28.968     8.826
    80   6 C        2.931    -0.039    28.974     8.828
    81   6 C        3.030     0.006    27.868     8.659
    82  16 S        2.244    -0.022   141.950    20.053
    83   6 C        3.134     0.003    27.747     8.622
    84   6 C        3.260     0.030    26.187     8.269
    85   7 N        2.796    -0.029    21.806     6.936
    86   6 C        3.085     0.031    27.212     8.551
    87   6 C        3.082     0.031    27.212     8.552
    88   7 N        2.793    -0.027    21.760     6.928
    89   6 C        3.259     0.028    26.248     8.279
    90   6 C        3.123     0.000    27.837     8.640
    91  16 S        2.276    -0.051   143.179    20.139
    92   6 C        3.743    -0.009    20.809     6.508
    93   6 C        3.752    -0.120    22.861     6.818
    94   6 C        3.744    -0.010    20.833     6.511
    95   6 C        3.752    -0.124    22.945     6.831
    96   6 C        3.030     0.005    27.884     8.662
    97   6 C        3.064     0.050    26.818     8.492
    98   7 N        2.748    -0.073    22.666     7.071
    99   6 C        2.928     0.058    26.692     8.473
   100   6 C        2.922    -0.048    29.195     8.861
   101   6 C        2.926    -0.042    29.033     8.836
   102   6 C        2.966     0.012    27.744     8.640
   103   6 C        3.758    -0.122    22.899     6.823
   104   6 C        2.925    -0.044    29.088     8.845
   105   6 C        2.920    -0.050    29.251     8.869
   106   6 C        2.922     0.056    26.745     8.481
   107   6 C        2.923    -0.053    29.324     8.880
   108   6 C        2.925    -0.044    29.087     8.845
   109   6 C        2.965     0.008    27.834     8.654
   110   6 C        3.757    -0.119    22.832     6.813
   111   6 C        2.926    -0.044    29.096     8.846
   112   6 C        2.922    -0.054    29.348     8.884
   113   6 C        3.174     0.015    27.286     8.532
   114  16 S        2.263    -0.050   143.133    20.136
   115   6 C        2.988     0.011    27.756     8.642
   116   6 C        3.028     0.074    26.313     8.414
   117   7 N        2.749    -0.019    21.611     6.904
   118   6 C        2.939     0.056    26.744     8.482
   119   6 C        2.921    -0.036    28.900     8.816
   120   6 C        2.926    -0.040    28.997     8.831
   121   6 C        2.966     0.025    27.436     8.592
   122   6 C        3.758    -0.130    23.056     6.846
   123   6 C        2.925    -0.041    29.027     8.835
   124   6 C        2.920    -0.043    29.060     8.840
   125   6 C        2.926     0.058    26.701     8.474
   126   6 C        2.919    -0.045    29.124     8.850
   127   6 C        2.925    -0.040    28.983     8.829
   128   6 C        2.965     0.020    27.549     8.609
   129   6 C        3.758    -0.124    22.935     6.828
   130   6 C        2.924    -0.044    29.089     8.845
   131   6 C        2.921    -0.041    29.017     8.834
   132   6 C        3.165    -0.003    27.743     8.608
   133  16 S        2.253    -0.027   142.164    20.068
   134   6 C        2.958    -0.015    28.385     8.739
   135   6 C        3.019    -0.050    29.221     8.867
   136   6 C        2.874     0.232    23.156     7.888
   137   8 O        0.856    -0.423    22.155     6.311
   138   6 C        3.085    -0.029    28.633     8.772
   139   6 C        2.912     0.095    25.895     8.344
   140  17 Cl       0.991    -0.091   101.993    15.451
   141   6 C        2.960     0.081    26.202     8.396
   142  17 Cl       1.028    -0.088   101.901    15.444
   143   6 C        2.963     0.082    26.172     8.391
   144  17 Cl       1.052    -0.094   102.093    15.458
   145   6 C        2.915     0.089    26.013     8.364
   146  17 Cl       1.013    -0.109   102.575    15.495
   147   6 C        3.058    -0.000    27.975     8.674
   148   6 C        3.026     0.039    27.101     8.539
   149   6 C        2.949     0.000    28.021     8.682
   150   6 C        1.952     0.131    27.863     8.524
   151   7 N        0.911    -0.279    27.201     7.543
   152   6 C        1.955     0.134    27.796     8.514
   153   7 N        0.911    -0.291    27.502     7.585
   154   1 H        0.925     0.079     1.990     2.206
   155   1 H        0.924     0.080     1.976     2.198
   156   1 H        0.924     0.071     2.076     2.253
   157   1 H        0.925     0.074     2.038     2.232
   158   1 H        0.925     0.053     2.279     2.361
   159   1 H        0.925     0.051     2.306     2.375
   160   1 H        0.926     0.044     2.399     2.422
   161   1 H        0.926     0.048     2.345     2.395
   162   1 H        0.925     0.055     2.254     2.348
   163   1 H        0.924     0.060     2.197     2.318
   164   1 H        0.925     0.054     2.269     2.356
   165   1 H        0.926     0.043     2.416     2.430
   166   1 H        0.926     0.029     2.596     2.519
   167   1 H        0.926     0.042     2.426     2.436
   168   1 H        0.926     0.047     2.353     2.399
   169   1 H        0.924     0.062     2.171     2.304
   170   1 H        0.925     0.051     2.307     2.375
   171   1 H        0.925     0.055     2.256     2.349
   172   1 H        0.926     0.044     2.392     2.418
   173   1 H        0.926     0.031     2.578     2.511
   174   1 H        0.926     0.026     2.650     2.546
   175   1 H        0.926     0.034     2.532     2.488
   176   1 H        0.925     0.055     2.263     2.353
   177   1 H        0.925     0.054     2.276     2.359
   178   1 H        0.925     0.050     2.320     2.382
   179   1 H        0.926     0.047     2.355     2.400
   180   1 H        0.926     0.041     2.436     2.441
   181   1 H        0.926     0.039     2.465     2.455
   182   1 H        0.926     0.042     2.428     2.437
   183   1 H        0.925     0.055     2.260     2.351
   184   1 H        0.925     0.052     2.297     2.370
   185   1 H        0.925     0.051     2.302     2.373
   186   1 H        0.926     0.038     2.478     2.461
   187   1 H        0.926     0.031     2.566     2.505
   188   1 H        0.926     0.031     2.575     2.509
   189   1 H        0.926     0.041     2.438     2.442
   190   1 H        0.926     0.046     2.367     2.406
   191   1 H        0.926     0.042     2.426     2.436
   192   1 H        0.924     0.047     2.363     2.404
   193   1 H        0.924     0.031     2.578     2.511
   194   1 H        0.925     0.026     2.642     2.542
   195   1 H        0.925     0.041     2.439     2.442
   196   1 H        0.925     0.042     2.426     2.436
   197   1 H        0.924     0.053     2.287     2.365
   198   1 H        0.924     0.042     2.416     2.431
   199   1 H        0.925     0.033     2.544     2.494
   200   1 H        0.925     0.040     2.443     2.444
   201   1 H        0.925     0.042     2.426     2.436
   202   1 H        0.926     0.046     2.370     2.407
   203   1 H        0.926     0.038     2.469     2.457
   204   1 H        0.926     0.035     2.511     2.478
   205   1 H        0.926     0.029     2.594     2.519
   206   1 H        0.924     0.077     2.006     2.215
   207   1 H        0.924     0.078     2.004     2.214
   208   1 H        0.925     0.050     2.321     2.382
   209   1 H        0.925     0.068     2.103     2.268
   210   1 H        0.925     0.058     2.220     2.330
   211   1 H        0.925     0.083     1.953     2.185
   212   1 H        0.924     0.080     1.980     2.201
   213   1 H        0.925     0.046     2.371     2.408
   214   1 H        0.925     0.051     2.302     2.373
   215   1 H        0.925     0.071     2.076     2.253
   216   1 H        0.926     0.023     2.681     2.561
   217   1 H        0.926     0.038     2.473     2.459
   218   1 H        0.925     0.057     2.235     2.338
   219   1 H        0.925     0.050     2.319     2.381
   220   1 H        0.925     0.054     2.270     2.356
   221   1 H        0.926     0.041     2.433     2.439
   222   1 H        0.926     0.040     2.455     2.450
   223   1 H        0.926     0.025     2.661     2.551
   224   1 H        0.926     0.044     2.397     2.421
   225   1 H        0.925     0.055     2.255     2.349
   226   1 H        0.924     0.049     2.338     2.391
   227   1 H        0.925     0.053     2.282     2.362
   228   1 H        0.926     0.037     2.492     2.468
   229   1 H        0.926     0.045     2.389     2.417
   230   1 H        0.926     0.050     2.314     2.379
   231   1 H        0.926     0.057     2.234     2.337
   232   1 H        0.925     0.062     2.181     2.310
   233   1 H        0.925     0.057     2.235     2.338
   234   1 H        0.924     0.073     2.048     2.238
   235   1 H        0.926     0.056     2.252     2.347
   236   1 H        0.926     0.044     2.392     2.419
   237   1 H        0.926     0.042     2.420     2.433
   238   1 H        0.926     0.045     2.380     2.413
   239   1 H        0.925     0.070     2.082     2.257
   240   1 H        0.925     0.059     2.215     2.327
   241   1 H        0.925     0.053     2.282     2.362
   242   1 H        0.926     0.051     2.304     2.374
   243   1 H        0.926     0.048     2.350     2.397
   244   1 H        0.925     0.067     2.122     2.278

 Mol. C6AA /au·bohr⁶  :    1031284.105534
 Mol. C8AA /au·bohr⁸  :   28995909.399667
 Mol. α(0) /au        :       1624.950638


Wiberg/Mayer (AO) data.
largest (>0.10) Wiberg bond orders for each atom

 ---------------------------------------------------------------------------
     #   Z sym  total        # sym  WBO       # sym  WBO       # sym  WBO
 ---------------------------------------------------------------------------
     1   6 C    3.965 --     2 C    1.492    11 C    1.324   154 H    0.944
     2   6 C    3.899 --     1 C    1.492     9 C    1.122     3 S    1.040
     3  16 S    2.411 --     2 C    1.040     4 C    1.014     5 O    0.164
     4   6 C    3.938 --     5 O    1.674     6 N    1.178     3 S    1.014
     5   8 O    2.025 --     4 C    1.674     3 S    0.164     6 N    0.131
     6   7 N    3.563 --     4 C    1.178     9 C    1.097     7 C    0.952
                             5 O    0.131    10 O    0.111
     7   6 C    3.944 --     8 C    1.009   156 H    0.969   155 H    0.965
                             6 N    0.952
     8   6 C    3.989 --     7 C    1.009   159 H    0.986   158 H    0.985
                           157 H    0.980
     9   6 C    3.926 --    10 O    1.586     2 C    1.122     6 N    1.097
    10   8 O    2.017 --     9 C    1.586     6 N    0.111
    11   6 C    3.928 --     1 C    1.324    12 C    1.285    48 S    1.074
    12   6 C    3.959 --    11 C    1.285    28 C    1.270    13 N    1.137
    13   7 N    3.504 --    12 C    1.137    21 C    1.036    14 C    1.036
    14   6 C    3.960 --    15 C    1.371    20 C    1.366    13 N    1.036
    15   6 C    3.981 --    16 C    1.456    14 C    1.371   160 H    0.967
                            19 C    0.102
    16   6 C    3.990 --    15 C    1.456    17 C    1.403   161 H    0.968
                            20 C    0.104
    17   6 C    3.978 --    16 C    1.403    19 C    1.397    18 C    1.029
    18   6 C    3.994 --    17 C    1.029   162 H    0.981   164 H    0.980
                           163 H    0.964
    19   6 C    3.989 --    20 C    1.463    17 C    1.397   165 H    0.968
                            15 C    0.102
    20   6 C    3.985 --    19 C    1.463    14 C    1.366   166 H    0.968
                            16 C    0.104
    21   6 C    3.958 --    22 C    1.371    27 C    1.364    13 N    1.036
    22   6 C    3.976 --    23 C    1.457    21 C    1.371   167 H    0.967
                            26 C    0.104
    23   6 C    3.989 --    22 C    1.457    24 C    1.402   168 H    0.968
                            27 C    0.102
    24   6 C    3.971 --    23 C    1.402    26 C    1.398    25 C    1.029
    25   6 C    3.994 --    24 C    1.029   170 H    0.983   171 H    0.975
                           169 H    0.964
    26   6 C    3.989 --    27 C    1.462    24 C    1.398   172 H    0.967
                            22 C    0.104
    27   6 C    3.981 --    26 C    1.462    21 C    1.364   173 H    0.968
                            23 C    0.102
    28   6 C    3.933 --    47 C    1.339    12 C    1.270    29 S    1.098
    29  16 S    2.541 --    28 C    1.098    30 C    1.082
    30   6 C    3.902 --    31 C    1.389    49 C    1.195    29 S    1.082
    31   6 C    3.950 --    30 C    1.389    47 C    1.229    32 N    1.088
    32   7 N    3.490 --    31 C    1.088    33 C    1.061    40 C    1.031
    33   6 C    3.961 --    34 C    1.357    39 C    1.356    32 N    1.061
    34   6 C    3.984 --    35 C    1.466    33 C    1.357   174 H    0.965
                            38 C    0.100
    35   6 C    3.990 --    34 C    1.466    36 C    1.395   175 H    0.969
                            39 C    0.103
    36   6 C    3.977 --    38 C    1.403    35 C    1.395    37 C    1.027
    37   6 C    3.994 --    36 C    1.027   177 H    0.984   178 H    0.974
                           176 H    0.969
    38   6 C    3.989 --    39 C    1.459    36 C    1.403   179 H    0.967
                            34 C    0.100
    39   6 C    3.982 --    38 C    1.459    33 C    1.356   180 H    0.967
                            35 C    0.103
    40   6 C    3.963 --    46 C    1.372    41 C    1.371    32 N    1.031
    41   6 C    3.984 --    42 C    1.460    40 C    1.371   181 H    0.967
                            45 C    0.104
    42   6 C    3.990 --    41 C    1.460    43 C    1.399   182 H    0.968
                            46 C    0.104
    43   6 C    3.976 --    45 C    1.406    42 C    1.399    44 C    1.028
    44   6 C    3.995 --    43 C    1.028   185 H    0.982   183 H    0.980
                           184 H    0.965
    45   6 C    3.990 --    46 C    1.453    43 C    1.406   186 H    0.969
                            41 C    0.104
    46   6 C    3.984 --    45 C    1.453    40 C    1.372   187 H    0.968
                            42 C    0.104
    47   6 C    3.944 --    28 C    1.339    31 C    1.229    48 S    1.135
    48  16 S    2.652 --    47 C    1.135    11 C    1.074
    49   6 C    3.917 --    50 C    1.435    30 C    1.195    91 S    1.076
    50   6 C    3.952 --    49 C    1.435    59 C    1.275    51 C    1.005
    51   6 C    3.986 --    52 C    1.390    56 C    1.375    50 C    1.005
                            54 C    0.105
    52   6 C    3.989 --    53 C    1.448    51 C    1.390   188 H    0.970
                            55 C    0.109
    53   6 C    3.989 --    52 C    1.448    54 C    1.429   189 H    0.969
                            56 C    0.107
    54   6 C    3.989 --    55 C    1.450    53 C    1.429   190 H    0.969
                            51 C    0.105
    55   6 C    3.990 --    54 C    1.450    56 C    1.410   191 H    0.966
                            52 C    0.109
    56   6 C    3.985 --    55 C    1.410    51 C    1.375    57 C    1.012
                            53 C    0.107
    57   6 C    3.997 --    56 C    1.012    58 C    1.003   193 H    0.974
                           192 H    0.967
    58   6 C    3.996 --    57 C    1.003   195 H    0.985   196 H    0.985
                           194 H    0.985
    59   6 C    3.923 --    90 C    1.344    50 C    1.275    60 S    1.086
    60  16 S    2.488 --    61 C    1.102    59 C    1.086
    61   6 C    3.918 --    89 C    1.320    62 C    1.261    60 S    1.102
    62   6 C    3.958 --    87 C    1.275    61 C    1.261    63 C    1.178
    63   6 C    3.969 --    67 N    1.424    62 C    1.178    64 C    1.154
                            66 S    0.108
    64   6 C    3.970 --    65 N    1.422    68 C    1.181    63 C    1.154
                            66 S    0.107
    65   7 N    3.055 --    64 C    1.422    66 S    1.374    67 N    0.146
    66  16 S    3.083 --    67 N    1.375    65 N    1.374    63 C    0.108
                            64 C    0.107
    67   7 N    3.057 --    63 C    1.424    66 S    1.375    65 N    0.146
    68   6 C    3.957 --    86 C    1.281    69 C    1.250    64 C    1.181
    69   6 C    3.931 --    84 C    1.332    68 C    1.250    70 S    1.105
    70  16 S    2.509 --    69 C    1.105    71 C    1.092
    71   6 C    3.924 --    83 C    1.364    72 C    1.241    70 S    1.092
    72   6 C    3.970 --    81 C    1.478    71 C    1.241    73 C    1.036
    73   6 C    3.985 --    80 C    1.380    74 C    1.369    72 C    1.036
                            78 C    0.102
    74   6 C    3.985 --    77 C    1.410    73 C    1.369    75 C    1.015
                            79 C    0.104
    75   6 C    3.995 --    74 C    1.015    76 C    1.011   198 H    0.965
                           197 H    0.952
    76   6 C    3.995 --    75 C    1.011   201 H    0.986   199 H    0.985
                           200 H    0.985
    77   6 C    3.990 --    78 C    1.449    74 C    1.410   202 H    0.965
                            80 C    0.107
    78   6 C    3.986 --    77 C    1.449    79 C    1.423   203 H    0.970
                            73 C    0.102
    79   6 C    3.991 --    80 C    1.455    78 C    1.423   204 H    0.970
                            74 C    0.104
    80   6 C    3.989 --    79 C    1.455    73 C    1.380   205 H    0.967
                            77 C    0.107
    81   6 C    3.912 --    72 C    1.478    96 C    1.106    82 S    1.094
    82  16 S    2.568 --    83 C    1.123    81 C    1.094
    83   6 C    3.938 --    71 C    1.364    84 C    1.232    82 S    1.123
    84   6 C    3.944 --    69 C    1.332    83 C    1.232    85 N    1.153
    85   7 N    3.544 --    86 C    1.170    84 C    1.153    94 C    0.970
    86   6 C    3.943 --    68 C    1.281    87 C    1.221    85 N    1.170
    87   6 C    3.937 --    62 C    1.275    86 C    1.221    88 N    1.173
    88   7 N    3.554 --    87 C    1.173    89 C    1.162    92 C    0.969
    89   6 C    3.943 --    61 C    1.320    90 C    1.234    88 N    1.162
    90   6 C    3.925 --    59 C    1.344    89 C    1.234    91 S    1.121
    91  16 S    2.568 --    90 C    1.121    49 C    1.076
    92   6 C    3.949 --    93 C    1.009    88 N    0.969   206 H    0.960
                           207 H    0.949
    93   6 C    3.985 --    92 C    1.009   208 H    0.986   210 H    0.980
                           209 H    0.980
    94   6 C    3.951 --    95 C    1.006    85 N    0.970   212 H    0.964
                           211 H    0.956
    95   6 C    3.986 --    94 C    1.006   213 H    0.987   214 H    0.983
                           215 H    0.980
    96   6 C    3.896 --    97 C    1.427   133 S    1.107    81 C    1.106
    97   6 C    3.960 --    96 C    1.427   113 C    1.223    98 N    1.083
    98   7 N    3.488 --    97 C    1.083   106 C    1.054    99 C    1.046
    99   6 C    3.963 --   105 C    1.370   100 C    1.364    98 N    1.046
   100   6 C    3.986 --   101 C    1.459    99 C    1.364   216 H    0.966
                           104 C    0.103
   101   6 C    3.990 --   100 C    1.459   102 C    1.400   217 H    0.969
                           105 C    0.105
   102   6 C    3.977 --   104 C    1.403   101 C    1.400   103 C    1.028
   103   6 C    3.994 --   102 C    1.028   219 H    0.984   220 H    0.977
                           218 H    0.966
   104   6 C    3.989 --   105 C    1.456   102 C    1.403   221 H    0.968
                           100 C    0.103
   105   6 C    3.984 --   104 C    1.456    99 C    1.370   222 H    0.967
                           101 C    0.105
   106   6 C    3.961 --   107 C    1.370   112 C    1.357    98 N    1.054
   107   6 C    3.986 --   108 C    1.449   106 C    1.370   223 H    0.967
                           111 C    0.104
   108   6 C    3.989 --   107 C    1.449   109 C    1.410   224 H    0.968
                           112 C    0.102
   109   6 C    3.981 --   108 C    1.410   111 C    1.393   110 C    1.027
   110   6 C    3.994 --   109 C    1.027   227 H    0.984   225 H    0.973
                           226 H    0.971
   111   6 C    3.990 --   112 C    1.466   109 C    1.393   228 H    0.969
                           107 C    0.104
   112   6 C    3.986 --   111 C    1.466   106 C    1.357   229 H    0.961
                           108 C    0.102
   113   6 C    3.933 --   132 C    1.361    97 C    1.223   114 S    1.122
   114  16 S    2.502 --   113 C    1.122   115 C    1.052
   115   6 C    3.925 --   134 C    1.397   116 C    1.251   114 S    1.052
   116   6 C    3.958 --   115 C    1.251   132 C    1.238   117 N    1.208
   117   7 N    3.586 --   116 C    1.208   125 C    1.051   118 C    1.003
   118   6 C    3.951 --   124 C    1.381   119 C    1.368   117 N    1.003
   119   6 C    3.985 --   120 C    1.459   118 C    1.368   230 H    0.965
                           123 C    0.103
   120   6 C    3.987 --   119 C    1.459   121 C    1.396   231 H    0.967
                           124 C    0.104
   121   6 C    3.972 --   123 C    1.403   120 C    1.396   122 C    1.032
   122   6 C    3.992 --   121 C    1.032   233 H    0.982   232 H    0.975
                           234 H    0.961
   123   6 C    3.988 --   124 C    1.453   121 C    1.403   235 H    0.967
                           119 C    0.103
   124   6 C    3.975 --   123 C    1.453   118 C    1.381   236 H    0.967
                           120 C    0.104
   125   6 C    3.961 --   131 C    1.359   126 C    1.353   117 N    1.051
   126   6 C    3.986 --   127 C    1.477   125 C    1.353   237 H    0.967
                           130 C    0.102
   127   6 C    3.988 --   126 C    1.477   128 C    1.379   238 H    0.968
   128   6 C    3.978 --   130 C    1.411   127 C    1.379   129 C    1.033
   129   6 C    3.991 --   128 C    1.033   240 H    0.984   239 H    0.968
                           241 H    0.962
   130   6 C    3.989 --   131 C    1.445   128 C    1.411   242 H    0.967
                           126 C    0.102
   131   6 C    3.980 --   130 C    1.445   125 C    1.359   243 H    0.966
   132   6 C    3.937 --   113 C    1.361   116 C    1.238   133 S    1.105
   133  16 S    2.568 --    96 C    1.107   132 C    1.105
   134   6 C    3.947 --   115 C    1.397   135 C    1.380   244 H    0.949
   135   6 C    3.956 --   134 C    1.380   148 C    1.193   136 C    1.079
   136   6 C    3.938 --   137 O    1.682   135 C    1.079   138 C    1.000
   137   8 O    2.005 --   136 C    1.682
   138   6 C    3.970 --   139 C    1.394   147 C    1.276   136 C    1.000
   139   6 C    3.927 --   138 C    1.394   141 C    1.309   140 Cl   1.025
   140  17 Cl   1.188 --   139 C    1.025
   141   6 C    3.922 --   143 C    1.375   139 C    1.309   142 Cl   1.024
   142  17 Cl   1.181 --   141 C    1.024
   143   6 C    3.924 --   141 C    1.375   145 C    1.314   144 Cl   1.022
   144  17 Cl   1.176 --   143 C    1.022
   145   6 C    3.913 --   147 C    1.377   143 C    1.314   146 Cl   1.012
   146  17 Cl   1.182 --   145 C    1.012
   147   6 C    3.981 --   145 C    1.377   138 C    1.276   148 C    1.074
   148   6 C    3.962 --   149 C    1.428   135 C    1.193   147 C    1.074
   149   6 C    3.948 --   148 C    1.428   152 C    1.114   150 C    1.102
   150   6 C    3.941 --   151 N    2.744   149 C    1.102
   151   7 N    2.957 --   150 C    2.744
   152   6 C    3.939 --   153 N    2.730   149 C    1.114
   153   7 N    2.943 --   152 C    2.730
   154   1 H    0.993 --     1 C    0.944
   155   1 H    0.993 --     7 C    0.965
   156   1 H    0.994 --     7 C    0.969
   157   1 H    0.993 --     8 C    0.980
   158   1 H    0.997 --     8 C    0.985
   159   1 H    0.997 --     8 C    0.986
   160   1 H    0.998 --    15 C    0.967
   161   1 H    0.997 --    16 C    0.968
   162   1 H    0.996 --    18 C    0.981
   163   1 H    0.994 --    18 C    0.964
   164   1 H    0.996 --    18 C    0.980
   165   1 H    0.998 --    19 C    0.968
   166   1 H    0.999 --    20 C    0.968
   167   1 H    0.998 --    22 C    0.967
   168   1 H    0.997 --    23 C    0.968
   169   1 H    0.994 --    25 C    0.964
   170   1 H    0.997 --    25 C    0.983
   171   1 H    0.996 --    25 C    0.975
   172   1 H    0.997 --    26 C    0.967
   173   1 H    0.999 --    27 C    0.968
   174   1 H    0.999 --    34 C    0.965
   175   1 H    0.998 --    35 C    0.969
   176   1 H    0.995 --    37 C    0.969
   177   1 H    0.997 --    37 C    0.984
   178   1 H    0.996 --    37 C    0.974
   179   1 H    0.997 --    38 C    0.967
   180   1 H    0.998 --    39 C    0.967
   181   1 H    0.998 --    41 C    0.967
   182   1 H    0.998 --    42 C    0.968
   183   1 H    0.996 --    44 C    0.980
   184   1 H    0.996 --    44 C    0.965
   185   1 H    0.997 --    44 C    0.982
   186   1 H    0.998 --    45 C    0.969
   187   1 H    0.999 --    46 C    0.968
   188   1 H    0.999 --    52 C    0.970
   189   1 H    0.996 --    53 C    0.969
   190   1 H    0.997 --    54 C    0.969
   191   1 H    0.997 --    55 C    0.966
   192   1 H    0.998 --    57 C    0.967
   193   1 H    0.999 --    57 C    0.974
   194   1 H    0.999 --    58 C    0.985
   195   1 H    0.997 --    58 C    0.985
   196   1 H    0.998 --    58 C    0.985
   197   1 H    0.997 --    75 C    0.952
   198   1 H    0.998 --    75 C    0.965
   199   1 H    0.999 --    76 C    0.985
   200   1 H    0.998 --    76 C    0.985
   201   1 H    0.998 --    76 C    0.986
   202   1 H    0.997 --    77 C    0.965
   203   1 H    0.998 --    78 C    0.970
   204   1 H    0.998 --    79 C    0.970
   205   1 H    0.999 --    80 C    0.967
   206   1 H    0.993 --    92 C    0.960
   207   1 H    0.991 --    92 C    0.949
   208   1 H    0.997 --    93 C    0.986
   209   1 H    0.994 --    93 C    0.980
   210   1 H    0.996 --    93 C    0.980
   211   1 H    0.992 --    94 C    0.956
   212   1 H    0.991 --    94 C    0.964
   213   1 H    0.998 --    95 C    0.987
   214   1 H    0.997 --    95 C    0.983
   215   1 H    0.994 --    95 C    0.980
   216   1 H    0.999 --   100 C    0.966
   217   1 H    0.998 --   101 C    0.969
   218   1 H    0.995 --   103 C    0.966
   219   1 H    0.997 --   103 C    0.984
   220   1 H    0.996 --   103 C    0.977
   221   1 H    0.998 --   104 C    0.968
   222   1 H    0.998 --   105 C    0.967
   223   1 H    0.999 --   107 C    0.967
   224   1 H    0.998 --   108 C    0.968
   225   1 H    0.996 --   110 C    0.973
   226   1 H    0.996 --   110 C    0.971
   227   1 H    0.997 --   110 C    0.984
   228   1 H    0.998 --   111 C    0.969
   229   1 H    0.998 --   112 C    0.961
   230   1 H    0.997 --   119 C    0.965
   231   1 H    0.996 --   120 C    0.967
   232   1 H    0.995 --   122 C    0.975
   233   1 H    0.996 --   122 C    0.982
   234   1 H    0.993 --   122 C    0.961
   235   1 H    0.996 --   123 C    0.967
   236   1 H    0.998 --   124 C    0.967
   237   1 H    0.998 --   126 C    0.967
   238   1 H    0.997 --   127 C    0.968
   239   1 H    0.993 --   129 C    0.968
   240   1 H    0.996 --   129 C    0.984
   241   1 H    0.995 --   129 C    0.962
   242   1 H    0.997 --   130 C    0.967
   243   1 H    0.997 --   131 C    0.966
   244   1 H    0.992 --   134 C    0.949
 ---------------------------------------------------------------------------

Topologies differ in bond orders
Writing corrected topology to xtbtopo.mol

molecular dipole:
                 x           y           z       tot (Debye)
 q only:        4.293       0.436      -1.384
   full:        3.264       0.720      -1.736       9.572
molecular quadrupole (traceless):
                xx          xy          yy          xz          yz          zz
 q only:       -5.475     -70.499       4.769      62.070     206.550       0.706
  q+dip:        4.081     -55.891       1.232      52.236     201.089      -5.313
   full:        7.109     -63.376       4.635      49.154     201.538     -11.744


           -------------------------------------------------
          | TOTAL ENERGY             -409.402478019715 Eh   |
          | GRADIENT NORM               0.048491260382 Eh/α |
          | HOMO-LUMO GAP               0.283741474887 eV   |
           -------------------------------------------------

------------------------------------------------------------------------
 * finished run on 2022/02/09 at 02:08:03.106     
------------------------------------------------------------------------
 total:
 * wall-time:     0 d,  0 h,  0 min,  1.374 sec
 *  cpu-time:     0 d,  0 h,  0 min, 10.847 sec
 * ratio c/w:     7.898 speedup
 SCF:
 * wall-time:     0 d,  0 h,  0 min,  1.247 sec
 *  cpu-time:     0 d,  0 h,  0 min,  9.933 sec
 * ratio c/w:     7.966 speedup

