      -----------------------------------------------------------      
     |                   =====================                   |     
     |                           x T B                           |     
     |                   =====================                   |     
     |                         S. Grimme                         |     
     |          Mulliken Center for Theoretical Chemistry        |     
     |                    University of Bonn                     |     
      -----------------------------------------------------------      

   * xtb version 6.4.1 (unknown) compiled by 'oda6@login1.crc.pitt.edu' on 2021-06-25

   xtb is free software: you can redistribute it and/or modify it under
   the terms of the GNU Lesser General Public License as published by
   the Free Software Foundation, either version 3 of the License, or
   (at your option) any later version.
   
   xtb is distributed in the hope that it will be useful,
   but WITHOUT ANY WARRANTY; without even the implied warranty of
   MERCHANTABILITY or FITNESS FOR A PARTICULAR PURPOSE.  See the
   GNU Lesser General Public License for more details.
   
   Cite this work as:
   * C. Bannwarth, E. Caldeweyher, S. Ehlert, A. Hansen, P. Pracht,
     J. Seibert, S. Spicher, S. Grimme, WIREs Comput. Mol. Sci., 2020, 11,
     e01493. DOI: 10.1002/wcms.1493
   
   for GFN2-xTB:
   * C. Bannwarth, S. Ehlert and S. Grimme., J. Chem. Theory Comput., 2019,
     15, 1652-1671. DOI: 10.1021/acs.jctc.8b01176
   for GFN1-xTB:
   * S. Grimme, C. Bannwarth, P. Shushkov, J. Chem. Theory Comput., 2017,
     13, 1989-2009. DOI: 10.1021/acs.jctc.7b00118
   for GFN0-xTB:
   * P. Pracht, E. Caldeweyher, S. Ehlert, S. Grimme, ChemRxiv, 2019, preprint.
     DOI: 10.26434/chemrxiv.8326202.v1
   for GFN-FF:
   * S. Spicher and S. Grimme, Angew. Chem. Int. Ed., 2020, 59, 15665-15673.
     DOI: 10.1002/anie.202004239
   
   for DFT-D4:
   * E. Caldeweyher, C. Bannwarth and S. Grimme, J. Chem. Phys., 2017,
     147, 034112. DOI: 10.1063/1.4993215
   * E. Caldeweyher, S. Ehlert, A. Hansen, H. Neugebauer, S. Spicher,
     C. Bannwarth and S. Grimme, J. Chem. Phys., 2019, 150, 154122.
     DOI: 10.1063/1.5090222
   * E. Caldeweyher, J.-M. Mewes, S. Ehlert and S. Grimme, Phys. Chem. Chem. Phys.
     2020, 22, 8499-8512. DOI: 10.1039/D0CP00502A
   
   for sTDA-xTB:
   * S. Grimme and C. Bannwarth, J. Chem. Phys., 2016, 145, 054103.
     DOI: 10.1063/1.4959605
   
   in the mass-spec context:
   * V. Asgeirsson, C. Bauer and S. Grimme, Chem. Sci., 2017, 8, 4879.
     DOI: 10.1039/c7sc00601b
   * J. Koopman and S. Grimme, ACS Omega 2019, 4, 12, 15120-15133.
     DOI: 10.1021/acsomega.9b02011
   
   for metadynamics refer to:
   * S. Grimme, J. Chem. Theory Comput., 2019, 155, 2847-2862
     DOI: 10.1021/acs.jctc.9b00143
   
   for SPH calculations refer to:
   * S. Spicher and S. Grimme, J. Chem. Theory Comput., 2021, 17, 1701-1714
     DOI: 10.1021/acs.jctc.0c01306
   
   with help from (in alphabetical order)
   P. Atkinson, C. Bannwarth, F. Bohle, G. Brandenburg, E. Caldeweyher
   M. Checinski, S. Dohm, S. Ehlert, S. Ehrlich, I. Gerasimov, J. Koopman
   C. Lavigne, S. Lehtola, F. März, M. Müller, F. Musil, H. Neugebauer
   J. Pisarek, C. Plett, P. Pracht, J. Seibert, P. Shushkov, S. Spicher
   M. Stahn, M. Steiner, T. Strunk, J. Stückrath, T. Rose, and J. Unsleber
   
 * started run on 2022/02/07 at 16:55:34.214     

           -------------------------------------------------
          |                Calculation Setup                |
           -------------------------------------------------

          program call               : /ihome/ghutchison/oda6/xtb/xtb-641/bin/xtb ../../GFN2_output/62_28_86_164_61.mol --sp --alpb water
          hostname                   : smp-n26
          coordinate file            : ../../GFN2_output/62_28_86_164_61.mol
          omp threads                :                     8
          number of atoms            :                   190
          number of electrons        :                   622
          charge                     :                     0
          spin                       :                   0.0
          first test random number   :      0.88238807441806

   ID    Z sym.   atoms
    1    6 C      1-3, 5-9, 11, 13-15, 17, 19, 20, 22-36, 38, 39, 41-55,
                  57-67, 69-72, 76, 77, 79-89, 91, 92, 94, 95, 97, 98,
                  100-106, 108, 110-112, 114-117, 119, 121, 123-125, 127
    2    8 O      4, 113
    3   35 Br     10
    4   17 Cl     12
    5    7 N      16, 18, 21, 40, 73, 75, 93, 96, 126, 128
    6   16 S      37, 56, 68, 74, 78, 90, 99, 109
    7    9 F      107, 118, 120, 122
    8    1 H      129-190

           -------------------------------------------------
          |                 G F N 2 - x T B                 |
           -------------------------------------------------

        Reference                      10.1021/acs.jctc.8b01176
      * Hamiltonian:
        H0-scaling (s, p, d)           1.850000    2.230000    2.230000
        zeta-weighting                 0.500000
      * Dispersion:
        s8                             2.700000
        a1                             0.520000
        a2                             5.000000
        s9                             5.000000
      * Repulsion:
        kExp                           1.500000    1.000000
        rExp                           1.000000
      * Coulomb:
        alpha                          2.000000
        third order                    shell-resolved
        anisotropic                    true
        a3                             3.000000
        a5                             4.000000
        cn-shift                       1.200000
        cn-exp                         4.000000
        max-rad                        5.000000

      * Solvation model:               ALPB
        Solvent                        water
        Parameter file                 internal GFN2-xTB/ALPB
        Dielectric constant                8.0200E+01
        Reference state                gsolv [1 M gas/solution]
        Free energy shift                  1.0808E-03 Eh       6.7819E-01 kcal/mol
        Temperature                        2.9815E+02 K
        Density                            1.0000E+00 kg/L
        Solvent mass                       1.8000E+01 g/mol
        Interaction kernel             P16
        Born radius scaling (c1)           1.4744E+00
        Born radii integrator          GBOBC
        Born offset                        0.0000E+00 a0       0.0000E+00 AA
        H-bond correction              true
        Ion screening                  false
        Surface tension                    1.0000E-05 Eh       1.5569E+01 dyn/cm
        Grid points                               230 per atom

          ...................................................
          :                      SETUP                      :
          :.................................................:
          :  # basis functions                 634          :
          :  # atomic orbitals                 624          :
          :  # shells                          328          :
          :  # electrons                       622          :
          :  max. iterations                   250          :
          :  Hamiltonian                  GFN2-xTB          :
          :  restarted?                      false          :
          :  GBSA solvation                   true          :
          :  PC potential                    false          :
          :  electronic temp.          300.0000000     K    :
          :  accuracy                    1.0000000          :
          :  -> integral cutoff          0.2500000E+02      :
          :  -> integral neglect         0.1000000E-07      :
          :  -> SCF convergence          0.1000000E-05 Eh   :
          :  -> wf. convergence          0.1000000E-03 e    :
          :  Broyden damping             0.4000000          :
          ...................................................

 iter      E             dE          RMSdq      gap      omega  full diag
   1   -345.7971159 -0.345797E+03  0.469E+00    0.03       0.0  T
   2   -346.1035505 -0.306435E+00  0.290E+00    0.86       1.0  T
   3   -345.5814330  0.522118E+00  0.177E+00    0.24       1.0  T
   4   -346.1212077 -0.539775E+00  0.882E-01    0.73       1.0  T
   5   -346.2601243 -0.138917E+00  0.416E-01    0.71       1.0  T
   6   -346.2716368 -0.115125E-01  0.267E-01    0.70       1.0  T
   7   -346.2785079 -0.687113E-02  0.167E-01    0.50       1.0  T
   8   -346.2803769 -0.186898E-02  0.103E-01    0.32       1.0  T
   9   -346.2809115 -0.534604E-03  0.655E-02    0.23       1.0  T
  10   -346.2811158 -0.204258E-03  0.456E-02    0.24       1.0  T
  11   -346.2812100 -0.942607E-04  0.314E-02    0.25       1.0  T
  12   -346.2812589 -0.489003E-04  0.201E-02    0.26       1.0  T
  13   -346.2812862 -0.272865E-04  0.131E-02    0.25       1.0  T
  14   -346.2812938 -0.759026E-05  0.859E-03    0.25       1.0  T
  15   -346.2812997 -0.588799E-05  0.478E-03    0.26       1.5  T
  16   -346.2813008 -0.112569E-05  0.258E-03    0.25       2.8  T
  17   -346.2813014 -0.530414E-06  0.137E-03    0.26       5.3  T
  18   -346.2813015 -0.106555E-06  0.729E-04    0.26       9.9  T
  19   -346.2813015 -0.371576E-07  0.433E-04    0.26      16.7  T

   *** convergence criteria satisfied after 19 iterations ***

         #    Occupation            Energy/Eh            Energy/eV
      -------------------------------------------------------------
         1        2.0000           -1.0848987             -29.5216
       ...           ...                  ...                  ...
       305        2.0000           -0.3938585             -10.7174
       306        2.0000           -0.3822346             -10.4011
       307        2.0000           -0.3813093             -10.3760
       308        2.0000           -0.3735853             -10.1658
       309        2.0000           -0.3676708             -10.0048
       310        2.0000           -0.3649195              -9.9300
       311        1.9858           -0.3549328              -9.6582 (HOMO)
       312        0.0142           -0.3455404              -9.4026 (LUMO)
       313        0.0000           -0.3353546              -9.1255
       314        0.0000           -0.3348408              -9.1115
       315                         -0.3247312              -8.8364
       316                         -0.3029457              -8.2436
       ...                                ...                  ...
       624                          1.1501364              31.2968
      -------------------------------------------------------------
                  HL-Gap            0.0093924 Eh            0.2556 eV
             Fermi-level           -0.3502366 Eh           -9.5304 eV

 SCC (total)                   0 d,  0 h,  0 min,  0.880 sec
 SCC setup                      ...        0 min,  0.007 sec (  0.821%)
 Dispersion                     ...        0 min,  0.008 sec (  0.894%)
 classical contributions        ...        0 min,  0.000 sec (  0.037%)
 integral evaluation            ...        0 min,  0.034 sec (  3.881%)
 iterations                     ...        0 min,  0.722 sec ( 82.042%)
 molecular gradient             ...        0 min,  0.105 sec ( 11.973%)
 printout                       ...        0 min,  0.003 sec (  0.342%)

         :::::::::::::::::::::::::::::::::::::::::::::::::::::
         ::                     SUMMARY                     ::
         :::::::::::::::::::::::::::::::::::::::::::::::::::::
         :: total energy            -341.018677651021 Eh    ::
         :: total w/o Gsasa/hb      -340.998562145365 Eh    ::
         :: gradient norm              0.044660490482 Eh/a0 ::
         :: HOMO-LUMO gap              0.255578923497 eV    ::
         ::.................................................::
         :: SCC energy              -346.281301501904 Eh    ::
         :: -> isotropic ES            0.219139725590 Eh    ::
         :: -> anisotropic ES          0.010856459765 Eh    ::
         :: -> anisotropic XC          0.165907167711 Eh    ::
         :: -> dispersion             -0.342810777459 Eh    ::
         :: -> Gsolv                  -0.069058559660 Eh    ::
         ::    -> Gelec               -0.048943054004 Eh    ::
         ::    -> Gsasa               -0.013672559643 Eh    ::
         ::    -> Ghb                 -0.007523705711 Eh    ::
         ::    -> Gshift               0.001080759698 Eh    ::
         :: repulsion energy           5.256002501335 Eh    ::
         :: add. restraining           0.000000000000 Eh    ::
         :: total charge              -0.000000000000 e     ::
         :::::::::::::::::::::::::::::::::::::::::::::::::::::

           -------------------------------------------------
          |                Property Printout                |
           -------------------------------------------------

    * Orbital Energies and Occupations

         #    Occupation            Energy/Eh            Energy/eV
      -------------------------------------------------------------
         1        2.0000           -1.0848987             -29.5216
       ...           ...                  ...                  ...
       299        2.0000           -0.4036179             -10.9830
       300        2.0000           -0.4020777             -10.9411
       301        2.0000           -0.4017364             -10.9318
       302        2.0000           -0.3992870             -10.8652
       303        2.0000           -0.3975675             -10.8184
       304        2.0000           -0.3971406             -10.8067
       305        2.0000           -0.3938585             -10.7174
       306        2.0000           -0.3822346             -10.4011
       307        2.0000           -0.3813093             -10.3760
       308        2.0000           -0.3735853             -10.1658
       309        2.0000           -0.3676708             -10.0048
       310        2.0000           -0.3649195              -9.9300
       311        1.9858           -0.3549328              -9.6582 (HOMO)
       312        0.0142           -0.3455404              -9.4026 (LUMO)
       313        0.0000           -0.3353546              -9.1255
       314        0.0000           -0.3348408              -9.1115
       315                         -0.3247312              -8.8364
       316                         -0.3029457              -8.2436
       317                         -0.2960134              -8.0549
       318                         -0.2865318              -7.7969
       319                         -0.2775843              -7.5535
       320                         -0.2736367              -7.4460
       321                         -0.2576421              -7.0108
       322                         -0.2564847              -6.9793
       ...                                ...                  ...
       624                          1.1501364              31.2968
      -------------------------------------------------------------
                  HL-Gap            0.0093924 Eh            0.2556 eV
             Fermi-level           -0.3502366 Eh           -9.5304 eV

     #   Z          covCN         q      C6AA      α(0)
     1   6 C        2.921    -0.018    28.448     8.747
     2   6 C        3.011    -0.051    29.238     8.870
     3   6 C        2.874     0.231    23.165     7.890
     4   8 O        0.969    -0.415    21.921     6.280
     5   6 C        3.083    -0.032    28.697     8.782
     6   6 C        3.035     0.010    27.748     8.640
     7   6 C        2.914    -0.031    28.764     8.795
     8   6 C        3.002    -0.034    28.824     8.807
     9   6 C        2.945     0.076    26.309     8.413
    10  35 Br       1.141    -0.137   188.822    22.156
    11   6 C        2.947     0.101    25.769     8.326
    12  17 Cl       1.026    -0.125   103.071    15.532
    13   6 C        3.024     0.030    27.301     8.571
    14   6 C        2.947    -0.002    28.068     8.689
    15   6 C        1.946     0.126    27.982     8.543
    16   7 N        0.911    -0.281    27.265     7.552
    17   6 C        1.947     0.131    27.869     8.525
    18   7 N        0.911    -0.285    27.359     7.565
    19   6 C        2.984     0.010    27.795     8.648
    20   6 C        3.041     0.064    26.532     8.448
    21   7 N        2.748    -0.033    21.883     6.948
    22   6 C        2.925     0.054    26.780     8.486
    23   6 C        2.920    -0.038    28.952     8.824
    24   6 C        2.926    -0.039    28.968     8.826
    25   6 C        2.966     0.018    27.613     8.619
    26   6 C        3.758    -0.125    22.956     6.831
    27   6 C        2.925    -0.043    29.064     8.841
    28   6 C        2.920    -0.049    29.222     8.865
    29   6 C        2.935     0.056    26.742     8.481
    30   6 C        2.921    -0.042    29.032     8.836
    31   6 C        2.926    -0.040    28.995     8.831
    32   6 C        2.966     0.025    27.447     8.593
    33   6 C        3.758    -0.129    23.035     6.843
    34   6 C        2.925    -0.040    28.993     8.830
    35   6 C        2.920    -0.041    29.029     8.835
    36   6 C        3.147    -0.001    27.783     8.623
    37  16 S        2.231    -0.033   142.409    20.085
    38   6 C        3.026     0.004    27.909     8.666
    39   6 C        3.053     0.049    26.859     8.499
    40   7 N        2.748    -0.069    22.576     7.057
    41   6 C        2.929     0.060    26.665     8.468
    42   6 C        2.921    -0.048    29.189     8.860
    43   6 C        2.926    -0.041    29.026     8.835
    44   6 C        2.966     0.013    27.721     8.636
    45   6 C        3.758    -0.112    22.694     6.792
    46   6 C        2.926    -0.039    28.963     8.826
    47   6 C        2.923    -0.046    29.135     8.852
    48   6 C        2.923     0.056    26.751     8.482
    49   6 C        2.922    -0.046    29.150     8.854
    50   6 C        2.926    -0.041    29.029     8.836
    51   6 C        2.966     0.011    27.770     8.644
    52   6 C        3.757    -0.115    22.763     6.802
    53   6 C        2.925    -0.044    29.085     8.844
    54   6 C        2.922    -0.052    29.285     8.874
    55   6 C        3.165     0.003    27.612     8.587
    56  16 S        2.317    -0.042   142.812    20.113
    57   6 C        3.027     0.008    27.811     8.650
    58   6 C        3.110    -0.010    28.116     8.687
    59   6 C        2.973     0.010    27.800     8.649
    60   6 C        2.926    -0.041    29.007     8.832
    61   6 C        2.917    -0.034    28.841     8.806
    62   6 C        2.925    -0.039    28.968     8.826
    63   6 C        2.971     0.017    27.634     8.623
    64   6 C        3.807    -0.064    21.721     6.635
    65   6 C        3.754    -0.098    22.433     6.754
    66   6 C        2.930    -0.041    29.008     8.833
    67   6 C        3.192     0.010    27.283     8.519
    68  16 S        2.186    -0.057   143.428    20.157
    69   6 C        3.099     0.000    27.897     8.656
    70   6 C        3.089    -0.040    28.881     8.809
    71   6 C        3.341     0.069    24.020     7.748
    72   6 C        3.342     0.069    24.010     7.745
    73   7 N        1.854    -0.301    28.647     7.933
    74  16 S        2.687     0.294   129.652    19.164
    75   7 N        1.854    -0.302    28.676     7.937
    76   6 C        3.088    -0.040    28.892     8.811
    77   6 C        3.097     0.007    27.747     8.633
    78  16 S        2.175    -0.036   142.548    20.095
    79   6 C        3.192     0.015    27.186     8.503
    80   6 C        3.102     0.005    27.781     8.637
    81   6 C        2.974     0.011    27.773     8.644
    82   6 C        2.925    -0.038    28.935     8.821
    83   6 C        2.918    -0.033    28.821     8.804
    84   6 C        2.925    -0.039    28.961     8.825
    85   6 C        2.970     0.018    27.613     8.619
    86   6 C        3.807    -0.065    21.732     6.636
    87   6 C        3.754    -0.108    22.618     6.782
    88   6 C        2.930    -0.044    29.082     8.844
    89   6 C        3.042     0.014    27.656     8.625
    90  16 S        2.342    -0.011   141.520    20.022
    91   6 C        3.115     0.015    27.521     8.593
    92   6 C        3.250     0.030    26.317     8.304
    93   7 N        2.798    -0.013    21.496     6.886
    94   6 C        3.068     0.038    27.081     8.533
    95   6 C        3.067     0.032    27.224     8.556
    96   7 N        2.801    -0.012    21.479     6.883
    97   6 C        3.254     0.031    26.250     8.288
    98   6 C        3.127     0.003    27.757     8.627
    99  16 S        2.250    -0.026   142.129    20.065
   100   6 C        3.744    -0.017    20.946     6.529
   101   6 C        3.752    -0.127    22.993     6.838
   102   6 C        3.744    -0.017    20.955     6.530
   103   6 C        3.752    -0.125    22.966     6.834
   104   6 C        3.056     0.031    27.252     8.561
   105   6 C        3.050    -0.069    29.676     8.934
   106   6 C        2.988     0.171    24.322     8.090
   107   9 F        0.786    -0.227    11.519     4.009
   108   6 C        2.968     0.006    27.889     8.662
   109  16 S        2.503     0.044   139.275    19.863
   110   6 C        2.915    -0.007    28.188     8.706
   111   6 C        3.010    -0.041    28.993     8.833
   112   6 C        2.871     0.239    23.016     7.864
   113   8 O        0.969    -0.382    21.272     6.186
   114   6 C        3.041    -0.036    28.846     8.809
   115   6 C        3.037     0.017    27.604     8.618
   116   6 C        2.912    -0.050    29.250     8.869
   117   6 C        2.783     0.173    24.267     8.069
   118   9 F        0.788    -0.199    11.223     3.957
   119   6 C        2.777     0.149    24.751     8.148
   120   9 F        0.786    -0.196    11.199     3.953
   121   6 C        2.773     0.176    24.213     8.059
   122   9 F        0.787    -0.188    11.116     3.938
   123   6 C        3.019     0.038    27.128     8.544
   124   6 C        2.947     0.012    27.756     8.641
   125   6 C        1.945     0.134    27.808     8.516
   126   7 N        0.911    -0.269    26.972     7.511
   127   6 C        1.947     0.134    27.815     8.517
   128   7 N        0.911    -0.269    26.951     7.508
   129   1 H        0.925     0.066     2.131     2.283
   130   1 H        0.926     0.086     1.917     2.165
   131   1 H        0.926     0.101     1.777     2.085
   132   1 H        0.926     0.059     2.215     2.327
   133   1 H        0.926     0.054     2.274     2.358
   134   1 H        0.925     0.057     2.230     2.335
   135   1 H        0.925     0.065     2.143     2.289
   136   1 H        0.925     0.053     2.284     2.364
   137   1 H        0.926     0.045     2.386     2.416
   138   1 H        0.926     0.033     2.544     2.494
   139   1 H        0.926     0.035     2.517     2.481
   140   1 H        0.926     0.053     2.281     2.362
   141   1 H        0.925     0.064     2.156     2.296
   142   1 H        0.925     0.067     2.121     2.277
   143   1 H        0.925     0.057     2.237     2.339
   144   1 H        0.926     0.057     2.237     2.339
   145   1 H        0.926     0.049     2.330     2.387
   146   1 H        0.926     0.038     2.475     2.460
   147   1 H        0.926     0.039     2.465     2.455
   148   1 H        0.925     0.049     2.329     2.386
   149   1 H        0.925     0.054     2.267     2.355
   150   1 H        0.924     0.041     2.431     2.438
   151   1 H        0.926     0.034     2.535     2.490
   152   1 H        0.926     0.030     2.589     2.516
   153   1 H        0.926     0.033     2.540     2.492
   154   1 H        0.926     0.040     2.445     2.445
   155   1 H        0.925     0.051     2.308     2.376
   156   1 H        0.924     0.045     2.382     2.413
   157   1 H        0.925     0.056     2.243     2.342
   158   1 H        0.926     0.048     2.345     2.395
   159   1 H        0.926     0.031     2.577     2.510
   160   1 H        0.926     0.030     2.588     2.516
   161   1 H        0.926     0.037     2.490     2.468
   162   1 H        0.926     0.040     2.454     2.450
   163   1 H        0.924     0.047     2.363     2.404
   164   1 H        0.924     0.045     2.387     2.416
   165   1 H        0.925     0.028     2.620     2.531
   166   1 H        0.925     0.047     2.363     2.404
   167   1 H        0.925     0.035     2.517     2.481
   168   1 H        0.926     0.043     2.414     2.430
   169   1 H        0.926     0.045     2.377     2.411
   170   1 H        0.926     0.047     2.354     2.399
   171   1 H        0.926     0.045     2.377     2.411
   172   1 H        0.924     0.046     2.372     2.409
   173   1 H        0.924     0.042     2.423     2.434
   174   1 H        0.925     0.041     2.431     2.438
   175   1 H        0.925     0.045     2.389     2.417
   176   1 H        0.925     0.040     2.448     2.447
   177   1 H        0.926     0.040     2.452     2.448
   178   1 H        0.924     0.084     1.935     2.176
   179   1 H        0.925     0.090     1.875     2.141
   180   1 H        0.925     0.072     2.062     2.246
   181   1 H        0.925     0.052     2.297     2.370
   182   1 H        0.925     0.056     2.252     2.347
   183   1 H        0.924     0.084     1.941     2.179
   184   1 H        0.925     0.092     1.863     2.135
   185   1 H        0.925     0.055     2.259     2.350
   186   1 H        0.925     0.072     2.067     2.248
   187   1 H        0.925     0.053     2.288     2.365
   188   1 H        0.926     0.089     1.884     2.146
   189   1 H        0.925     0.079     1.992     2.207
   190   1 H        0.926     0.116     1.646     2.006

 Mol. C6AA /au·bohr⁶  :     663202.006109
 Mol. C8AA /au·bohr⁸  :   18862119.295118
 Mol. α(0) /au        :       1302.097943


Wiberg/Mayer (AO) data.
largest (>0.10) Wiberg bond orders for each atom

 ---------------------------------------------------------------------------
     #   Z sym  total        # sym  WBO       # sym  WBO       # sym  WBO
 ---------------------------------------------------------------------------
     1   6 C    3.947 --    19 C    1.412     2 C    1.382   129 H    0.932
     2   6 C    3.952 --     1 C    1.382    13 C    1.190     3 C    1.099
     3   6 C    3.905 --     4 O    1.663     2 C    1.099     5 C    1.014
     4   8 O    2.063 --     3 C    1.663    56 S    0.121
     5   6 C    3.972 --    11 C    1.390     6 C    1.291     3 C    1.014
     6   6 C    3.981 --     7 C    1.410     5 C    1.291    13 C    1.073
     7   6 C    3.967 --     8 C    1.412     6 C    1.410   130 H    0.955
     8   6 C    3.972 --     9 C    1.420     7 C    1.412   131 H    0.960
     9   6 C    3.925 --     8 C    1.420    11 C    1.331    10 Br   0.999
    10  35 Br   1.144 --     9 C    0.999
    11   6 C    3.915 --     5 C    1.390     9 C    1.331    12 Cl   1.010
    12  17 Cl   1.184 --    11 C    1.010
    13   6 C    3.967 --    14 C    1.430     2 C    1.190     6 C    1.073
    14   6 C    3.945 --    13 C    1.430    15 C    1.113    17 C    1.109
    15   6 C    3.942 --    16 N    2.722    14 C    1.113
    16   7 N    2.952 --    15 C    2.722
    17   6 C    3.938 --    18 N    2.739    14 C    1.109
    18   7 N    2.945 --    17 C    2.739
    19   6 C    3.926 --     1 C    1.412    20 C    1.221    56 S    1.066
    20   6 C    3.950 --    36 C    1.273    19 C    1.221    21 N    1.195
    21   7 N    3.552 --    20 C    1.195    22 C    1.033    29 C    1.019
    22   6 C    3.956 --    28 C    1.366    23 C    1.364    21 N    1.033
    23   6 C    3.977 --    24 C    1.455    22 C    1.364   132 H    0.965
    24   6 C    3.989 --    23 C    1.455    25 C    1.403   133 H    0.968
                            28 C    0.106
    25   6 C    3.974 --    24 C    1.403    27 C    1.396    26 C    1.030
    26   6 C    3.993 --    25 C    1.030   136 H    0.984   135 H    0.972
                           134 H    0.966
    27   6 C    3.988 --    28 C    1.462    25 C    1.396   137 H    0.967
    28   6 C    3.984 --    27 C    1.462    22 C    1.366   138 H    0.968
                            24 C    0.106
    29   6 C    3.952 --    35 C    1.377    30 C    1.363    21 N    1.019
    30   6 C    3.981 --    31 C    1.465    29 C    1.363   139 H    0.968
                            34 C    0.102
    31   6 C    3.987 --    30 C    1.465    32 C    1.392   140 H    0.967
                            35 C    0.103
    32   6 C    3.968 --    34 C    1.404    31 C    1.392    33 C    1.031
    33   6 C    3.992 --    32 C    1.031   143 H    0.984   141 H    0.968
                           142 H    0.967
    34   6 C    3.988 --    35 C    1.453    32 C    1.404   144 H    0.966
                            30 C    0.102
    35   6 C    3.969 --    34 C    1.453    29 C    1.377   145 H    0.966
                            31 C    0.103
    36   6 C    3.934 --    55 C    1.341    20 C    1.273    37 S    1.095
    37  16 S    2.536 --    38 C    1.103    36 C    1.095
    38   6 C    3.891 --    39 C    1.393    57 C    1.138    37 S    1.103
    39   6 C    3.954 --    38 C    1.393    55 C    1.226    40 N    1.103
    40   7 N    3.494 --    39 C    1.103    48 C    1.047    41 C    1.043
    41   6 C    3.963 --    47 C    1.368    42 C    1.367    40 N    1.043
    42   6 C    3.982 --    43 C    1.463    41 C    1.367   146 H    0.967
                            46 C    0.104
    43   6 C    3.989 --    42 C    1.463    44 C    1.397   147 H    0.969
                            47 C    0.103
    44   6 C    3.975 --    46 C    1.407    43 C    1.397    45 C    1.027
    45   6 C    3.995 --    44 C    1.027   148 H    0.983   149 H    0.979
                           150 H    0.967
    46   6 C    3.990 --    47 C    1.451    44 C    1.407   151 H    0.969
                            42 C    0.104
    47   6 C    3.985 --    46 C    1.451    41 C    1.368   152 H    0.964
                            43 C    0.103
    48   6 C    3.960 --    54 C    1.370    49 C    1.361    40 N    1.047
    49   6 C    3.985 --    50 C    1.465    48 C    1.361   153 H    0.962
                            53 C    0.101
    50   6 C    3.990 --    49 C    1.465    51 C    1.394   154 H    0.969
                            54 C    0.103
    51   6 C    3.980 --    53 C    1.407    50 C    1.394    52 C    1.027
    52   6 C    3.995 --    51 C    1.027   155 H    0.985   157 H    0.973
                           156 H    0.970
    53   6 C    3.988 --    54 C    1.451    51 C    1.407   158 H    0.967
                            49 C    0.101
    54   6 C    3.985 --    53 C    1.451    48 C    1.370   159 H    0.968
                            50 C    0.103
    55   6 C    3.941 --    36 C    1.341    39 C    1.226    56 S    1.129
    56  16 S    2.666 --    55 C    1.129    19 C    1.066     4 O    0.121
    57   6 C    3.913 --    58 C    1.449    38 C    1.138    99 S    1.087
    58   6 C    3.965 --    57 C    1.449    67 C    1.248    59 C    1.053
    59   6 C    3.987 --    66 C    1.386    60 C    1.376    58 C    1.053
                            62 C    0.101
    60   6 C    3.987 --    61 C    1.449    59 C    1.376   160 H    0.968
                            63 C    0.104
    61   6 C    3.991 --    60 C    1.449    62 C    1.436   161 H    0.970
                            66 C    0.103
    62   6 C    3.982 --    61 C    1.436    63 C    1.404   162 H    0.969
                            59 C    0.101
    63   6 C    3.986 --    66 C    1.421    62 C    1.404    64 C    1.013
                            60 C    0.104
    64   6 C    3.995 --    63 C    1.013    65 C    1.000   164 H    0.975
                           163 H    0.971
    65   6 C    3.996 --    64 C    1.000   167 H    0.987   165 H    0.986
                           166 H    0.985
    66   6 C    3.986 --    63 C    1.421    59 C    1.386   168 H    0.960
                            61 C    0.103
    67   6 C    3.924 --    98 C    1.363    58 C    1.248    68 S    1.094
    68  16 S    2.512 --    69 C    1.103    67 C    1.094
    69   6 C    3.923 --    97 C    1.310    70 C    1.272    68 S    1.103
    70   6 C    3.953 --    69 C    1.272    95 C    1.266    71 C    1.175
    71   6 C    3.970 --    75 N    1.421    70 C    1.175    72 C    1.164
                            74 S    0.106
    72   6 C    3.970 --    73 N    1.422    76 C    1.175    71 C    1.164
                            74 S    0.106
    73   7 N    3.057 --    72 C    1.422    74 S    1.379    75 N    0.146
    74  16 S    3.093 --    75 N    1.380    73 N    1.379    72 C    0.106
                            71 C    0.106
    75   7 N    3.057 --    71 C    1.421    74 S    1.380    73 N    0.146
    76   6 C    3.954 --    77 C    1.280    94 C    1.259    72 C    1.175
    77   6 C    3.913 --    92 C    1.294    76 C    1.280    78 S    1.112
    78  16 S    2.515 --    77 C    1.112    79 C    1.089
    79   6 C    3.922 --    91 C    1.311    80 C    1.304    78 S    1.089
    80   6 C    3.948 --    89 C    1.368    79 C    1.304    81 C    1.044
    81   6 C    3.984 --    82 C    1.384    88 C    1.380    80 C    1.044
                            84 C    0.101
    82   6 C    3.982 --    83 C    1.444    81 C    1.384   169 H    0.967
                            85 C    0.104
    83   6 C    3.989 --    82 C    1.444    84 C    1.443   170 H    0.969
                            88 C    0.105
    84   6 C    3.979 --    83 C    1.443    85 C    1.400   171 H    0.968
                            81 C    0.101
    85   6 C    3.987 --    88 C    1.424    84 C    1.400    86 C    1.013
                            82 C    0.104
    86   6 C    3.995 --    85 C    1.013    87 C    1.000   173 H    0.974
                           172 H    0.973
    87   6 C    3.995 --    86 C    1.000   176 H    0.988   174 H    0.988
                           175 H    0.985
    88   6 C    3.985 --    85 C    1.424    81 C    1.380   177 H    0.967
                            83 C    0.105
    89   6 C    3.918 --    80 C    1.368   104 C    1.245    90 S    1.078
    90  16 S    2.564 --    91 C    1.132    89 C    1.078
    91   6 C    3.921 --    79 C    1.311    92 C    1.257    90 S    1.132
    92   6 C    3.939 --    77 C    1.294    91 C    1.257    93 N    1.163
    93   7 N    3.569 --    94 C    1.184    92 C    1.163   102 C    0.971
    94   6 C    3.928 --    76 C    1.259    95 C    1.224    93 N    1.184
    95   6 C    3.937 --    70 C    1.266    94 C    1.224    96 N    1.176
    96   7 N    3.574 --    95 C    1.176    97 C    1.175   100 C    0.973
    97   6 C    3.938 --    69 C    1.310    98 C    1.229    96 N    1.175
    98   6 C    3.932 --    67 C    1.363    97 C    1.229    99 S    1.118
    99  16 S    2.558 --    98 C    1.118    57 C    1.087
   100   6 C    3.946 --   101 C    1.006    96 N    0.973   178 H    0.960
                           179 H    0.950
   101   6 C    3.984 --   100 C    1.006   181 H    0.986   182 H    0.982
                           180 H    0.980
   102   6 C    3.946 --   103 C    1.007    93 N    0.971   183 H    0.960
                           184 H    0.949
   103   6 C    3.985 --   102 C    1.007   187 H    0.986   185 H    0.982
                           186 H    0.980
   104   6 C    3.932 --   105 C    1.335    89 C    1.245   109 S    1.175
   105   6 C    3.952 --   106 C    1.440   104 C    1.335   188 H    0.953
   106   6 C    3.843 --   105 C    1.440   108 C    1.268   107 F    0.960
   107   9 F    1.097 --   106 C    0.960
   108   6 C    3.934 --   110 C    1.362   106 C    1.268   109 S    1.098
   109  16 S    2.722 --   104 C    1.175   108 C    1.098   113 O    0.126
   110   6 C    3.931 --   111 C    1.421   108 C    1.362   189 H    0.938
   111   6 C    3.951 --   110 C    1.421   123 C    1.170   112 C    1.089
   112   6 C    3.913 --   113 O    1.687   111 C    1.089   114 C    1.013
   113   8 O    2.094 --   112 C    1.687   109 S    0.126
   114   6 C    3.969 --   121 C    1.376   115 C    1.297   112 C    1.013
   115   6 C    3.980 --   116 C    1.411   114 C    1.297   123 C    1.074
   116   6 C    3.959 --   115 C    1.411   117 C    1.376   190 H    0.948
   117   6 C    3.881 --   116 C    1.376   119 C    1.348   118 F    0.981
   118   9 F    1.118 --   117 C    0.981
   119   6 C    3.871 --   117 C    1.348   121 C    1.323   120 F    0.980
   120   9 F    1.114 --   119 C    0.980
   121   6 C    3.884 --   114 C    1.376   119 C    1.323   122 F    0.990
   122   9 F    1.136 --   121 C    0.990
   123   6 C    3.953 --   124 C    1.457   111 C    1.170   115 C    1.074
   124   6 C    3.931 --   123 C    1.457   125 C    1.102   127 C    1.101
   125   6 C    3.941 --   126 N    2.745   124 C    1.102
   126   7 N    2.951 --   125 C    2.745
   127   6 C    3.940 --   128 N    2.750   124 C    1.101
   128   7 N    2.952 --   127 C    2.750
   129   1 H    0.994 --     1 C    0.932
   130   1 H    0.991 --     7 C    0.955
   131   1 H    0.989 --     8 C    0.960
   132   1 H    0.996 --    23 C    0.965
   133   1 H    0.996 --    24 C    0.968
   134   1 H    0.995 --    26 C    0.966
   135   1 H    0.994 --    26 C    0.972
   136   1 H    0.997 --    26 C    0.984
   137   1 H    0.997 --    27 C    0.967
   138   1 H    0.999 --    28 C    0.968
   139   1 H    0.998 --    30 C    0.968
   140   1 H    0.996 --    31 C    0.967
   141   1 H    0.994 --    33 C    0.968
   142   1 H    0.994 --    33 C    0.967
   143   1 H    0.996 --    33 C    0.984
   144   1 H    0.996 --    34 C    0.966
   145   1 H    0.997 --    35 C    0.966
   146   1 H    0.998 --    42 C    0.967
   147   1 H    0.998 --    43 C    0.969
   148   1 H    0.997 --    45 C    0.983
   149   1 H    0.996 --    45 C    0.979
   150   1 H    0.997 --    45 C    0.967
   151   1 H    0.998 --    46 C    0.969
   152   1 H    0.999 --    47 C    0.964
   153   1 H    0.998 --    49 C    0.962
   154   1 H    0.998 --    50 C    0.969
   155   1 H    0.997 --    52 C    0.985
   156   1 H    0.997 --    52 C    0.970
   157   1 H    0.995 --    52 C    0.973
   158   1 H    0.997 --    53 C    0.967
   159   1 H    0.999 --    54 C    0.968
   160   1 H    0.998 --    60 C    0.968
   161   1 H    0.998 --    61 C    0.970
   162   1 H    0.998 --    62 C    0.969
   163   1 H    0.997 --    64 C    0.971
   164   1 H    0.998 --    64 C    0.975
   165   1 H    0.999 --    65 C    0.986
   166   1 H    0.997 --    65 C    0.985
   167   1 H    0.999 --    65 C    0.987
   168   1 H    0.998 --    66 C    0.960
   169   1 H    0.997 --    82 C    0.967
   170   1 H    0.996 --    83 C    0.969
   171   1 H    0.997 --    84 C    0.968
   172   1 H    0.997 --    86 C    0.973
   173   1 H    0.998 --    86 C    0.974
   174   1 H    0.998 --    87 C    0.988
   175   1 H    0.997 --    87 C    0.985
   176   1 H    0.998 --    87 C    0.988
   177   1 H    0.998 --    88 C    0.967
   178   1 H    0.992 --   100 C    0.960
   179   1 H    0.989 --   100 C    0.950
   180   1 H    0.994 --   101 C    0.980
   181   1 H    0.997 --   101 C    0.986
   182   1 H    0.996 --   101 C    0.982
   183   1 H    0.992 --   102 C    0.960
   184   1 H    0.989 --   102 C    0.949
   185   1 H    0.996 --   103 C    0.982
   186   1 H    0.994 --   103 C    0.980
   187   1 H    0.997 --   103 C    0.986
   188   1 H    0.991 --   105 C    0.953
   189   1 H    0.993 --   110 C    0.938
   190   1 H    0.986 --   116 C    0.948
 ---------------------------------------------------------------------------

Topologies differ in bond orders
Writing corrected topology to xtbtopo.mol

molecular dipole:
                 x           y           z       tot (Debye)
 q only:        1.063      -2.115      -2.492
   full:        1.275      -1.712      -2.476       8.309
molecular quadrupole (traceless):
                xx          xy          yy          xz          yz          zz
 q only:       80.030      95.397     127.287    -165.253     118.279    -207.317
  q+dip:       61.631     106.100     131.623    -178.109     136.836    -193.254
   full:       55.647     107.615     141.098    -179.015     139.516    -196.745


           -------------------------------------------------
          | TOTAL ENERGY             -341.018677651021 Eh   |
          | GRADIENT NORM               0.044660490482 Eh/α |
          | HOMO-LUMO GAP               0.255578923497 eV   |
           -------------------------------------------------

------------------------------------------------------------------------
 * finished run on 2022/02/07 at 16:55:35.211     
------------------------------------------------------------------------
 total:
 * wall-time:     0 d,  0 h,  0 min,  0.996 sec
 *  cpu-time:     0 d,  0 h,  0 min,  7.834 sec
 * ratio c/w:     7.862 speedup
 SCF:
 * wall-time:     0 d,  0 h,  0 min,  0.882 sec
 *  cpu-time:     0 d,  0 h,  0 min,  7.034 sec
 * ratio c/w:     7.971 speedup

