      -----------------------------------------------------------      
     |                   =====================                   |     
     |                           x T B                           |     
     |                   =====================                   |     
     |                         S. Grimme                         |     
     |          Mulliken Center for Theoretical Chemistry        |     
     |                    University of Bonn                     |     
      -----------------------------------------------------------      

   * xtb version 6.4.1 (unknown) compiled by 'oda6@login1.crc.pitt.edu' on 2021-06-25

   xtb is free software: you can redistribute it and/or modify it under
   the terms of the GNU Lesser General Public License as published by
   the Free Software Foundation, either version 3 of the License, or
   (at your option) any later version.
   
   xtb is distributed in the hope that it will be useful,
   but WITHOUT ANY WARRANTY; without even the implied warranty of
   MERCHANTABILITY or FITNESS FOR A PARTICULAR PURPOSE.  See the
   GNU Lesser General Public License for more details.
   
   Cite this work as:
   * C. Bannwarth, E. Caldeweyher, S. Ehlert, A. Hansen, P. Pracht,
     J. Seibert, S. Spicher, S. Grimme, WIREs Comput. Mol. Sci., 2020, 11,
     e01493. DOI: 10.1002/wcms.1493
   
   for GFN2-xTB:
   * C. Bannwarth, S. Ehlert and S. Grimme., J. Chem. Theory Comput., 2019,
     15, 1652-1671. DOI: 10.1021/acs.jctc.8b01176
   for GFN1-xTB:
   * S. Grimme, C. Bannwarth, P. Shushkov, J. Chem. Theory Comput., 2017,
     13, 1989-2009. DOI: 10.1021/acs.jctc.7b00118
   for GFN0-xTB:
   * P. Pracht, E. Caldeweyher, S. Ehlert, S. Grimme, ChemRxiv, 2019, preprint.
     DOI: 10.26434/chemrxiv.8326202.v1
   for GFN-FF:
   * S. Spicher and S. Grimme, Angew. Chem. Int. Ed., 2020, 59, 15665-15673.
     DOI: 10.1002/anie.202004239
   
   for DFT-D4:
   * E. Caldeweyher, C. Bannwarth and S. Grimme, J. Chem. Phys., 2017,
     147, 034112. DOI: 10.1063/1.4993215
   * E. Caldeweyher, S. Ehlert, A. Hansen, H. Neugebauer, S. Spicher,
     C. Bannwarth and S. Grimme, J. Chem. Phys., 2019, 150, 154122.
     DOI: 10.1063/1.5090222
   * E. Caldeweyher, J.-M. Mewes, S. Ehlert and S. Grimme, Phys. Chem. Chem. Phys.
     2020, 22, 8499-8512. DOI: 10.1039/D0CP00502A
   
   for sTDA-xTB:
   * S. Grimme and C. Bannwarth, J. Chem. Phys., 2016, 145, 054103.
     DOI: 10.1063/1.4959605
   
   in the mass-spec context:
   * V. Asgeirsson, C. Bauer and S. Grimme, Chem. Sci., 2017, 8, 4879.
     DOI: 10.1039/c7sc00601b
   * J. Koopman and S. Grimme, ACS Omega 2019, 4, 12, 15120-15133.
     DOI: 10.1021/acsomega.9b02011
   
   for metadynamics refer to:
   * S. Grimme, J. Chem. Theory Comput., 2019, 155, 2847-2862
     DOI: 10.1021/acs.jctc.9b00143
   
   for SPH calculations refer to:
   * S. Spicher and S. Grimme, J. Chem. Theory Comput., 2021, 17, 1701-1714
     DOI: 10.1021/acs.jctc.0c01306
   
   with help from (in alphabetical order)
   P. Atkinson, C. Bannwarth, F. Bohle, G. Brandenburg, E. Caldeweyher
   M. Checinski, S. Dohm, S. Ehlert, S. Ehrlich, I. Gerasimov, J. Koopman
   C. Lavigne, S. Lehtola, F. März, M. Müller, F. Musil, H. Neugebauer
   J. Pisarek, C. Plett, P. Pracht, J. Seibert, P. Shushkov, S. Spicher
   M. Stahn, M. Steiner, T. Strunk, J. Stückrath, T. Rose, and J. Unsleber
   
 * started run on 2022/02/06 at 09:44:57.117     

           -------------------------------------------------
          |                Calculation Setup                |
           -------------------------------------------------

          program call               : /ihome/ghutchison/oda6/xtb/xtb-641/bin/xtb ../../GFN2_output/6_28_86_53_6.mol --sp --alpb water
          hostname                   : smp-n29
          coordinate file            : ../../GFN2_output/6_28_86_53_6.mol
          omp threads                :                     8
          number of atoms            :                   199
          number of electrons        :                   626
          charge                     :                     0
          spin                       :                   0.0
          first test random number   :      0.94390304304275

   ID    Z sym.   atoms
    1    6 C      1-3, 5-8, 10-14, 16, 18, 19, 21-35, 37, 38, 40-54, 56-66,
                  68-71, 75, 76, 78-88, 90, 91, 93, 94, 96, 97, 99-103,
                  105-107, 109-111, 113-115, 117-120, 122-126, 128
    2    8 O      4, 108, 112, 116
    3   17 Cl     9, 121
    4    7 N      15, 17, 20, 39, 72, 74, 92, 95, 127, 129
    5   16 S      36, 55, 67, 73, 77, 89, 98, 104
    6    1 H      130-199

           -------------------------------------------------
          |                 G F N 2 - x T B                 |
           -------------------------------------------------

        Reference                      10.1021/acs.jctc.8b01176
      * Hamiltonian:
        H0-scaling (s, p, d)           1.850000    2.230000    2.230000
        zeta-weighting                 0.500000
      * Dispersion:
        s8                             2.700000
        a1                             0.520000
        a2                             5.000000
        s9                             5.000000
      * Repulsion:
        kExp                           1.500000    1.000000
        rExp                           1.000000
      * Coulomb:
        alpha                          2.000000
        third order                    shell-resolved
        anisotropic                    true
        a3                             3.000000
        a5                             4.000000
        cn-shift                       1.200000
        cn-exp                         4.000000
        max-rad                        5.000000

      * Solvation model:               ALPB
        Solvent                        water
        Parameter file                 internal GFN2-xTB/ALPB
        Dielectric constant                8.0200E+01
        Reference state                gsolv [1 M gas/solution]
        Free energy shift                  1.0808E-03 Eh       6.7819E-01 kcal/mol
        Temperature                        2.9815E+02 K
        Density                            1.0000E+00 kg/L
        Solvent mass                       1.8000E+01 g/mol
        Interaction kernel             P16
        Born radius scaling (c1)           1.4744E+00
        Born radii integrator          GBOBC
        Born offset                        0.0000E+00 a0       0.0000E+00 AA
        H-bond correction              true
        Ion screening                  false
        Surface tension                    1.0000E-05 Eh       1.5569E+01 dyn/cm
        Grid points                               230 per atom

          ...................................................
          :                      SETUP                      :
          :.................................................:
          :  # basis functions                 646          :
          :  # atomic orbitals                 636          :
          :  # shells                          338          :
          :  # electrons                       626          :
          :  max. iterations                   250          :
          :  Hamiltonian                  GFN2-xTB          :
          :  restarted?                      false          :
          :  GBSA solvation                   true          :
          :  PC potential                    false          :
          :  electronic temp.          300.0000000     K    :
          :  accuracy                    1.0000000          :
          :  -> integral cutoff          0.2500000E+02      :
          :  -> integral neglect         0.1000000E-07      :
          :  -> SCF convergence          0.1000000E-05 Eh   :
          :  -> wf. convergence          0.1000000E-03 e    :
          :  Broyden damping             0.4000000          :
          ...................................................

 iter      E             dE          RMSdq      gap      omega  full diag
   1   -346.2186798 -0.346219E+03  0.431E+00    0.36       0.0  T
   2   -346.5117327 -0.293053E+00  0.260E+00    0.61       1.0  T
   3   -346.4049242  0.106808E+00  0.134E+00    0.47       1.0  T
   4   -346.5941503 -0.189226E+00  0.490E-01    0.60       1.0  T
   5   -346.6259722 -0.318220E-01  0.159E-01    0.53       1.0  T
   6   -346.6279984 -0.202614E-02  0.751E-02    0.53       1.0  T
   7   -346.6283414 -0.343092E-03  0.348E-02    0.53       1.0  T
   8   -346.6283925 -0.510063E-04  0.205E-02    0.53       1.0  T
   9   -346.6284138 -0.213206E-04  0.142E-02    0.53       1.0  T
  10   -346.6284248 -0.109865E-04  0.991E-03    0.53       1.0  T
  11   -346.6284314 -0.665729E-05  0.672E-03    0.54       1.1  T
  12   -346.6284348 -0.340214E-05  0.385E-03    0.54       1.8  T
  13   -346.6284361 -0.128798E-05  0.207E-03    0.54       3.4  T
  14   -346.6284363 -0.241914E-06  0.130E-03    0.54       5.4  T
  15   -346.6284365 -0.109654E-06  0.722E-04    0.54       9.8  T
  16   -346.6284365 -0.310444E-07  0.370E-04    0.54      19.2  T

   *** convergence criteria satisfied after 16 iterations ***

         #    Occupation            Energy/Eh            Energy/eV
      -------------------------------------------------------------
         1        2.0000           -1.0742520             -29.2319
       ...           ...                  ...                  ...
       307        2.0000           -0.3884338             -10.5698
       308        2.0000           -0.3784291             -10.2976
       309        2.0000           -0.3767253             -10.2512
       310        2.0000           -0.3717132             -10.1148
       311        2.0000           -0.3629849              -9.8773
       312        2.0000           -0.3626040              -9.8670
       313        1.9999           -0.3514376              -9.5631 (HOMO)
       314        0.0001           -0.3317050              -9.0262 (LUMO)
       315        0.0000           -0.3269628              -8.8971
       316                         -0.3197271              -8.7002
       317                         -0.3151559              -8.5758
       318                         -0.2997326              -8.1561
       ...                                ...                  ...
       636                          1.1563026              31.4646
      -------------------------------------------------------------
                  HL-Gap            0.0197325 Eh            0.5369 eV
             Fermi-level           -0.3415745 Eh           -9.2947 eV

 SCC (total)                   0 d,  0 h,  0 min,  0.798 sec
 SCC setup                      ...        0 min,  0.008 sec (  0.969%)
 Dispersion                     ...        0 min,  0.009 sec (  1.180%)
 classical contributions        ...        0 min,  0.000 sec (  0.046%)
 integral evaluation            ...        0 min,  0.037 sec (  4.585%)
 iterations                     ...        0 min,  0.622 sec ( 77.914%)
 molecular gradient             ...        0 min,  0.119 sec ( 14.882%)
 printout                       ...        0 min,  0.003 sec (  0.413%)

         :::::::::::::::::::::::::::::::::::::::::::::::::::::
         ::                     SUMMARY                     ::
         :::::::::::::::::::::::::::::::::::::::::::::::::::::
         :: total energy            -341.215330655803 Eh    ::
         :: total w/o Gsasa/hb      -341.194109296697 Eh    ::
         :: gradient norm              0.041292743149 Eh/a0 ::
         :: HOMO-LUMO gap              0.536949931556 eV    ::
         ::.................................................::
         :: SCC energy              -346.628436487435 Eh    ::
         :: -> isotropic ES            0.207470825184 Eh    ::
         :: -> anisotropic ES          0.011081314647 Eh    ::
         :: -> anisotropic XC          0.190885307900 Eh    ::
         :: -> dispersion             -0.348700673597 Eh    ::
         :: -> Gsolv                  -0.065702684433 Eh    ::
         ::    -> Gelec               -0.044481325327 Eh    ::
         ::    -> Gsasa               -0.014457215150 Eh    ::
         ::    -> Ghb                 -0.007844903654 Eh    ::
         ::    -> Gshift               0.001080759698 Eh    ::
         :: repulsion energy           5.406513612673 Eh    ::
         :: add. restraining           0.000000000000 Eh    ::
         :: total charge              -0.000000000002 e     ::
         :::::::::::::::::::::::::::::::::::::::::::::::::::::

           -------------------------------------------------
          |                Property Printout                |
           -------------------------------------------------

    * Orbital Energies and Occupations

         #    Occupation            Energy/Eh            Energy/eV
      -------------------------------------------------------------
         1        2.0000           -1.0742520             -29.2319
       ...           ...                  ...                  ...
       301        2.0000           -0.3991818             -10.8623
       302        2.0000           -0.3977106             -10.8223
       303        2.0000           -0.3972008             -10.8084
       304        2.0000           -0.3946852             -10.7399
       305        2.0000           -0.3924657             -10.6795
       306        2.0000           -0.3896855             -10.6039
       307        2.0000           -0.3884338             -10.5698
       308        2.0000           -0.3784291             -10.2976
       309        2.0000           -0.3767253             -10.2512
       310        2.0000           -0.3717132             -10.1148
       311        2.0000           -0.3629849              -9.8773
       312        2.0000           -0.3626040              -9.8670
       313        1.9999           -0.3514376              -9.5631 (HOMO)
       314        0.0001           -0.3317050              -9.0262 (LUMO)
       315        0.0000           -0.3269628              -8.8971
       316                         -0.3197271              -8.7002
       317                         -0.3151559              -8.5758
       318                         -0.2997326              -8.1561
       319                         -0.2844795              -7.7411
       320                         -0.2805620              -7.6345
       321                         -0.2636825              -7.1752
       322                         -0.2596525              -7.0655
       323                         -0.2506435              -6.8204
       324                         -0.2493552              -6.7853
       ...                                ...                  ...
       636                          1.1563026              31.4646
      -------------------------------------------------------------
                  HL-Gap            0.0197325 Eh            0.5369 eV
             Fermi-level           -0.3415745 Eh           -9.2947 eV

     #   Z          covCN         q      C6AA      α(0)
     1   6 C        2.931    -0.015    28.385     8.737
     2   6 C        3.013    -0.047    29.148     8.856
     3   6 C        2.875     0.230    23.185     7.893
     4   8 O        0.856    -0.436    22.413     6.347
     5   6 C        3.042    -0.022    28.525     8.760
     6   6 C        2.915    -0.017    28.429     8.743
     7   6 C        2.959    -0.038    28.941     8.824
     8   6 C        2.891     0.110    25.563     8.289
     9  17 Cl       0.974    -0.173   104.588    15.646
    10   6 C        2.953    -0.037    28.907     8.818
    11   6 C        3.043     0.013    27.689     8.630
    12   6 C        3.021     0.037    27.150     8.547
    13   6 C        2.948    -0.004    28.114     8.696
    14   6 C        1.937     0.133    27.846     8.522
    15   7 N        0.911    -0.291    27.494     7.584
    16   6 C        1.943     0.134    27.802     8.515
    17   7 N        0.911    -0.299    27.707     7.613
    18   6 C        2.988     0.003    27.945     8.672
    19   6 C        3.042     0.066    26.484     8.441
    20   7 N        2.748    -0.041    22.029     6.971
    21   6 C        2.928     0.055    26.756     8.483
    22   6 C        2.920    -0.046    29.131     8.851
    23   6 C        2.926    -0.042    29.034     8.836
    24   6 C        2.966     0.019    27.586     8.615
    25   6 C        3.758    -0.125    22.953     6.830
    26   6 C        2.926    -0.040    29.004     8.832
    27   6 C        2.919    -0.048    29.184     8.859
    28   6 C        2.931     0.057    26.728     8.479
    29   6 C        2.921    -0.044    29.100     8.846
    30   6 C        2.926    -0.039    28.971     8.827
    31   6 C        2.966     0.021    27.537     8.607
    32   6 C        3.758    -0.123    22.918     6.825
    33   6 C        2.925    -0.041    29.010     8.833
    34   6 C        2.921    -0.044    29.089     8.845
    35   6 C        3.163     0.000    27.679     8.599
    36  16 S        2.251    -0.033   142.436    20.087
    37   6 C        3.038     0.003    27.916     8.666
    38   6 C        3.054     0.049    26.858     8.499
    39   7 N        2.748    -0.067    22.547     7.052
    40   6 C        2.926     0.057    26.721     8.477
    41   6 C        2.921    -0.049    29.208     8.863
    42   6 C        2.925    -0.043    29.063     8.841
    43   6 C        2.966     0.012    27.737     8.639
    44   6 C        3.758    -0.123    22.908     6.824
    45   6 C        2.925    -0.043    29.059     8.840
    46   6 C        2.921    -0.050    29.248     8.869
    47   6 C        2.927     0.058    26.698     8.474
    48   6 C        2.920    -0.049    29.219     8.864
    49   6 C        2.925    -0.043    29.074     8.843
    50   6 C        2.965     0.013    27.728     8.637
    51   6 C        3.758    -0.122    22.899     6.822
    52   6 C        2.926    -0.040    28.990     8.830
    53   6 C        2.921    -0.047    29.159     8.855
    54   6 C        3.169     0.014    27.346     8.544
    55  16 S        2.245    -0.075   144.179    20.209
    56   6 C        3.033     0.010    27.770     8.644
    57   6 C        3.108    -0.010    28.119     8.688
    58   6 C        2.974     0.009    27.803     8.649
    59   6 C        2.925    -0.038    28.941     8.822
    60   6 C        2.918    -0.033    28.821     8.804
    61   6 C        2.926    -0.040    28.995     8.831
    62   6 C        2.970     0.017    27.617     8.620
    63   6 C        3.807    -0.064    21.725     6.635
    64   6 C        3.754    -0.107    22.603     6.779
    65   6 C        2.932    -0.040    28.990     8.830
    66   6 C        3.192     0.010    27.280     8.518
    67  16 S        2.184    -0.061   143.579    20.167
    68   6 C        3.101    -0.000    27.910     8.657
    69   6 C        3.081    -0.042    28.940     8.819
    70   6 C        3.337     0.068    24.108     7.772
    71   6 C        3.338     0.068    24.105     7.771
    72   7 N        1.853    -0.302    28.689     7.939
    73  16 S        2.682     0.290   129.782    19.174
    74   7 N        1.853    -0.302    28.683     7.938
    75   6 C        3.075    -0.042    28.947     8.821
    76   6 C        3.105     0.002    27.844     8.646
    77  16 S        2.182    -0.051   143.176    20.139
    78   6 C        3.192     0.011    27.274     8.517
    79   6 C        3.107    -0.001    27.914     8.657
    80   6 C        2.974     0.017    27.628     8.622
    81   6 C        2.925    -0.036    28.890     8.815
    82   6 C        2.918    -0.034    28.850     8.808
    83   6 C        2.925    -0.042    29.041     8.837
    84   6 C        2.970     0.013    27.715     8.635
    85   6 C        3.806    -0.061    21.670     6.627
    86   6 C        3.754    -0.107    22.610     6.780
    87   6 C        2.931    -0.042    29.031     8.836
    88   6 C        3.044     0.016    27.616     8.619
    89  16 S        2.296    -0.018   141.813    20.043
    90   6 C        3.120     0.009    27.636     8.610
    91   6 C        3.249     0.031    26.292     8.301
    92   7 N        2.795    -0.026    21.739     6.925
    93   6 C        3.092     0.033    27.166     8.543
    94   6 C        3.087     0.031    27.202     8.549
    95   7 N        2.793    -0.026    21.745     6.926
    96   6 C        3.258     0.029    26.246     8.281
    97   6 C        3.124     0.003    27.760     8.628
    98  16 S        2.266    -0.050   143.137    20.136
    99   6 C        3.743    -0.012    20.861     6.516
   100   6 C        3.752    -0.124    22.942     6.830
   101   6 C        3.741    -0.010    20.832     6.512
   102   6 C        3.752    -0.127    22.993     6.838
   103   6 C        3.038    -0.001    28.017     8.682
   104  16 S        2.406     0.017   140.363    19.940
   105   6 C        2.975    -0.001    28.053     8.688
   106   6 C        3.015     0.118    25.393     8.266
   107   6 C        2.982     0.106    25.645     8.307
   108   8 O        1.704    -0.290    18.818     5.857
   109   6 C        3.691     0.075    19.497     6.319
   110   6 C        3.799    -0.089    22.196     6.708
   111   6 C        3.692     0.070    19.575     6.331
   112   8 O        1.705    -0.272    18.514     5.809
   113   6 C        2.920    -0.011    28.284     8.721
   114   6 C        3.011    -0.044    29.068     8.844
   115   6 C        2.875     0.229    23.208     7.897
   116   8 O        0.970    -0.401    21.647     6.241
   117   6 C        3.044    -0.019    28.436     8.746
   118   6 C        2.914    -0.015    28.391     8.737
   119   6 C        2.959    -0.036    28.889     8.816
   120   6 C        2.890     0.112    25.521     8.283
   121  17 Cl       0.974    -0.173   104.571    15.645
   122   6 C        2.954    -0.036    28.886     8.815
   123   6 C        3.039     0.012    27.699     8.632
   124   6 C        3.019     0.037    27.150     8.547
   125   6 C        2.947     0.001    28.009     8.680
   126   6 C        1.944     0.131    27.868     8.525
   127   7 N        0.911    -0.284    27.329     7.561
   128   6 C        1.946     0.134    27.813     8.517
   129   7 N        0.911    -0.287    27.408     7.572
   130   1 H        0.925     0.070     2.081     2.256
   131   1 H        0.926     0.086     1.923     2.168
   132   1 H        0.926     0.093     1.847     2.125
   133   1 H        0.926     0.072     2.065     2.247
   134   1 H        0.926     0.048     2.344     2.394
   135   1 H        0.926     0.053     2.285     2.364
   136   1 H        0.924     0.061     2.188     2.313
   137   1 H        0.925     0.061     2.190     2.314
   138   1 H        0.925     0.053     2.282     2.362
   139   1 H        0.926     0.040     2.451     2.448
   140   1 H        0.926     0.039     2.459     2.452
   141   1 H        0.926     0.036     2.500     2.473
   142   1 H        0.926     0.051     2.310     2.377
   143   1 H        0.925     0.053     2.279     2.361
   144   1 H        0.925     0.065     2.147     2.291
   145   1 H        0.925     0.062     2.179     2.309
   146   1 H        0.926     0.051     2.304     2.374
   147   1 H        0.926     0.044     2.401     2.423
   148   1 H        0.926     0.042     2.422     2.434
   149   1 H        0.926     0.047     2.361     2.403
   150   1 H        0.925     0.054     2.269     2.356
   151   1 H        0.925     0.052     2.299     2.371
   152   1 H        0.924     0.058     2.226     2.333
   153   1 H        0.926     0.039     2.456     2.451
   154   1 H        0.926     0.022     2.704     2.571
   155   1 H        0.926     0.042     2.421     2.433
   156   1 H        0.926     0.045     2.382     2.414
   157   1 H        0.924     0.062     2.175     2.306
   158   1 H        0.925     0.055     2.261     2.352
   159   1 H        0.925     0.049     2.334     2.389
   160   1 H        0.926     0.026     2.651     2.546
   161   1 H        0.926     0.025     2.653     2.547
   162   1 H        0.926     0.028     2.613     2.528
   163   1 H        0.926     0.041     2.430     2.438
   164   1 H        0.926     0.042     2.424     2.435
   165   1 H        0.924     0.045     2.384     2.415
   166   1 H        0.924     0.044     2.391     2.418
   167   1 H        0.925     0.045     2.384     2.415
   168   1 H        0.925     0.043     2.407     2.426
   169   1 H        0.925     0.036     2.499     2.472
   170   1 H        0.926     0.038     2.473     2.459
   171   1 H        0.926     0.043     2.409     2.427
   172   1 H        0.926     0.048     2.343     2.394
   173   1 H        0.926     0.047     2.360     2.402
   174   1 H        0.924     0.046     2.370     2.408
   175   1 H        0.924     0.034     2.528     2.486
   176   1 H        0.925     0.043     2.415     2.430
   177   1 H        0.925     0.038     2.482     2.464
   178   1 H        0.925     0.045     2.388     2.416
   179   1 H        0.925     0.026     2.651     2.546
   180   1 H        0.924     0.082     1.963     2.191
   181   1 H        0.924     0.080     1.977     2.199
   182   1 H        0.925     0.072     2.067     2.248
   183   1 H        0.925     0.048     2.345     2.395
   184   1 H        0.925     0.054     2.273     2.358
   185   1 H        0.925     0.082     1.958     2.188
   186   1 H        0.924     0.079     1.987     2.204
   187   1 H        0.925     0.055     2.255     2.348
   188   1 H        0.925     0.071     2.074     2.252
   189   1 H        0.925     0.050     2.316     2.380
   190   1 H        0.924     0.075     2.030     2.228
   191   1 H        0.923     0.041     2.432     2.439
   192   1 H        0.925     0.079     1.986     2.204
   193   1 H        0.924     0.073     2.058     2.243
   194   1 H        0.923     0.051     2.307     2.375
   195   1 H        0.924     0.084     1.936     2.176
   196   1 H        0.925     0.078     1.999     2.211
   197   1 H        0.926     0.093     1.847     2.125
   198   1 H        0.926     0.098     1.803     2.100
   199   1 H        0.926     0.073     2.057     2.243

 Mol. C6AA /au·bohr⁶  :     694434.598472
 Mol. C8AA /au·bohr⁸  :   19420550.134168
 Mol. α(0) /au        :       1331.790896


Wiberg/Mayer (AO) data.
largest (>0.10) Wiberg bond orders for each atom

 ---------------------------------------------------------------------------
     #   Z sym  total        # sym  WBO       # sym  WBO       # sym  WBO
 ---------------------------------------------------------------------------
     1   6 C    3.941 --     2 C    1.453    18 C    1.335   130 H    0.943
     2   6 C    3.952 --     1 C    1.453    12 C    1.177     3 C    1.044
     3   6 C    3.910 --     4 O    1.719     2 C    1.044     5 C    1.017
     4   8 O    1.989 --     3 C    1.719
     5   6 C    3.974 --     6 C    1.420    11 C    1.293     3 C    1.017
     6   6 C    3.975 --     7 C    1.421     5 C    1.420   131 H    0.962
     7   6 C    3.964 --     6 C    1.421     8 C    1.404   132 H    0.962
     8   6 C    3.905 --     7 C    1.404    10 C    1.382     9 Cl   0.981
     9  17 Cl   1.115 --     8 C    0.981
    10   6 C    3.971 --    11 C    1.419     8 C    1.382   133 H    0.959
    11   6 C    3.982 --    10 C    1.419     5 C    1.293    12 C    1.067
    12   6 C    3.957 --    13 C    1.436     2 C    1.177    11 C    1.067
    13   6 C    3.953 --    12 C    1.436    14 C    1.113    16 C    1.109
    14   6 C    3.940 --    15 N    2.731    13 C    1.113
    15   7 N    2.951 --    14 C    2.731
    16   6 C    3.940 --    17 N    2.729    13 C    1.109
    17   7 N    2.961 --    16 C    2.729
    18   6 C    3.917 --     1 C    1.335    19 C    1.280    55 S    1.059
    19   6 C    3.956 --    18 C    1.280    35 C    1.240    20 N    1.185
    20   7 N    3.524 --    19 C    1.185    28 C    1.032    21 C    1.014
    21   6 C    3.957 --    22 C    1.379    27 C    1.376    20 N    1.014
    22   6 C    3.980 --    23 C    1.455    21 C    1.379   134 H    0.967
                            26 C    0.102
    23   6 C    3.989 --    22 C    1.455    24 C    1.403   135 H    0.967
                            27 C    0.106
    24   6 C    3.979 --    23 C    1.403    26 C    1.400    25 C    1.030
    25   6 C    3.993 --    24 C    1.030   138 H    0.982   137 H    0.978
                           136 H    0.963
    26   6 C    3.989 --    27 C    1.457    24 C    1.400   139 H    0.968
                            22 C    0.102
    27   6 C    3.986 --    26 C    1.457    21 C    1.376   140 H    0.961
                            23 C    0.106
    28   6 C    3.954 --    34 C    1.372    29 C    1.360    20 N    1.032
    29   6 C    3.979 --    30 C    1.463    28 C    1.360   141 H    0.967
                            33 C    0.101
    30   6 C    3.988 --    29 C    1.463    31 C    1.394   142 H    0.967
                            34 C    0.104
    31   6 C    3.967 --    33 C    1.402    30 C    1.394    32 C    1.030
    32   6 C    3.992 --    31 C    1.030   143 H    0.984   145 H    0.967
                           144 H    0.965
    33   6 C    3.988 --    34 C    1.456    31 C    1.402   146 H    0.967
                            29 C    0.101
    34   6 C    3.971 --    33 C    1.456    28 C    1.372   147 H    0.967
                            30 C    0.104
    35   6 C    3.932 --    54 C    1.354    19 C    1.240    36 S    1.108
    36  16 S    2.559 --    35 C    1.108    37 C    1.095
    37   6 C    3.899 --    38 C    1.383    56 C    1.175    36 S    1.095
    38   6 C    3.951 --    37 C    1.383    54 C    1.235    39 N    1.100
    39   7 N    3.495 --    38 C    1.100    40 C    1.043    47 C    1.041
    40   6 C    3.961 --    41 C    1.369    46 C    1.367    39 N    1.043
    41   6 C    3.985 --    42 C    1.453    40 C    1.369   148 H    0.967
                            45 C    0.104
    42   6 C    3.989 --    41 C    1.453    43 C    1.406   149 H    0.967
                            46 C    0.102
    43   6 C    3.981 --    42 C    1.406    45 C    1.396    44 C    1.028
    44   6 C    3.994 --    43 C    1.028   151 H    0.984   150 H    0.976
                           152 H    0.967
    45   6 C    3.990 --    46 C    1.463    43 C    1.396   153 H    0.969
                            41 C    0.104
    46   6 C    3.986 --    45 C    1.463    40 C    1.367   154 H    0.965
                            42 C    0.102
    47   6 C    3.963 --    48 C    1.371    53 C    1.367    39 N    1.041
    48   6 C    3.983 --    49 C    1.458    47 C    1.371   155 H    0.967
                            52 C    0.105
    49   6 C    3.989 --    48 C    1.458    50 C    1.401   156 H    0.968
                            53 C    0.102
    50   6 C    3.976 --    49 C    1.401    52 C    1.401    51 C    1.029
    51   6 C    3.992 --    50 C    1.029   159 H    0.983   158 H    0.967
                           157 H    0.964
    52   6 C    3.991 --    53 C    1.457    50 C    1.401   160 H    0.970
                            48 C    0.105
    53   6 C    3.985 --    52 C    1.457    47 C    1.367   161 H    0.968
                            49 C    0.102
    54   6 C    3.933 --    35 C    1.354    38 C    1.235    55 S    1.110
    55  16 S    2.523 --    54 C    1.110    18 C    1.059
    56   6 C    3.914 --    57 C    1.438    37 C    1.175    98 S    1.074
    57   6 C    3.958 --    56 C    1.438    66 C    1.257    58 C    1.044
    58   6 C    3.987 --    65 C    1.395    59 C    1.373    57 C    1.044
                            61 C    0.100
    59   6 C    3.988 --    60 C    1.454    58 C    1.373   162 H    0.967
                            62 C    0.105
    60   6 C    3.990 --    59 C    1.454    61 C    1.431   163 H    0.969
                            65 C    0.105
    61   6 C    3.982 --    60 C    1.431    62 C    1.410   164 H    0.965
                            58 C    0.100
    62   6 C    3.986 --    65 C    1.413    61 C    1.410    63 C    1.013
                            59 C    0.105
    63   6 C    3.995 --    62 C    1.013    64 C    1.002   166 H    0.976
                           165 H    0.968
    64   6 C    3.995 --    63 C    1.002   169 H    0.987   168 H    0.986
                           167 H    0.986
    65   6 C    3.984 --    62 C    1.413    58 C    1.395   170 H    0.965
                            60 C    0.105
    66   6 C    3.923 --    97 C    1.355    57 C    1.257    67 S    1.091
    67  16 S    2.504 --    68 C    1.104    66 C    1.091
    68   6 C    3.921 --    96 C    1.318    69 C    1.262    67 S    1.104
    69   6 C    3.956 --    94 C    1.276    68 C    1.262    70 C    1.175
    70   6 C    3.970 --    74 N    1.426    69 C    1.175    71 C    1.155
                            73 S    0.107
    71   6 C    3.970 --    72 N    1.425    75 C    1.178    70 C    1.155
                            73 S    0.107
    72   7 N    3.057 --    71 C    1.425    73 S    1.375    74 N    0.145
    73  16 S    3.084 --    74 N    1.376    72 N    1.375    70 C    0.107
                            71 C    0.107
    74   7 N    3.058 --    70 C    1.426    73 S    1.376    72 N    0.145
    75   6 C    3.957 --    93 C    1.274    76 C    1.260    71 C    1.178
    76   6 C    3.919 --    91 C    1.317    75 C    1.260    77 S    1.108
    77  16 S    2.510 --    76 C    1.108    78 C    1.093
    78   6 C    3.924 --    90 C    1.340    79 C    1.269    77 S    1.093
    79   6 C    3.953 --    88 C    1.416    78 C    1.269    80 C    1.046
    80   6 C    3.986 --    81 C    1.383    87 C    1.383    79 C    1.046
                            83 C    0.102
    81   6 C    3.984 --    82 C    1.445    80 C    1.383   171 H    0.967
                            84 C    0.104
    82   6 C    3.989 --    81 C    1.445    83 C    1.441   172 H    0.969
                            87 C    0.105
    83   6 C    3.980 --    82 C    1.441    84 C    1.399   173 H    0.968
                            80 C    0.102
    84   6 C    3.987 --    87 C    1.424    83 C    1.399    85 C    1.012
                            81 C    0.104
    85   6 C    3.996 --    84 C    1.012    86 C    1.000   175 H    0.975
                           174 H    0.973
    86   6 C    3.995 --    85 C    1.000   177 H    0.988   176 H    0.988
                           178 H    0.985
    87   6 C    3.987 --    84 C    1.424    80 C    1.383   179 H    0.967
                            82 C    0.105
    88   6 C    3.922 --    79 C    1.416   103 C    1.190    89 S    1.088
    89  16 S    2.556 --    90 C    1.124    88 C    1.088
    90   6 C    3.924 --    78 C    1.340    91 C    1.243    89 S    1.124
    91   6 C    3.942 --    76 C    1.317    90 C    1.243    92 N    1.155
    92   7 N    3.549 --    93 C    1.175    91 C    1.155   101 C    0.969
    93   6 C    3.937 --    75 C    1.274    94 C    1.221    92 N    1.175
    94   6 C    3.940 --    69 C    1.276    93 C    1.221    95 N    1.172
    95   7 N    3.554 --    94 C    1.172    96 C    1.163    99 C    0.970
    96   6 C    3.941 --    68 C    1.318    97 C    1.234    95 N    1.163
    97   6 C    3.928 --    66 C    1.355    96 C    1.234    98 S    1.118
    98  16 S    2.556 --    97 C    1.118    56 C    1.074
    99   6 C    3.950 --   100 C    1.008    95 N    0.970   181 H    0.961
                           180 H    0.953
   100   6 C    3.986 --    99 C    1.008   183 H    0.987   184 H    0.983
                           182 H    0.980
   101   6 C    3.951 --   102 C    1.006    92 N    0.969   186 H    0.964
                           185 H    0.960
   102   6 C    3.985 --   101 C    1.006   189 H    0.986   187 H    0.981
                           188 H    0.980
   103   6 C    3.930 --   107 C    1.321    88 C    1.190   104 S    1.169
   104  16 S    2.741 --   103 C    1.169   105 C    1.096   116 O    0.137
   105   6 C    3.929 --   113 C    1.362   106 C    1.251   104 S    1.096
   106   6 C    3.915 --   107 C    1.313   105 C    1.251   112 O    1.086
   107   6 C    3.922 --   103 C    1.321   106 C    1.313   108 O    1.052
   108   8 O    2.202 --   107 C    1.052   109 C    0.952
   109   6 C    3.929 --   110 C    1.001   190 H    0.966   191 H    0.961
                           108 O    0.952
   110   6 C    3.989 --   109 C    1.001   111 C    1.001   193 H    0.971
                           192 H    0.968
   111   6 C    3.921 --   110 C    1.001   195 H    0.965   194 H    0.962
                           112 O    0.945
   112   8 O    2.246 --   106 C    1.086   111 C    0.945
   113   6 C    3.943 --   114 C    1.432   105 C    1.362   196 H    0.935
   114   6 C    3.955 --   113 C    1.432   124 C    1.169   115 C    1.083
   115   6 C    3.909 --   116 O    1.672   114 C    1.083   117 C    1.024
   116   8 O    2.083 --   115 C    1.672   104 S    0.137
   117   6 C    3.975 --   118 C    1.417   123 C    1.292   115 C    1.024
   118   6 C    3.973 --   119 C    1.422   117 C    1.417   197 H    0.960
   119   6 C    3.963 --   118 C    1.422   120 C    1.402   198 H    0.961
   120   6 C    3.904 --   119 C    1.402   122 C    1.382   121 Cl   0.982
   121  17 Cl   1.117 --   120 C    0.982
   122   6 C    3.972 --   123 C    1.417   120 C    1.382   199 H    0.958
   123   6 C    3.982 --   122 C    1.417   117 C    1.292   124 C    1.073
   124   6 C    3.963 --   125 C    1.456   114 C    1.169   123 C    1.073
   125   6 C    3.943 --   124 C    1.456   126 C    1.104   128 C    1.104
   126   6 C    3.941 --   127 N    2.738   125 C    1.104
   127   7 N    2.951 --   126 C    2.738
   128   6 C    3.939 --   129 N    2.744   125 C    1.104
   129   7 N    2.951 --   128 C    2.744
   130   1 H    0.992 --     1 C    0.943
   131   1 H    0.992 --     6 C    0.962
   132   1 H    0.990 --     7 C    0.962
   133   1 H    0.994 --    10 C    0.959
   134   1 H    0.997 --    22 C    0.967
   135   1 H    0.997 --    23 C    0.967
   136   1 H    0.995 --    25 C    0.963
   137   1 H    0.996 --    25 C    0.978
   138   1 H    0.997 --    25 C    0.982
   139   1 H    0.998 --    26 C    0.968
   140   1 H    0.998 --    27 C    0.961
   141   1 H    0.998 --    29 C    0.967
   142   1 H    0.997 --    30 C    0.967
   143   1 H    0.997 --    32 C    0.984
   144   1 H    0.994 --    32 C    0.965
   145   1 H    0.995 --    32 C    0.967
   146   1 H    0.997 --    33 C    0.967
   147   1 H    0.998 --    34 C    0.967
   148   1 H    0.998 --    41 C    0.967
   149   1 H    0.997 --    42 C    0.967
   150   1 H    0.996 --    44 C    0.976
   151   1 H    0.997 --    44 C    0.984
   152   1 H    0.995 --    44 C    0.967
   153   1 H    0.998 --    45 C    0.969
   154   1 H    0.999 --    46 C    0.965
   155   1 H    0.998 --    48 C    0.967
   156   1 H    0.997 --    49 C    0.968
   157   1 H    0.994 --    51 C    0.964
   158   1 H    0.996 --    51 C    0.967
   159   1 H    0.997 --    51 C    0.983
   160   1 H    0.999 --    52 C    0.970
   161   1 H    0.999 --    53 C    0.968
   162   1 H    0.999 --    59 C    0.967
   163   1 H    0.997 --    60 C    0.969
   164   1 H    0.998 --    61 C    0.965
   165   1 H    0.998 --    63 C    0.968
   166   1 H    0.998 --    63 C    0.976
   167   1 H    0.997 --    64 C    0.986
   168   1 H    0.998 --    64 C    0.986
   169   1 H    0.999 --    64 C    0.987
   170   1 H    0.998 --    65 C    0.965
   171   1 H    0.998 --    81 C    0.967
   172   1 H    0.996 --    82 C    0.969
   173   1 H    0.997 --    83 C    0.968
   174   1 H    0.997 --    85 C    0.973
   175   1 H    0.999 --    85 C    0.975
   176   1 H    0.998 --    86 C    0.988
   177   1 H    0.999 --    86 C    0.988
   178   1 H    0.997 --    86 C    0.985
   179   1 H    0.999 --    87 C    0.967
   180   1 H    0.991 --    99 C    0.953
   181   1 H    0.993 --    99 C    0.961
   182   1 H    0.994 --   100 C    0.980
   183   1 H    0.998 --   100 C    0.987
   184   1 H    0.997 --   100 C    0.983
   185   1 H    0.992 --   101 C    0.960
   186   1 H    0.991 --   101 C    0.964
   187   1 H    0.997 --   102 C    0.981
   188   1 H    0.994 --   102 C    0.980
   189   1 H    0.997 --   102 C    0.986
   190   1 H    0.993 --   109 C    0.966
   191   1 H    0.997 --   109 C    0.961
   192   1 H    0.993 --   110 C    0.968
   193   1 H    0.995 --   110 C    0.971
   194   1 H    0.995 --   111 C    0.962
   195   1 H    0.992 --   111 C    0.965
   196   1 H    0.993 --   113 C    0.935
   197   1 H    0.991 --   118 C    0.960
   198   1 H    0.990 --   119 C    0.961
   199   1 H    0.994 --   122 C    0.958
 ---------------------------------------------------------------------------

Topologies differ in bond orders
Writing corrected topology to xtbtopo.mol

molecular dipole:
                 x           y           z       tot (Debye)
 q only:        6.148      -2.505      -1.340
   full:        5.322      -2.064      -1.680      15.123
molecular quadrupole (traceless):
                xx          xy          yy          xz          yz          zz
 q only:      -46.289      76.825      57.482      49.788     -55.255     -11.193
  q+dip:      -40.571      71.763      43.055      47.661     -55.851      -2.484
   full:      -43.403      81.772      49.080      47.130     -60.125      -5.677


           -------------------------------------------------
          | TOTAL ENERGY             -341.215330655803 Eh   |
          | GRADIENT NORM               0.041292743149 Eh/α |
          | HOMO-LUMO GAP               0.536949931556 eV   |
           -------------------------------------------------

------------------------------------------------------------------------
 * finished run on 2022/02/06 at 09:44:58.019     
------------------------------------------------------------------------
 total:
 * wall-time:     0 d,  0 h,  0 min,  0.902 sec
 *  cpu-time:     0 d,  0 h,  0 min,  7.104 sec
 * ratio c/w:     7.875 speedup
 SCF:
 * wall-time:     0 d,  0 h,  0 min,  0.801 sec
 *  cpu-time:     0 d,  0 h,  0 min,  6.384 sec
 * ratio c/w:     7.966 speedup

