      -----------------------------------------------------------      
     |                   =====================                   |     
     |                           x T B                           |     
     |                   =====================                   |     
     |                         S. Grimme                         |     
     |          Mulliken Center for Theoretical Chemistry        |     
     |                    University of Bonn                     |     
      -----------------------------------------------------------      

   * xtb version 6.4.1 (unknown) compiled by 'oda6@login1.crc.pitt.edu' on 2021-06-25

   xtb is free software: you can redistribute it and/or modify it under
   the terms of the GNU Lesser General Public License as published by
   the Free Software Foundation, either version 3 of the License, or
   (at your option) any later version.
   
   xtb is distributed in the hope that it will be useful,
   but WITHOUT ANY WARRANTY; without even the implied warranty of
   MERCHANTABILITY or FITNESS FOR A PARTICULAR PURPOSE.  See the
   GNU Lesser General Public License for more details.
   
   Cite this work as:
   * C. Bannwarth, E. Caldeweyher, S. Ehlert, A. Hansen, P. Pracht,
     J. Seibert, S. Spicher, S. Grimme, WIREs Comput. Mol. Sci., 2020, 11,
     e01493. DOI: 10.1002/wcms.1493
   
   for GFN2-xTB:
   * C. Bannwarth, S. Ehlert and S. Grimme., J. Chem. Theory Comput., 2019,
     15, 1652-1671. DOI: 10.1021/acs.jctc.8b01176
   for GFN1-xTB:
   * S. Grimme, C. Bannwarth, P. Shushkov, J. Chem. Theory Comput., 2017,
     13, 1989-2009. DOI: 10.1021/acs.jctc.7b00118
   for GFN0-xTB:
   * P. Pracht, E. Caldeweyher, S. Ehlert, S. Grimme, ChemRxiv, 2019, preprint.
     DOI: 10.26434/chemrxiv.8326202.v1
   for GFN-FF:
   * S. Spicher and S. Grimme, Angew. Chem. Int. Ed., 2020, 59, 15665-15673.
     DOI: 10.1002/anie.202004239
   
   for DFT-D4:
   * E. Caldeweyher, C. Bannwarth and S. Grimme, J. Chem. Phys., 2017,
     147, 034112. DOI: 10.1063/1.4993215
   * E. Caldeweyher, S. Ehlert, A. Hansen, H. Neugebauer, S. Spicher,
     C. Bannwarth and S. Grimme, J. Chem. Phys., 2019, 150, 154122.
     DOI: 10.1063/1.5090222
   * E. Caldeweyher, J.-M. Mewes, S. Ehlert and S. Grimme, Phys. Chem. Chem. Phys.
     2020, 22, 8499-8512. DOI: 10.1039/D0CP00502A
   
   for sTDA-xTB:
   * S. Grimme and C. Bannwarth, J. Chem. Phys., 2016, 145, 054103.
     DOI: 10.1063/1.4959605
   
   in the mass-spec context:
   * V. Asgeirsson, C. Bauer and S. Grimme, Chem. Sci., 2017, 8, 4879.
     DOI: 10.1039/c7sc00601b
   * J. Koopman and S. Grimme, ACS Omega 2019, 4, 12, 15120-15133.
     DOI: 10.1021/acsomega.9b02011
   
   for metadynamics refer to:
   * S. Grimme, J. Chem. Theory Comput., 2019, 155, 2847-2862
     DOI: 10.1021/acs.jctc.9b00143
   
   for SPH calculations refer to:
   * S. Spicher and S. Grimme, J. Chem. Theory Comput., 2021, 17, 1701-1714
     DOI: 10.1021/acs.jctc.0c01306
   
   with help from (in alphabetical order)
   P. Atkinson, C. Bannwarth, F. Bohle, G. Brandenburg, E. Caldeweyher
   M. Checinski, S. Dohm, S. Ehlert, S. Ehrlich, I. Gerasimov, J. Koopman
   C. Lavigne, S. Lehtola, F. März, M. Müller, F. Musil, H. Neugebauer
   J. Pisarek, C. Plett, P. Pracht, J. Seibert, P. Shushkov, S. Spicher
   M. Stahn, M. Steiner, T. Strunk, J. Stückrath, T. Rose, and J. Unsleber
   
 * started run on 2022/02/05 at 05:46:08.177     

           -------------------------------------------------
          |                Calculation Setup                |
           -------------------------------------------------

          program call               : /ihome/ghutchison/oda6/xtb/xtb-641/bin/xtb ../../GFN2_output/9_126_86_156_9.mol --sp --alpb water
          hostname                   : smp-n29
          coordinate file            : ../../GFN2_output/9_126_86_156_9.mol
          omp threads                :                     8
          number of atoms            :                   181
          number of electrons        :                   570
          charge                     :                     0
          spin                       :                   0.0
          first test random number   :      0.63100697409156

   ID    Z sym.   atoms
    1    6 C      1-3, 5-10, 12-18, 20, 22, 23, 25-27, 29-33, 35, 36, 38-48,
                  50-53, 57, 58, 60-70, 72, 73, 75, 76, 78, 79, 81-87, 89-93,
                  95-99, 101-106, 108-114, 116
    2    8 O      4, 24, 28, 88, 94, 100
    3    9 F      11, 107
    4    7 N      19, 21, 34, 37, 54, 56, 74, 77, 115, 117
    5   16 S      49, 55, 59, 71, 80
    6    1 H      118-181

           -------------------------------------------------
          |                 G F N 2 - x T B                 |
           -------------------------------------------------

        Reference                      10.1021/acs.jctc.8b01176
      * Hamiltonian:
        H0-scaling (s, p, d)           1.850000    2.230000    2.230000
        zeta-weighting                 0.500000
      * Dispersion:
        s8                             2.700000
        a1                             0.520000
        a2                             5.000000
        s9                             5.000000
      * Repulsion:
        kExp                           1.500000    1.000000
        rExp                           1.000000
      * Coulomb:
        alpha                          2.000000
        third order                    shell-resolved
        anisotropic                    true
        a3                             3.000000
        a5                             4.000000
        cn-shift                       1.200000
        cn-exp                         4.000000
        max-rad                        5.000000

      * Solvation model:               ALPB
        Solvent                        water
        Parameter file                 internal GFN2-xTB/ALPB
        Dielectric constant                8.0200E+01
        Reference state                gsolv [1 M gas/solution]
        Free energy shift                  1.0808E-03 Eh       6.7819E-01 kcal/mol
        Temperature                        2.9815E+02 K
        Density                            1.0000E+00 kg/L
        Solvent mass                       1.8000E+01 g/mol
        Interaction kernel             P16
        Born radius scaling (c1)           1.4744E+00
        Born radii integrator          GBOBC
        Born offset                        0.0000E+00 a0       0.0000E+00 AA
        H-bond correction              true
        Ion screening                  false
        Surface tension                    1.0000E-05 Eh       1.5569E+01 dyn/cm
        Grid points                               230 per atom

          ...................................................
          :                      SETUP                      :
          :.................................................:
          :  # basis functions                 562          :
          :  # atomic orbitals                 557          :
          :  # shells                          303          :
          :  # electrons                       570          :
          :  max. iterations                   250          :
          :  Hamiltonian                  GFN2-xTB          :
          :  restarted?                      false          :
          :  GBSA solvation                   true          :
          :  PC potential                    false          :
          :  electronic temp.          300.0000000     K    :
          :  accuracy                    1.0000000          :
          :  -> integral cutoff          0.2500000E+02      :
          :  -> integral neglect         0.1000000E-07      :
          :  -> SCF convergence          0.1000000E-05 Eh   :
          :  -> wf. convergence          0.1000000E-03 e    :
          :  Broyden damping             0.4000000          :
          ...................................................

 iter      E             dE          RMSdq      gap      omega  full diag
   1   -317.7728881 -0.317773E+03  0.448E+00    1.04       0.0  T
   2   -318.0699697 -0.297082E+00  0.270E+00    0.69       1.0  T
   3   -317.9762763  0.936934E-01  0.144E+00    0.76       1.0  T
   4   -318.1608447 -0.184568E+00  0.474E-01    0.74       1.0  T
   5   -318.1861480 -0.253033E-01  0.150E-01    0.65       1.0  T
   6   -318.1874776 -0.132957E-02  0.757E-02    0.70       1.0  T
   7   -318.1877974 -0.319781E-03  0.310E-02    0.69       1.0  T
   8   -318.1878338 -0.364287E-04  0.142E-02    0.70       1.0  T
   9   -318.1878454 -0.115968E-04  0.755E-03    0.69       1.0  T
  10   -318.1878475 -0.207690E-05  0.409E-03    0.69       1.8  T
  11   -318.1878486 -0.110295E-05  0.206E-03    0.69       3.6  T
  12   -318.1878487 -0.141655E-06  0.116E-03    0.69       6.4  T
  13   -318.1878488 -0.757007E-07  0.493E-04    0.69      15.1  T
  14   -318.1878488 -0.121343E-07  0.249E-04    0.69      29.9  T

   *** convergence criteria satisfied after 14 iterations ***

         #    Occupation            Energy/Eh            Energy/eV
      -------------------------------------------------------------
         1        2.0000           -0.8379351             -22.8014
       ...           ...                  ...                  ...
       279        2.0000           -0.3904457             -10.6246
       280        2.0000           -0.3837208             -10.4416
       281        2.0000           -0.3756617             -10.2223
       282        2.0000           -0.3751809             -10.2092
       283        2.0000           -0.3736651             -10.1679
       284        2.0000           -0.3690187             -10.0415
       285        2.0000           -0.3577454              -9.7347 (HOMO)
       286        0.0000           -0.3323497              -9.0437 (LUMO)
       287                         -0.3272003              -8.9036
       288                         -0.3216609              -8.7528
       289                         -0.3130118              -8.5175
       290                         -0.3074939              -8.3673
       ...                                ...                  ...
       557                          1.1578791              31.5075
      -------------------------------------------------------------
                  HL-Gap            0.0253956 Eh            0.6911 eV
             Fermi-level           -0.3450496 Eh           -9.3893 eV

 SCC (total)                   0 d,  0 h,  0 min,  0.559 sec
 SCC setup                      ...        0 min,  0.005 sec (  0.977%)
 Dispersion                     ...        0 min,  0.008 sec (  1.343%)
 classical contributions        ...        0 min,  0.000 sec (  0.049%)
 integral evaluation            ...        0 min,  0.027 sec (  4.814%)
 iterations                     ...        0 min,  0.429 sec ( 76.761%)
 molecular gradient             ...        0 min,  0.087 sec ( 15.608%)
 printout                       ...        0 min,  0.002 sec (  0.433%)

         :::::::::::::::::::::::::::::::::::::::::::::::::::::
         ::                     SUMMARY                     ::
         :::::::::::::::::::::::::::::::::::::::::::::::::::::
         :: total energy            -313.314305085438 Eh    ::
         :: total w/o Gsasa/hb      -313.291250743819 Eh    ::
         :: gradient norm              0.040921662472 Eh/a0 ::
         :: HOMO-LUMO gap              0.691050724044 eV    ::
         ::.................................................::
         :: SCC energy              -318.187848821335 Eh    ::
         :: -> isotropic ES            0.265165212193 Eh    ::
         :: -> anisotropic ES          0.003821826545 Eh    ::
         :: -> anisotropic XC          0.172235833751 Eh    ::
         :: -> dispersion             -0.297038350963 Eh    ::
         :: -> Gsolv                  -0.072625174016 Eh    ::
         ::    -> Gelec               -0.049570832397 Eh    ::
         ::    -> Gsasa               -0.014476997080 Eh    ::
         ::    -> Ghb                 -0.009658104237 Eh    ::
         ::    -> Gshift               0.001080759698 Eh    ::
         :: repulsion energy           4.870336525894 Eh    ::
         :: add. restraining           0.000000000000 Eh    ::
         :: total charge               0.000000000000 e     ::
         :::::::::::::::::::::::::::::::::::::::::::::::::::::

           -------------------------------------------------
          |                Property Printout                |
           -------------------------------------------------

    * Orbital Energies and Occupations

         #    Occupation            Energy/Eh            Energy/eV
      -------------------------------------------------------------
         1        2.0000           -0.8379351             -22.8014
       ...           ...                  ...                  ...
       273        2.0000           -0.4042451             -11.0001
       274        2.0000           -0.4030206             -10.9667
       275        2.0000           -0.4013565             -10.9215
       276        2.0000           -0.3993261             -10.8662
       277        2.0000           -0.3966133             -10.7924
       278        2.0000           -0.3935083             -10.7079
       279        2.0000           -0.3904457             -10.6246
       280        2.0000           -0.3837208             -10.4416
       281        2.0000           -0.3756617             -10.2223
       282        2.0000           -0.3751809             -10.2092
       283        2.0000           -0.3736651             -10.1679
       284        2.0000           -0.3690187             -10.0415
       285        2.0000           -0.3577454              -9.7347 (HOMO)
       286        0.0000           -0.3323497              -9.0437 (LUMO)
       287                         -0.3272003              -8.9036
       288                         -0.3216609              -8.7528
       289                         -0.3130118              -8.5175
       290                         -0.3074939              -8.3673
       291                         -0.2978678              -8.1054
       292                         -0.2853488              -7.7647
       293                         -0.2829923              -7.7006
       294                         -0.2741171              -7.4591
       295                         -0.2686257              -7.3097
       296                         -0.2627980              -7.1511
       ...                                ...                  ...
       557                          1.1578791              31.5075
      -------------------------------------------------------------
                  HL-Gap            0.0253956 Eh            0.6911 eV
             Fermi-level           -0.3450496 Eh           -9.3893 eV

     #   Z          covCN         q      C6AA      α(0)
     1   6 C        2.905     0.002    27.986     8.674
     2   6 C        3.013    -0.024    28.580     8.769
     3   6 C        2.864     0.236    23.067     7.873
     4   8 O        0.856    -0.418    22.036     6.294
     5   6 C        3.034    -0.018    28.433     8.746
     6   6 C        2.913    -0.017    28.425     8.743
     7   6 C        2.986     0.021    27.539     8.608
     8   6 C        2.922    -0.030    28.751     8.793
     9   6 C        2.913    -0.046    29.138     8.852
    10   6 C        2.782     0.182    24.101     8.041
    11   9 F        0.787    -0.250    11.769     4.052
    12   6 C        2.917    -0.055    29.364     8.886
    13   6 C        2.991     0.026    27.409     8.588
    14   6 C        2.914    -0.026    28.650     8.777
    15   6 C        3.029     0.011    27.740     8.639
    16   6 C        3.015     0.052    26.803     8.492
    17   6 C        2.947    -0.004    28.130     8.699
    18   6 C        1.933     0.128    27.942     8.537
    19   7 N        0.911    -0.295    27.597     7.598
    20   6 C        1.932     0.130    27.899     8.530
    21   7 N        0.911    -0.285    27.351     7.564
    22   6 C        2.966    -0.033    28.812     8.804
    23   6 C        2.848     0.128    25.196     8.227
    24   8 O        1.703    -0.273    18.527     5.811
    25   6 C        3.682     0.079    19.455     6.316
    26   6 C        3.751    -0.129    23.040     6.845
    27   6 C        2.852     0.127    25.210     8.229
    28   8 O        1.711    -0.264    18.382     5.789
    29   6 C        3.683     0.065    19.693     6.354
    30   6 C        3.750    -0.126    22.987     6.838
    31   6 C        3.008    -0.020    28.484     8.755
    32   6 C        2.971     0.072    26.378     8.424
    33   6 C        2.969     0.070    26.422     8.431
    34   7 N        1.845    -0.224    26.745     7.664
    35   6 C        2.893     0.049    26.896     8.503
    36   6 C        2.896     0.049    26.896     8.503
    37   7 N        1.846    -0.218    26.593     7.643
    38   6 C        3.008     0.018    27.591     8.616
    39   6 C        3.111    -0.003    27.939     8.660
    40   6 C        2.973     0.018    27.597     8.617
    41   6 C        2.925    -0.037    28.916     8.818
    42   6 C        2.918    -0.036    28.892     8.814
    43   6 C        2.925    -0.044    29.094     8.846
    44   6 C        2.970     0.010    27.788     8.647
    45   6 C        3.807    -0.061    21.662     6.626
    46   6 C        3.754    -0.107    22.601     6.779
    47   6 C        2.931    -0.044    29.101     8.847
    48   6 C        3.188     0.009    27.337     8.530
    49  16 S        2.190    -0.070   143.955    20.194
    50   6 C        3.100    -0.000    27.903     8.656
    51   6 C        3.077    -0.043    28.979     8.826
    52   6 C        3.336     0.068    24.137     7.779
    53   6 C        3.337     0.068    24.123     7.776
    54   7 N        1.853    -0.304    28.742     7.946
    55  16 S        2.681     0.280   130.149    19.201
    56   7 N        1.853    -0.306    28.768     7.950
    57   6 C        3.082    -0.045    29.021     8.831
    58   6 C        3.102    -0.003    27.960     8.665
    59  16 S        2.190    -0.069   143.932    20.192
    60   6 C        3.198     0.009    27.281     8.514
    61   6 C        3.110    -0.005    27.992     8.668
    62   6 C        2.973     0.019    27.585     8.615
    63   6 C        2.925    -0.036    28.895     8.815
    64   6 C        2.918    -0.035    28.878     8.812
    65   6 C        2.925    -0.042    29.052     8.839
    66   6 C        2.970     0.016    27.660     8.627
    67   6 C        3.807    -0.064    21.728     6.636
    68   6 C        3.754    -0.106    22.584     6.776
    69   6 C        2.932    -0.039    28.975     8.828
    70   6 C        3.005     0.016    27.640     8.624
    71  16 S        2.287    -0.041   142.748    20.109
    72   6 C        3.125     0.003    27.763     8.628
    73   6 C        3.259     0.027    26.265     8.283
    74   7 N        2.799    -0.020    21.642     6.909
    75   6 C        3.085     0.028    27.285     8.563
    76   6 C        3.089     0.029    27.251     8.557
    77   7 N        2.794    -0.030    21.827     6.939
    78   6 C        3.261     0.031    26.155     8.262
    79   6 C        3.127     0.001    27.802     8.633
    80  16 S        2.269    -0.011   141.499    20.021
    81   6 C        3.743    -0.013    20.883     6.519
    82   6 C        3.752    -0.126    22.977     6.836
    83   6 C        3.742    -0.012    20.865     6.517
    84   6 C        3.752    -0.130    23.057     6.848
    85   6 C        3.019     0.002    27.956     8.673
    86   6 C        2.926    -0.073    29.820     8.955
    87   6 C        2.855     0.147    24.811     8.164
    88   8 O        1.704    -0.279    18.629     5.827
    89   6 C        3.687     0.077    19.483     6.318
    90   6 C        3.750    -0.130    23.052     6.847
    91   6 C        2.966    -0.006    28.172     8.706
    92   6 C        2.927    -0.073    29.828     8.957
    93   6 C        2.859     0.140    24.946     8.187
    94   8 O        1.706    -0.277    18.601     5.823
    95   6 C        3.692     0.081    19.408     6.304
    96   6 C        3.751    -0.125    22.969     6.835
    97   6 C        2.910    -0.005    28.145     8.699
    98   6 C        3.004    -0.031    28.755     8.796
    99   6 C        2.872     0.232    23.145     7.886
   100   8 O        0.856    -0.431    22.304     6.332
   101   6 C        3.031    -0.021    28.502     8.757
   102   6 C        2.913    -0.018    28.457     8.747
   103   6 C        2.987     0.019    27.586     8.616
   104   6 C        2.922    -0.031    28.770     8.796
   105   6 C        2.913    -0.047    29.170     8.856
   106   6 C        2.782     0.180    24.129     8.046
   107   9 F        0.787    -0.252    11.791     4.056
   108   6 C        2.917    -0.056    29.383     8.889
   109   6 C        2.990     0.025    27.436     8.592
   110   6 C        2.915    -0.029    28.720     8.788
   111   6 C        3.029     0.008    27.801     8.649
   112   6 C        3.015     0.046    26.942     8.514
   113   6 C        2.948     0.008    27.841     8.654
   114   6 C        1.935     0.133    27.834     8.520
   115   7 N        0.911    -0.282    27.289     7.555
   116   6 C        1.936     0.135    27.788     8.513
   117   7 N        0.911    -0.287    27.406     7.571
   118   1 H        0.925     0.087     1.909     2.161
   119   1 H        0.926     0.082     1.962     2.190
   120   1 H        0.926     0.085     1.923     2.169
   121   1 H        0.926     0.089     1.893     2.152
   122   1 H        0.926     0.081     1.970     2.195
   123   1 H        0.926     0.061     2.186     2.312
   124   1 H        0.924     0.036     2.501     2.473
   125   1 H        0.923     0.067     2.119     2.276
   126   1 H        0.925     0.068     2.103     2.268
   127   1 H        0.925     0.073     2.054     2.241
   128   1 H        0.925     0.055     2.264     2.353
   129   1 H        0.924     0.064     2.152     2.294
   130   1 H        0.924     0.080     1.981     2.201
   131   1 H        0.925     0.058     2.221     2.330
   132   1 H        0.925     0.067     2.121     2.277
   133   1 H        0.925     0.051     2.311     2.377
   134   1 H        0.925     0.061     2.182     2.310
   135   1 H        0.926     0.064     2.154     2.295
   136   1 H        0.926     0.043     2.413     2.429
   137   1 H        0.926     0.043     2.414     2.429
   138   1 H        0.926     0.041     2.442     2.444
   139   1 H        0.924     0.042     2.422     2.434
   140   1 H        0.924     0.033     2.549     2.496
   141   1 H        0.925     0.046     2.366     2.405
   142   1 H        0.925     0.039     2.461     2.453
   143   1 H        0.925     0.042     2.422     2.434
   144   1 H        0.925     0.023     2.682     2.561
   145   1 H        0.926     0.024     2.673     2.557
   146   1 H        0.926     0.036     2.497     2.471
   147   1 H        0.926     0.040     2.444     2.445
   148   1 H        0.924     0.045     2.377     2.411
   149   1 H        0.924     0.044     2.394     2.420
   150   1 H        0.925     0.037     2.483     2.464
   151   1 H        0.925     0.045     2.389     2.417
   152   1 H        0.925     0.038     2.480     2.463
   153   1 H        0.926     0.043     2.414     2.430
   154   1 H        0.924     0.078     1.997     2.210
   155   1 H        0.925     0.088     1.895     2.153
   156   1 H        0.925     0.047     2.355     2.400
   157   1 H        0.925     0.053     2.280     2.362
   158   1 H        0.925     0.073     2.050     2.239
   159   1 H        0.924     0.073     2.050     2.239
   160   1 H        0.925     0.080     1.978     2.199
   161   1 H        0.925     0.060     2.199     2.319
   162   1 H        0.925     0.059     2.208     2.324
   163   1 H        0.925     0.074     2.037     2.232
   164   1 H        0.926     0.070     2.087     2.259
   165   1 H        0.924     0.060     2.196     2.317
   166   1 H        0.924     0.046     2.368     2.406
   167   1 H        0.925     0.056     2.246     2.344
   168   1 H        0.925     0.059     2.209     2.324
   169   1 H        0.925     0.069     2.096     2.264
   170   1 H        0.926     0.062     2.175     2.306
   171   1 H        0.923     0.039     2.462     2.454
   172   1 H        0.923     0.042     2.424     2.435
   173   1 H        0.925     0.063     2.163     2.300
   174   1 H        0.925     0.067     2.114     2.274
   175   1 H        0.925     0.057     2.234     2.338
   176   1 H        0.925     0.081     1.965     2.192
   177   1 H        0.926     0.075     2.027     2.227
   178   1 H        0.926     0.081     1.966     2.193
   179   1 H        0.926     0.085     1.924     2.169
   180   1 H        0.926     0.081     1.967     2.193
   181   1 H        0.926     0.063     2.164     2.300

 Mol. C6AA /au·bohr⁶  :     521372.053369
 Mol. C8AA /au·bohr⁸  :   13924832.613884
 Mol. α(0) /au        :       1144.524335


Wiberg/Mayer (AO) data.
largest (>0.10) Wiberg bond orders for each atom

 ---------------------------------------------------------------------------
     #   Z sym  total        # sym  WBO       # sym  WBO       # sym  WBO
 ---------------------------------------------------------------------------
     1   6 C    3.945 --     2 C    1.603    22 C    1.139   118 H    0.942
     2   6 C    3.967 --     1 C    1.603    16 C    1.113     3 C    1.017
     3   6 C    3.914 --     4 O    1.746     5 C    1.027     2 C    1.017
     4   8 O    2.009 --     3 C    1.746
     5   6 C    3.976 --     6 C    1.518    15 C    1.194     3 C    1.027
     6   6 C    3.976 --     5 C    1.518     7 C    1.273   119 H    0.960
     7   6 C    3.978 --     8 C    1.286     6 C    1.273    13 C    1.239
     8   6 C    3.976 --     9 C    1.546     7 C    1.286   120 H    0.962
                            12 C    0.111
     9   6 C    3.970 --     8 C    1.546    10 C    1.293   121 H    0.962
    10   6 C    3.863 --    12 C    1.495     9 C    1.293    11 F    0.942
    11   9 F    1.064 --    10 C    0.942
    12   6 C    3.975 --    10 C    1.495    13 C    1.289   122 H    0.961
                             8 C    0.111
    13   6 C    3.984 --    12 C    1.289    14 C    1.274     7 C    1.239
    14   6 C    3.972 --    15 C    1.503    13 C    1.274   123 H    0.959
    15   6 C    3.985 --    14 C    1.503     5 C    1.194    16 C    1.088
    16   6 C    3.969 --    17 C    1.455     2 C    1.113    15 C    1.088
    17   6 C    3.960 --    16 C    1.455    18 C    1.113    20 C    1.107
    18   6 C    3.942 --    19 N    2.736    17 C    1.113
    19   7 N    2.966 --    18 C    2.736
    20   6 C    3.943 --    21 N    2.747    17 C    1.107
    21   7 N    2.967 --    20 C    2.747
    22   6 C    3.959 --    23 C    1.361    33 C    1.193     1 C    1.139
    23   6 C    3.928 --    22 C    1.361    27 C    1.230    24 O    1.089
    24   8 O    2.218 --    23 C    1.089    25 C    0.930
    25   6 C    3.919 --    26 C    1.016   125 H    0.962   124 H    0.957
                            24 O    0.930
    26   6 C    3.986 --    25 C    1.016   127 H    0.983   128 H    0.981
                           126 H    0.980
    27   6 C    3.933 --    31 C    1.365    23 C    1.230    28 O    1.092
    28   8 O    2.253 --    27 C    1.092    29 C    0.929
    29   6 C    3.913 --    30 C    1.013   130 H    0.967   129 H    0.963
                            28 O    0.929
    30   6 C    3.987 --    29 C    1.013   131 H    0.983   132 H    0.981
                           133 H    0.980
    31   6 C    3.970 --    27 C    1.365    32 C    1.201    38 C    1.129
    32   6 C    3.974 --    37 N    1.317    33 C    1.212    31 C    1.201
    33   6 C    3.977 --    34 N    1.313    32 C    1.212    22 C    1.193
    34   7 N    3.125 --    35 C    1.524    33 C    1.313
    35   6 C    3.962 --    34 N    1.524    36 C    1.294   134 H    0.959
    36   6 C    3.959 --    37 N    1.530    35 C    1.294   135 H    0.959
    37   7 N    3.088 --    36 C    1.530    32 C    1.317
    38   6 C    3.919 --    39 C    1.445    31 C    1.129    80 S    1.098
    39   6 C    3.970 --    38 C    1.445    48 C    1.257    40 C    1.053
    40   6 C    3.987 --    41 C    1.379    47 C    1.378    39 C    1.053
                            43 C    0.101
    41   6 C    3.985 --    42 C    1.448    40 C    1.379   136 H    0.965
                            44 C    0.103
    42   6 C    3.990 --    41 C    1.448    43 C    1.439   137 H    0.969
                            47 C    0.104
    43   6 C    3.981 --    42 C    1.439    44 C    1.401   138 H    0.969
                            40 C    0.101
    44   6 C    3.987 --    47 C    1.428    43 C    1.401    45 C    1.011
                            41 C    0.103
    45   6 C    3.996 --    44 C    1.011    46 C    1.001   140 H    0.974
                           139 H    0.974
    46   6 C    3.995 --    45 C    1.001   142 H    0.988   143 H    0.988
                           141 H    0.985
    47   6 C    3.988 --    44 C    1.428    40 C    1.378   144 H    0.966
                            42 C    0.104
    48   6 C    3.921 --    79 C    1.354    39 C    1.257    49 S    1.088
    49  16 S    2.505 --    50 C    1.104    48 C    1.088
    50   6 C    3.922 --    78 C    1.324    51 C    1.256    49 S    1.104
    51   6 C    3.957 --    76 C    1.277    50 C    1.256    52 C    1.178
    52   6 C    3.970 --    56 N    1.425    51 C    1.178    53 C    1.153
                            55 S    0.108
    53   6 C    3.970 --    54 N    1.427    57 C    1.177    52 C    1.153
                            55 S    0.107
    54   7 N    3.056 --    53 C    1.427    55 S    1.372    56 N    0.145
    55  16 S    3.079 --    56 N    1.373    54 N    1.372    52 C    0.108
                            53 C    0.107
    56   7 N    3.056 --    52 C    1.425    55 S    1.373    54 N    0.145
    57   6 C    3.955 --    75 C    1.272    58 C    1.262    53 C    1.177
    58   6 C    3.926 --    73 C    1.321    57 C    1.262    59 S    1.102
    59  16 S    2.507 --    58 C    1.102    60 C    1.090
    60   6 C    3.922 --    72 C    1.367    61 C    1.242    59 S    1.090
    61   6 C    3.959 --    70 C    1.466    60 C    1.242    62 C    1.051
    62   6 C    3.987 --    69 C    1.391    63 C    1.373    61 C    1.051
                            65 C    0.100
    63   6 C    3.989 --    64 C    1.455    62 C    1.373   145 H    0.968
                            66 C    0.104
    64   6 C    3.991 --    63 C    1.455    65 C    1.433   146 H    0.970
                            69 C    0.105
    65   6 C    3.982 --    64 C    1.433    66 C    1.408   147 H    0.969
                            62 C    0.100
    66   6 C    3.986 --    69 C    1.415    65 C    1.408    67 C    1.012
                            63 C    0.104
    67   6 C    3.996 --    66 C    1.012    68 C    1.000   149 H    0.975
                           148 H    0.971
    68   6 C    3.995 --    67 C    1.000   152 H    0.988   150 H    0.988
                           151 H    0.985
    69   6 C    3.986 --    66 C    1.415    62 C    1.391   153 H    0.962
                            64 C    0.105
    70   6 C    3.917 --    61 C    1.466    85 C    1.119    71 S    1.094
    71  16 S    2.562 --    72 C    1.119    70 C    1.094
    72   6 C    3.931 --    60 C    1.367    73 C    1.230    71 S    1.119
    73   6 C    3.941 --    58 C    1.321    72 C    1.230    74 N    1.164
    74   7 N    3.570 --    75 C    1.183    73 C    1.164    83 C    0.973
    75   6 C    3.942 --    57 C    1.272    76 C    1.217    74 N    1.183
    76   6 C    3.938 --    51 C    1.277    75 C    1.217    77 N    1.174
    77   7 N    3.546 --    76 C    1.174    78 C    1.155    81 C    0.967
    78   6 C    3.942 --    50 C    1.324    79 C    1.239    77 N    1.155
    79   6 C    3.933 --    48 C    1.354    78 C    1.239    80 S    1.123
    80  16 S    2.596 --    79 C    1.123    38 C    1.098
    81   6 C    3.949 --    82 C    1.006    77 N    0.967   154 H    0.963
                           155 H    0.958
    82   6 C    3.986 --    81 C    1.006   156 H    0.987   157 H    0.983
                           158 H    0.980
    83   6 C    3.951 --    84 C    1.007    74 N    0.973   160 H    0.964
                           159 H    0.961
    84   6 C    3.983 --    83 C    1.007   163 H    0.980   161 H    0.979
                           162 H    0.977
    85   6 C    3.940 --    86 C    1.387    93 C    1.234    70 C    1.119
    86   6 C    3.971 --    85 C    1.387    87 C    1.382   164 H    0.952
    87   6 C    3.928 --    86 C    1.382    91 C    1.241    88 O    1.090
    88   8 O    2.259 --    87 C    1.090    89 C    0.948
    89   6 C    3.927 --    90 C    1.009   165 H    0.969   166 H    0.965
                            88 O    0.948
    90   6 C    3.987 --    89 C    1.009   168 H    0.986   167 H    0.983
                           169 H    0.981
    91   6 C    3.961 --    92 C    1.313    87 C    1.241    97 C    1.204
    92   6 C    3.974 --    93 C    1.430    91 C    1.313   170 H    0.960
    93   6 C    3.928 --    92 C    1.430    85 C    1.234    94 O    1.084
    94   8 O    2.238 --    93 C    1.084    95 C    0.951
    95   6 C    3.933 --    96 C    1.015   171 H    0.968   172 H    0.967
                            94 O    0.951
    96   6 C    3.988 --    95 C    1.015   173 H    0.985   174 H    0.982
                           175 H    0.982
    97   6 C    3.942 --    98 C    1.553    91 C    1.204   176 H    0.948
    98   6 C    3.949 --    97 C    1.553   112 C    1.151    99 C    1.020
    99   6 C    3.910 --   100 O    1.736   101 C    1.027    98 C    1.020
   100   8 O    2.004 --    99 C    1.736
   101   6 C    3.978 --   102 C    1.522   111 C    1.197    99 C    1.027
   102   6 C    3.976 --   101 C    1.522   103 C    1.270   177 H    0.961
   103   6 C    3.979 --   104 C    1.288   102 C    1.270   109 C    1.241
   104   6 C    3.977 --   105 C    1.544   103 C    1.288   178 H    0.963
                           108 C    0.111
   105   6 C    3.971 --   104 C    1.544   106 C    1.295   179 H    0.963
   106   6 C    3.863 --   108 C    1.494   105 C    1.295   107 F    0.940
   107   9 F    1.061 --   106 C    0.940
   108   6 C    3.974 --   106 C    1.494   109 C    1.290   180 H    0.961
                           104 C    0.111
   109   6 C    3.984 --   108 C    1.290   110 C    1.270   103 C    1.241
   110   6 C    3.970 --   111 C    1.508   109 C    1.270   181 H    0.958
   111   6 C    3.986 --   110 C    1.508   101 C    1.197   112 C    1.083
   112   6 C    3.968 --   113 C    1.457    98 C    1.151   111 C    1.083
   113   6 C    3.953 --   112 C    1.457   114 C    1.107   116 C    1.106
   114   6 C    3.942 --   115 N    2.747   113 C    1.107
   115   7 N    2.957 --   114 C    2.747
   116   6 C    3.942 --   117 N    2.749   113 C    1.106
   117   7 N    2.968 --   116 C    2.749
   118   1 H    0.990 --     1 C    0.942
   119   1 H    0.992 --     6 C    0.960
   120   1 H    0.992 --     8 C    0.962
   121   1 H    0.991 --     9 C    0.962
   122   1 H    0.993 --    12 C    0.961
   123   1 H    0.995 --    14 C    0.959
   124   1 H    0.998 --    25 C    0.957
   125   1 H    0.993 --    25 C    0.962
   126   1 H    0.995 --    26 C    0.980
   127   1 H    0.994 --    26 C    0.983
   128   1 H    0.997 --    26 C    0.981
   129   1 H    0.995 --    29 C    0.963
   130   1 H    0.993 --    29 C    0.967
   131   1 H    0.997 --    30 C    0.983
   132   1 H    0.995 --    30 C    0.981
   133   1 H    0.997 --    30 C    0.980
   134   1 H    0.995 --    35 C    0.959
   135   1 H    0.994 --    36 C    0.959
   136   1 H    0.998 --    41 C    0.965
   137   1 H    0.997 --    42 C    0.969
   138   1 H    0.998 --    43 C    0.969
   139   1 H    0.998 --    45 C    0.974
   140   1 H    0.999 --    45 C    0.974
   141   1 H    0.997 --    46 C    0.985
   142   1 H    0.998 --    46 C    0.988
   143   1 H    0.998 --    46 C    0.988
   144   1 H    0.999 --    47 C    0.966
   145   1 H    0.999 --    63 C    0.968
   146   1 H    0.998 --    64 C    0.970
   147   1 H    0.998 --    65 C    0.969
   148   1 H    0.998 --    67 C    0.971
   149   1 H    0.998 --    67 C    0.975
   150   1 H    0.999 --    68 C    0.988
   151   1 H    0.997 --    68 C    0.985
   152   1 H    0.999 --    68 C    0.988
   153   1 H    0.998 --    69 C    0.962
   154   1 H    0.991 --    81 C    0.963
   155   1 H    0.991 --    81 C    0.958
   156   1 H    0.998 --    82 C    0.987
   157   1 H    0.997 --    82 C    0.983
   158   1 H    0.994 --    82 C    0.980
   159   1 H    0.992 --    83 C    0.961
   160   1 H    0.993 --    83 C    0.964
   161   1 H    0.996 --    84 C    0.979
   162   1 H    0.996 --    84 C    0.977
   163   1 H    0.994 --    84 C    0.980
   164   1 H    0.994 --    86 C    0.952
   165   1 H    0.996 --    89 C    0.969
   166   1 H    0.997 --    89 C    0.965
   167   1 H    0.997 --    90 C    0.983
   168   1 H    0.996 --    90 C    0.986
   169   1 H    0.995 --    90 C    0.981
   170   1 H    0.995 --    92 C    0.960
   171   1 H    0.998 --    95 C    0.968
   172   1 H    0.998 --    95 C    0.967
   173   1 H    0.996 --    96 C    0.985
   174   1 H    0.995 --    96 C    0.982
   175   1 H    0.997 --    96 C    0.982
   176   1 H    0.991 --    97 C    0.948
   177   1 H    0.993 --   102 C    0.961
   178   1 H    0.993 --   104 C    0.963
   179   1 H    0.992 --   105 C    0.963
   180   1 H    0.993 --   108 C    0.961
   181   1 H    0.995 --   110 C    0.958
 ---------------------------------------------------------------------------

Topologies differ in bond orders
Writing corrected topology to xtbtopo.mol

molecular dipole:
                 x           y           z       tot (Debye)
 q only:       -0.773      -0.289       1.507
   full:       -1.173       0.266       1.109       4.159
molecular quadrupole (traceless):
                xx          xy          yy          xz          yz          zz
 q only:       53.390       2.961     -10.647     -45.849     -31.407     -42.743
  q+dip:       87.544      16.249     -20.570     -40.958     -36.460     -66.974
   full:       80.631      14.568     -17.046     -32.719     -35.905     -63.585


           -------------------------------------------------
          | TOTAL ENERGY             -313.314305085438 Eh   |
          | GRADIENT NORM               0.040921662472 Eh/α |
          | HOMO-LUMO GAP               0.691050724044 eV   |
           -------------------------------------------------

------------------------------------------------------------------------
 * finished run on 2022/02/05 at 05:46:08.842     
------------------------------------------------------------------------
 total:
 * wall-time:     0 d,  0 h,  0 min,  0.665 sec
 *  cpu-time:     0 d,  0 h,  0 min,  5.196 sec
 * ratio c/w:     7.811 speedup
 SCF:
 * wall-time:     0 d,  0 h,  0 min,  0.561 sec
 *  cpu-time:     0 d,  0 h,  0 min,  4.465 sec
 * ratio c/w:     7.963 speedup

