      -----------------------------------------------------------      
     |                   =====================                   |     
     |                           x T B                           |     
     |                   =====================                   |     
     |                         S. Grimme                         |     
     |          Mulliken Center for Theoretical Chemistry        |     
     |                    University of Bonn                     |     
      -----------------------------------------------------------      

   * xtb version 6.4.1 (unknown) compiled by 'oda6@login1.crc.pitt.edu' on 2021-06-25

   xtb is free software: you can redistribute it and/or modify it under
   the terms of the GNU Lesser General Public License as published by
   the Free Software Foundation, either version 3 of the License, or
   (at your option) any later version.
   
   xtb is distributed in the hope that it will be useful,
   but WITHOUT ANY WARRANTY; without even the implied warranty of
   MERCHANTABILITY or FITNESS FOR A PARTICULAR PURPOSE.  See the
   GNU Lesser General Public License for more details.
   
   Cite this work as:
   * C. Bannwarth, E. Caldeweyher, S. Ehlert, A. Hansen, P. Pracht,
     J. Seibert, S. Spicher, S. Grimme, WIREs Comput. Mol. Sci., 2020, 11,
     e01493. DOI: 10.1002/wcms.1493
   
   for GFN2-xTB:
   * C. Bannwarth, S. Ehlert and S. Grimme., J. Chem. Theory Comput., 2019,
     15, 1652-1671. DOI: 10.1021/acs.jctc.8b01176
   for GFN1-xTB:
   * S. Grimme, C. Bannwarth, P. Shushkov, J. Chem. Theory Comput., 2017,
     13, 1989-2009. DOI: 10.1021/acs.jctc.7b00118
   for GFN0-xTB:
   * P. Pracht, E. Caldeweyher, S. Ehlert, S. Grimme, ChemRxiv, 2019, preprint.
     DOI: 10.26434/chemrxiv.8326202.v1
   for GFN-FF:
   * S. Spicher and S. Grimme, Angew. Chem. Int. Ed., 2020, 59, 15665-15673.
     DOI: 10.1002/anie.202004239
   
   for DFT-D4:
   * E. Caldeweyher, C. Bannwarth and S. Grimme, J. Chem. Phys., 2017,
     147, 034112. DOI: 10.1063/1.4993215
   * E. Caldeweyher, S. Ehlert, A. Hansen, H. Neugebauer, S. Spicher,
     C. Bannwarth and S. Grimme, J. Chem. Phys., 2019, 150, 154122.
     DOI: 10.1063/1.5090222
   * E. Caldeweyher, J.-M. Mewes, S. Ehlert and S. Grimme, Phys. Chem. Chem. Phys.
     2020, 22, 8499-8512. DOI: 10.1039/D0CP00502A
   
   for sTDA-xTB:
   * S. Grimme and C. Bannwarth, J. Chem. Phys., 2016, 145, 054103.
     DOI: 10.1063/1.4959605
   
   in the mass-spec context:
   * V. Asgeirsson, C. Bauer and S. Grimme, Chem. Sci., 2017, 8, 4879.
     DOI: 10.1039/c7sc00601b
   * J. Koopman and S. Grimme, ACS Omega 2019, 4, 12, 15120-15133.
     DOI: 10.1021/acsomega.9b02011
   
   for metadynamics refer to:
   * S. Grimme, J. Chem. Theory Comput., 2019, 155, 2847-2862
     DOI: 10.1021/acs.jctc.9b00143
   
   for SPH calculations refer to:
   * S. Spicher and S. Grimme, J. Chem. Theory Comput., 2021, 17, 1701-1714
     DOI: 10.1021/acs.jctc.0c01306
   
   with help from (in alphabetical order)
   P. Atkinson, C. Bannwarth, F. Bohle, G. Brandenburg, E. Caldeweyher
   M. Checinski, S. Dohm, S. Ehlert, S. Ehrlich, I. Gerasimov, J. Koopman
   C. Lavigne, S. Lehtola, F. März, M. Müller, F. Musil, H. Neugebauer
   J. Pisarek, C. Plett, P. Pracht, J. Seibert, P. Shushkov, S. Spicher
   M. Stahn, M. Steiner, T. Strunk, J. Stückrath, T. Rose, and J. Unsleber
   
 * started run on 2022/02/05 at 05:50:37.053     

           -------------------------------------------------
          |                Calculation Setup                |
           -------------------------------------------------

          program call               : /ihome/ghutchison/oda6/xtb/xtb-641/bin/xtb ../../GFN2_output/9_126_86_147_53.mol --sp --alpb water
          hostname                   : smp-n29
          coordinate file            : ../../GFN2_output/9_126_86_147_53.mol
          omp threads                :                     8
          number of atoms            :                   178
          number of electrons        :                   578
          charge                     :                     0
          spin                       :                   0.0
          first test random number   :      0.15771600809221

   ID    Z sym.   atoms
    1    6 C      1-3, 5-10, 12-18, 20, 22, 23, 25-27, 29-33, 35, 36, 38-48,
                  50-53, 57, 58, 60-70, 72, 73, 75, 76, 78, 79, 81-87, 90-92,
                  94-97, 101, 102, 104-106, 108, 111-118
    2    8 O      4, 24, 28, 88, 93, 119
    3    9 F      11
    4    7 N      19, 21, 34, 37, 54, 56, 74, 77, 89, 98, 100, 107, 109, 110
    5   16 S      49, 55, 59, 71, 80, 99, 103
    6    1 H      120-178

           -------------------------------------------------
          |                 G F N 2 - x T B                 |
           -------------------------------------------------

        Reference                      10.1021/acs.jctc.8b01176
      * Hamiltonian:
        H0-scaling (s, p, d)           1.850000    2.230000    2.230000
        zeta-weighting                 0.500000
      * Dispersion:
        s8                             2.700000
        a1                             0.520000
        a2                             5.000000
        s9                             5.000000
      * Repulsion:
        kExp                           1.500000    1.000000
        rExp                           1.000000
      * Coulomb:
        alpha                          2.000000
        third order                    shell-resolved
        anisotropic                    true
        a3                             3.000000
        a5                             4.000000
        cn-shift                       1.200000
        cn-exp                         4.000000
        max-rad                        5.000000

      * Solvation model:               ALPB
        Solvent                        water
        Parameter file                 internal GFN2-xTB/ALPB
        Dielectric constant                8.0200E+01
        Reference state                gsolv [1 M gas/solution]
        Free energy shift                  1.0808E-03 Eh       6.7819E-01 kcal/mol
        Temperature                        2.9815E+02 K
        Density                            1.0000E+00 kg/L
        Solvent mass                       1.8000E+01 g/mol
        Interaction kernel             P16
        Born radius scaling (c1)           1.4744E+00
        Born radii integrator          GBOBC
        Born offset                        0.0000E+00 a0       0.0000E+00 AA
        H-bond correction              true
        Ion screening                  false
        Surface tension                    1.0000E-05 Eh       1.5569E+01 dyn/cm
        Grid points                               230 per atom

          ...................................................
          :                      SETUP                      :
          :.................................................:
          :  # basis functions                 577          :
          :  # atomic orbitals                 570          :
          :  # shells                          304          :
          :  # electrons                       578          :
          :  max. iterations                   250          :
          :  Hamiltonian                  GFN2-xTB          :
          :  restarted?                      false          :
          :  GBSA solvation                   true          :
          :  PC potential                    false          :
          :  electronic temp.          300.0000000     K    :
          :  accuracy                    1.0000000          :
          :  -> integral cutoff          0.2500000E+02      :
          :  -> integral neglect         0.1000000E-07      :
          :  -> SCF convergence          0.1000000E-05 Eh   :
          :  -> wf. convergence          0.1000000E-03 e    :
          :  Broyden damping             0.4000000          :
          ...................................................

 iter      E             dE          RMSdq      gap      omega  full diag
   1   -322.2172499 -0.322217E+03  0.458E+00    0.84       0.0  T
   2   -322.5748624 -0.357612E+00  0.278E+00    0.47       1.0  T
   3   -322.5225240  0.523384E-01  0.142E+00    0.69       1.0  T
   4   -322.6751889 -0.152665E+00  0.449E-01    0.49       1.0  T
   5   -322.6954420 -0.202531E-01  0.160E-01    0.47       1.0  T
   6   -322.6970371 -0.159513E-02  0.848E-02    0.49       1.0  T
   7   -322.6974057 -0.368585E-03  0.331E-02    0.49       1.0  T
   8   -322.6974450 -0.392598E-04  0.168E-02    0.49       1.0  T
   9   -322.6974558 -0.108515E-04  0.857E-03    0.49       1.0  T
  10   -322.6974583 -0.251285E-05  0.474E-03    0.49       1.6  T
  11   -322.6974595 -0.112854E-05  0.249E-03    0.49       3.0  T
  12   -322.6974597 -0.223345E-06  0.119E-03    0.49       6.3  T
  13   -322.6974598 -0.736484E-07  0.515E-04    0.49      14.6  T
  14   -322.6974598 -0.128467E-07  0.269E-04    0.49      27.9  T

   *** convergence criteria satisfied after 14 iterations ***

         #    Occupation            Energy/Eh            Energy/eV
      -------------------------------------------------------------
         1        2.0000           -0.8377348             -22.7959
       ...           ...                  ...                  ...
       283        2.0000           -0.3951551             -10.7527
       284        2.0000           -0.3930371             -10.6951
       285        2.0000           -0.3811347             -10.3712
       286        2.0000           -0.3793730             -10.3233
       287        2.0000           -0.3732505             -10.1567
       288        2.0000           -0.3683892             -10.0244
       289        1.9998           -0.3616385              -9.8407 (HOMO)
       290        0.0002           -0.3438004              -9.3553 (LUMO)
       291                         -0.3339978              -9.0885
       292                         -0.3269267              -8.8961
       293                         -0.3200737              -8.7096
       294                         -0.3163374              -8.6080
       ...                                ...                  ...
       570                          1.1531845              31.3797
      -------------------------------------------------------------
                  HL-Gap            0.0178381 Eh            0.4854 eV
             Fermi-level           -0.3527191 Eh           -9.5980 eV

 SCC (total)                   0 d,  0 h,  0 min,  0.561 sec
 SCC setup                      ...        0 min,  0.006 sec (  1.093%)
 Dispersion                     ...        0 min,  0.008 sec (  1.378%)
 classical contributions        ...        0 min,  0.000 sec (  0.045%)
 integral evaluation            ...        0 min,  0.028 sec (  4.938%)
 iterations                     ...        0 min,  0.434 sec ( 77.470%)
 molecular gradient             ...        0 min,  0.082 sec ( 14.618%)
 printout                       ...        0 min,  0.002 sec (  0.442%)

         :::::::::::::::::::::::::::::::::::::::::::::::::::::
         ::                     SUMMARY                     ::
         :::::::::::::::::::::::::::::::::::::::::::::::::::::
         :: total energy            -317.865753720848 Eh    ::
         :: total w/o Gsasa/hb      -317.840680342695 Eh    ::
         :: gradient norm              0.042188259434 Eh/a0 ::
         :: HOMO-LUMO gap              0.485399695045 eV    ::
         ::.................................................::
         :: SCC energy              -322.697459771598 Eh    ::
         :: -> isotropic ES            0.310160809295 Eh    ::
         :: -> anisotropic ES          0.006064561949 Eh    ::
         :: -> anisotropic XC          0.181230893743 Eh    ::
         :: -> dispersion             -0.303616129112 Eh    ::
         :: -> Gsolv                  -0.079274213034 Eh    ::
         ::    -> Gelec               -0.054200834881 Eh    ::
         ::    -> Gsasa               -0.017440294034 Eh    ::
         ::    -> Ghb                 -0.008713843817 Eh    ::
         ::    -> Gshift               0.001080759698 Eh    ::
         :: repulsion energy           4.829006584469 Eh    ::
         :: add. restraining           0.000000000000 Eh    ::
         :: total charge               0.000000000000 e     ::
         :::::::::::::::::::::::::::::::::::::::::::::::::::::

           -------------------------------------------------
          |                Property Printout                |
           -------------------------------------------------

    * Orbital Energies and Occupations

         #    Occupation            Energy/Eh            Energy/eV
      -------------------------------------------------------------
         1        2.0000           -0.8377348             -22.7959
       ...           ...                  ...                  ...
       277        2.0000           -0.4087452             -11.1225
       278        2.0000           -0.4067081             -11.0671
       279        2.0000           -0.4052119             -11.0264
       280        2.0000           -0.4029253             -10.9642
       281        2.0000           -0.3982649             -10.8373
       282        2.0000           -0.3959252             -10.7737
       283        2.0000           -0.3951551             -10.7527
       284        2.0000           -0.3930371             -10.6951
       285        2.0000           -0.3811347             -10.3712
       286        2.0000           -0.3793730             -10.3233
       287        2.0000           -0.3732505             -10.1567
       288        2.0000           -0.3683892             -10.0244
       289        1.9998           -0.3616385              -9.8407 (HOMO)
       290        0.0002           -0.3438004              -9.3553 (LUMO)
       291                         -0.3339978              -9.0885
       292                         -0.3269267              -8.8961
       293                         -0.3200737              -8.7096
       294                         -0.3163374              -8.6080
       295                         -0.3042876              -8.2801
       296                         -0.2999152              -8.1611
       297                         -0.2887013              -7.8560
       298                         -0.2833302              -7.7098
       299                         -0.2772791              -7.5451
       300                         -0.2711245              -7.3777
       ...                                ...                  ...
       570                          1.1531845              31.3797
      -------------------------------------------------------------
                  HL-Gap            0.0178381 Eh            0.4854 eV
             Fermi-level           -0.3527191 Eh           -9.5980 eV

     #   Z          covCN         q      C6AA      α(0)
     1   6 C        2.908     0.002    27.988     8.675
     2   6 C        3.009    -0.036    28.867     8.813
     3   6 C        2.863     0.232    23.143     7.885
     4   8 O        0.856    -0.436    22.404     6.346
     5   6 C        3.037    -0.022    28.521     8.760
     6   6 C        2.913    -0.018    28.447     8.746
     7   6 C        2.987     0.020    27.563     8.612
     8   6 C        2.922    -0.031    28.762     8.795
     9   6 C        2.913    -0.046    29.142     8.852
    10   6 C        2.782     0.181    24.108     8.042
    11   9 F        0.787    -0.251    11.774     4.053
    12   6 C        2.917    -0.055    29.364     8.886
    13   6 C        2.990     0.025    27.428     8.591
    14   6 C        2.915    -0.027    28.672     8.781
    15   6 C        3.024     0.007    27.850     8.656
    16   6 C        3.018     0.036    27.179     8.552
    17   6 C        2.948     0.003    27.967     8.674
    18   6 C        1.932     0.134    27.827     8.519
    19   7 N        0.911    -0.282    27.281     7.554
    20   6 C        1.932     0.130    27.901     8.530
    21   7 N        0.911    -0.280    27.228     7.547
    22   6 C        2.965    -0.030    28.750     8.795
    23   6 C        2.845     0.148    24.770     8.157
    24   8 O        1.706    -0.234    17.877     5.709
    25   6 C        3.682     0.073    19.553     6.332
    26   6 C        3.750    -0.124    22.939     6.831
    27   6 C        2.852     0.130    25.148     8.219
    28   8 O        1.704    -0.258    18.274     5.772
    29   6 C        3.684     0.071    19.590     6.337
    30   6 C        3.751    -0.124    22.948     6.832
    31   6 C        3.008    -0.024    28.587     8.771
    32   6 C        2.972     0.071    26.409     8.429
    33   6 C        2.978     0.072    26.395     8.427
    34   7 N        1.844    -0.236    27.027     7.705
    35   6 C        2.898     0.048    26.916     8.506
    36   6 C        2.895     0.045    26.998     8.519
    37   7 N        1.947    -0.207    26.311     7.606
    38   6 C        3.004     0.022    27.511     8.604
    39   6 C        3.109    -0.005    28.011     8.671
    40   6 C        2.973     0.020    27.549     8.609
    41   6 C        2.925    -0.035    28.874     8.812
    42   6 C        2.918    -0.034    28.846     8.807
    43   6 C        2.925    -0.040    28.998     8.831
    44   6 C        2.970     0.015    27.668     8.628
    45   6 C        3.807    -0.059    21.627     6.620
    46   6 C        3.754    -0.107    22.610     6.780
    47   6 C        2.931    -0.038    28.951     8.824
    48   6 C        3.194     0.011    27.250     8.511
    49  16 S        2.180    -0.064   143.712    20.177
    50   6 C        3.099     0.002    27.857     8.649
    51   6 C        3.083    -0.039    28.879     8.810
    52   6 C        3.340     0.069    24.055     7.758
    53   6 C        3.340     0.069    24.043     7.755
    54   7 N        1.854    -0.303    28.697     7.940
    55  16 S        2.685     0.292   129.696    19.168
    56   7 N        1.854    -0.300    28.628     7.930
    57   6 C        3.084    -0.042    28.938     8.819
    58   6 C        3.102     0.005    27.771     8.635
    59  16 S        2.176    -0.045   142.936    20.122
    60   6 C        3.195     0.011    27.246     8.510
    61   6 C        3.108     0.004    27.799     8.639
    62   6 C        2.974     0.013    27.713     8.635
    63   6 C        2.924    -0.044    29.104     8.847
    64   6 C        2.918    -0.037    28.925     8.819
    65   6 C        2.925    -0.043    29.072     8.842
    66   6 C        2.970     0.019    27.577     8.614
    67   6 C        3.807    -0.065    21.739     6.637
    68   6 C        3.754    -0.108    22.628     6.783
    69   6 C        2.932    -0.032    28.803     8.802
    70   6 C        3.004     0.009    27.804     8.650
    71  16 S        2.266     0.005   140.843    19.974
    72   6 C        3.116     0.010    27.639     8.611
    73   6 C        3.247     0.030    26.352     8.314
    74   7 N        2.800    -0.012    21.479     6.883
    75   6 C        3.077     0.034    27.148     8.543
    76   6 C        3.077     0.031    27.224     8.554
    77   7 N        2.796    -0.020    21.639     6.909
    78   6 C        3.256     0.031    26.224     8.281
    79   6 C        3.117    -0.001    27.872     8.647
    80  16 S        2.368    -0.026   142.108    20.064
    81   6 C        3.745    -0.018    20.971     6.532
    82   6 C        3.752    -0.122    22.891     6.823
    83   6 C        3.742    -0.013    20.876     6.519
    84   6 C        3.752    -0.135    23.166     6.864
    85   6 C        2.996     0.017    27.613     8.620
    86   6 C        3.038    -0.046    29.099     8.848
    87   6 C        2.839     0.281    22.251     7.730
    88   8 O        0.857    -0.418    22.052     6.296
    89   7 N        2.793    -0.107    23.329     7.174
    90   6 C        3.740     0.007    20.540     6.466
    91   6 C        3.752    -0.122    22.900     6.824
    92   6 C        2.833     0.283    22.223     7.725
    93   8 O        0.857    -0.433    22.352     6.339
    94   6 C        3.054    -0.034    28.799     8.801
    95   6 C        2.961     0.017    27.620     8.620
    96   6 C        3.353     0.081    23.549     7.640
    97   6 C        3.355     0.073    23.665     7.653
    98   7 N        1.861    -0.277    28.034     7.848
    99  16 S        2.672     0.448   124.136    18.752
   100   7 N        1.855    -0.300    28.635     7.931
   101   6 C        2.941    -0.014    28.372     8.736
   102   6 C        2.958     0.005    27.914     8.666
   103  16 S        2.240    -0.001   141.103    19.993
   104   6 C        2.931     0.116    25.441     8.272
   105   6 C        2.997    -0.020    28.482     8.755
   106   6 C        1.924     0.131    27.883     8.528
   107   7 N        0.911    -0.275    27.101     7.529
   108   6 C        1.937     0.130    27.910     8.532
   109   7 N        0.911    -0.269    26.961     7.510
   110   7 N        2.843    -0.044    22.089     6.980
   111   6 C        3.752    -0.010    20.815     6.506
   112   6 C        2.971     0.003    27.965     8.674
   113   6 C        2.923    -0.038    28.937     8.822
   114   6 C        2.920    -0.031    28.773     8.796
   115   6 C        2.920    -0.034    28.852     8.808
   116   6 C        2.920    -0.035    28.866     8.811
   117   6 C        2.923    -0.041    29.025     8.835
   118   6 C        2.892     0.286    22.167     7.719
   119   8 O        0.858    -0.447    22.638     6.379
   120   1 H        0.925     0.081     1.968     2.194
   121   1 H        0.926     0.078     2.002     2.212
   122   1 H        0.926     0.084     1.938     2.177
   123   1 H        0.926     0.087     1.906     2.159
   124   1 H        0.926     0.081     1.968     2.194
   125   1 H        0.926     0.064     2.158     2.297
   126   1 H        0.924     0.084     1.934     2.175
   127   1 H        0.924     0.042     2.420     2.433
   128   1 H        0.925     0.072     2.066     2.248
   129   1 H        0.925     0.060     2.195     2.317
   130   1 H        0.925     0.047     2.354     2.399
   131   1 H        0.924     0.063     2.166     2.302
   132   1 H        0.924     0.061     2.186     2.312
   133   1 H        0.925     0.066     2.134     2.284
   134   1 H        0.925     0.057     2.240     2.341
   135   1 H        0.925     0.058     2.226     2.333
   136   1 H        0.926     0.065     2.141     2.288
   137   1 H        0.926     0.074     2.044     2.236
   138   1 H        0.926     0.041     2.434     2.440
   139   1 H        0.926     0.042     2.416     2.431
   140   1 H        0.926     0.044     2.400     2.423
   141   1 H        0.924     0.031     2.579     2.511
   142   1 H        0.924     0.047     2.361     2.403
   143   1 H        0.925     0.042     2.424     2.435
   144   1 H        0.925     0.045     2.382     2.414
   145   1 H        0.925     0.036     2.498     2.471
   146   1 H        0.925     0.021     2.725     2.581
   147   1 H        0.926     0.016     2.794     2.614
   148   1 H        0.926     0.035     2.518     2.481
   149   1 H        0.926     0.047     2.352     2.398
   150   1 H        0.924     0.047     2.358     2.401
   151   1 H        0.924     0.049     2.328     2.386
   152   1 H        0.925     0.040     2.447     2.446
   153   1 H        0.925     0.041     2.442     2.444
   154   1 H        0.925     0.050     2.322     2.383
   155   1 H        0.926     0.050     2.317     2.380
   156   1 H        0.925     0.092     1.857     2.131
   157   1 H        0.924     0.085     1.925     2.170
   158   1 H        0.925     0.051     2.309     2.376
   159   1 H        0.925     0.070     2.084     2.258
   160   1 H        0.925     0.047     2.358     2.401
   161   1 H        0.924     0.082     1.958     2.188
   162   1 H        0.924     0.075     2.027     2.227
   163   1 H        0.925     0.069     2.101     2.267
   164   1 H        0.925     0.060     2.201     2.320
   165   1 H        0.925     0.074     2.040     2.233
   166   1 H        0.924     0.070     2.086     2.258
   167   1 H        0.924     0.076     2.019     2.222
   168   1 H        0.925     0.074     2.041     2.234
   169   1 H        0.925     0.052     2.292     2.368
   170   1 H        0.925     0.056     2.245     2.343
   171   1 H        0.925     0.104     1.748     2.068
   172   1 H        0.924     0.102     1.770     2.080
   173   1 H        0.924     0.077     2.012     2.218
   174   1 H        0.926     0.048     2.349     2.397
   175   1 H        0.926     0.053     2.285     2.364
   176   1 H        0.926     0.053     2.284     2.363
   177   1 H        0.926     0.049     2.326     2.385
   178   1 H        0.925     0.029     2.596     2.519

 Mol. C6AA /au·bohr⁶  :     544963.473603
 Mol. C8AA /au·bohr⁸  :   14895923.995720
 Mol. α(0) /au        :       1171.022876


Wiberg/Mayer (AO) data.
largest (>0.10) Wiberg bond orders for each atom

 ---------------------------------------------------------------------------
     #   Z sym  total        # sym  WBO       # sym  WBO       # sym  WBO
 ---------------------------------------------------------------------------
     1   6 C    3.942 --     2 C    1.516    22 C    1.230   120 H    0.943
     2   6 C    3.963 --     1 C    1.516    16 C    1.140     3 C    1.037
     3   6 C    3.918 --     4 O    1.710     2 C    1.037     5 C    1.028
     4   8 O    2.007 --     3 C    1.710
     5   6 C    3.977 --     6 C    1.520    15 C    1.196     3 C    1.028
     6   6 C    3.973 --     5 C    1.520     7 C    1.270   121 H    0.961
     7   6 C    3.970 --     8 C    1.288     6 C    1.270    13 C    1.240
     8   6 C    3.975 --     9 C    1.544     7 C    1.288   122 H    0.962
                            12 C    0.110
     9   6 C    3.970 --     8 C    1.544    10 C    1.295   123 H    0.962
    10   6 C    3.862 --    12 C    1.493     9 C    1.295    11 F    0.942
    11   9 F    1.064 --    10 C    0.942
    12   6 C    3.974 --    10 C    1.493    13 C    1.291   124 H    0.961
                             8 C    0.110
    13   6 C    3.983 --    12 C    1.291    14 C    1.271     7 C    1.240
    14   6 C    3.969 --    15 C    1.503    13 C    1.271   125 H    0.959
    15   6 C    3.985 --    14 C    1.503     5 C    1.196    16 C    1.092
    16   6 C    3.968 --    17 C    1.467     2 C    1.140    15 C    1.092
    17   6 C    3.930 --    16 C    1.467    18 C    1.105    20 C    1.102
    18   6 C    3.941 --    19 N    2.751    17 C    1.105
    19   7 N    2.959 --    18 C    2.751
    20   6 C    3.942 --    21 N    2.750    17 C    1.102
    21   7 N    2.960 --    20 C    2.750
    22   6 C    3.955 --    23 C    1.320     1 C    1.230    33 C    1.158
    23   6 C    3.914 --    22 C    1.320    27 C    1.193    24 O    1.131
    24   8 O    2.301 --    23 C    1.131    25 C    0.946
    25   6 C    3.919 --    26 C    1.010   126 H    0.963    24 O    0.946
                           127 H    0.945
    26   6 C    3.987 --    25 C    1.010   129 H    0.982   128 H    0.979
                           130 H    0.979
    27   6 C    3.930 --    31 C    1.363    23 C    1.193    28 O    1.116
    28   8 O    2.261 --    27 C    1.116    29 C    0.930
    29   6 C    3.916 --    30 C    1.013   132 H    0.967   131 H    0.964
                            28 O    0.930
    30   6 C    3.987 --    29 C    1.013   135 H    0.983   134 H    0.982
                           133 H    0.982
    31   6 C    3.963 --    27 C    1.363    32 C    1.177    38 C    1.151
    32   6 C    3.973 --    37 N    1.336    33 C    1.228    31 C    1.177
    33   6 C    3.971 --    34 N    1.341    32 C    1.228    22 C    1.158
    34   7 N    3.059 --    35 C    1.498    33 C    1.341
    35   6 C    3.957 --    34 N    1.498    36 C    1.329   136 H    0.960
    36   6 C    3.955 --    37 N    1.494    35 C    1.329   137 H    0.959
    37   7 N    3.131 --    36 C    1.494    32 C    1.336
    38   6 C    3.914 --    39 C    1.426    31 C    1.151    80 S    1.100
    39   6 C    3.959 --    38 C    1.426    48 C    1.263    40 C    1.052
    40   6 C    3.986 --    41 C    1.382    47 C    1.377    39 C    1.052
                            43 C    0.101
    41   6 C    3.986 --    42 C    1.444    40 C    1.382   138 H    0.965
                            44 C    0.103
    42   6 C    3.990 --    41 C    1.444    43 C    1.441   139 H    0.969
                            47 C    0.104
    43   6 C    3.981 --    42 C    1.441    44 C    1.398   140 H    0.969
                            40 C    0.101
    44   6 C    3.987 --    47 C    1.431    43 C    1.398    45 C    1.012
                            41 C    0.103
    45   6 C    3.996 --    44 C    1.012    46 C    1.001   141 H    0.974
                           142 H    0.972
    46   6 C    3.995 --    45 C    1.001   145 H    0.988   143 H    0.988
                           144 H    0.985
    47   6 C    3.988 --    44 C    1.431    40 C    1.377   146 H    0.967
                            42 C    0.104
    48   6 C    3.920 --    79 C    1.350    39 C    1.263    49 S    1.087
    49  16 S    2.507 --    50 C    1.106    48 C    1.087
    50   6 C    3.918 --    78 C    1.312    51 C    1.269    49 S    1.106
    51   6 C    3.953 --    76 C    1.271    50 C    1.269    52 C    1.174
    52   6 C    3.970 --    56 N    1.425    51 C    1.174    53 C    1.160
                            55 S    0.107
    53   6 C    3.970 --    54 N    1.425    57 C    1.175    52 C    1.160
                            55 S    0.106
    54   7 N    3.056 --    53 C    1.425    55 S    1.375    56 N    0.145
    55  16 S    3.089 --    56 N    1.378    54 N    1.375    52 C    0.107
                            53 C    0.106
    56   7 N    3.058 --    52 C    1.425    55 S    1.378    54 N    0.145
    57   6 C    3.951 --    58 C    1.277    75 C    1.259    53 C    1.175
    58   6 C    3.915 --    73 C    1.299    57 C    1.277    59 S    1.109
    59  16 S    2.514 --    58 C    1.109    60 C    1.090
    60   6 C    3.924 --    72 C    1.323    61 C    1.291    59 S    1.090
    61   6 C    3.963 --    70 C    1.396    60 C    1.291    62 C    1.050
    62   6 C    3.986 --    69 C    1.389    63 C    1.375    61 C    1.050
                            65 C    0.100
    63   6 C    3.988 --    64 C    1.453    62 C    1.375   147 H    0.970
                            66 C    0.103
    64   6 C    3.989 --    63 C    1.453    65 C    1.430   148 H    0.970
                            69 C    0.102
    65   6 C    3.981 --    64 C    1.430    66 C    1.411   149 H    0.968
                            62 C    0.100
    66   6 C    3.983 --    65 C    1.411    69 C    1.410    67 C    1.013
                            63 C    0.103
    67   6 C    3.995 --    66 C    1.013    68 C    0.999   150 H    0.975
                           151 H    0.970
    68   6 C    3.994 --    67 C    0.999   152 H    0.988   153 H    0.988
                           154 H    0.985
    69   6 C    3.984 --    66 C    1.410    62 C    1.389   155 H    0.964
                            64 C    0.102
    70   6 C    3.924 --    61 C    1.396    85 C    1.181    71 S    1.094
    71  16 S    2.590 --    72 C    1.132    70 C    1.094
    72   6 C    3.927 --    60 C    1.323    73 C    1.252    71 S    1.132
    73   6 C    3.937 --    58 C    1.299    72 C    1.252    74 N    1.163
    74   7 N    3.573 --    75 C    1.189    73 C    1.163    83 C    0.970
    75   6 C    3.930 --    57 C    1.259    76 C    1.221    74 N    1.189
    76   6 C    3.934 --    51 C    1.271    75 C    1.221    77 N    1.173
    77   7 N    3.556 --    76 C    1.173    78 C    1.166    81 C    0.969
    78   6 C    3.936 --    50 C    1.312    79 C    1.235    77 N    1.166
    79   6 C    3.929 --    48 C    1.350    78 C    1.235    80 S    1.121
    80  16 S    2.642 --    79 C    1.121    38 C    1.100
    81   6 C    3.946 --    82 C    1.005    77 N    0.969   157 H    0.961
                           156 H    0.952
    82   6 C    3.986 --    81 C    1.005   160 H    0.987   158 H    0.984
                           159 H    0.980
    83   6 C    3.948 --    84 C    1.007    74 N    0.970   162 H    0.961
                           161 H    0.960
    84   6 C    3.981 --    83 C    1.007   165 H    0.980   164 H    0.979
                           163 H    0.979
    85   6 C    3.958 --    86 C    1.371    70 C    1.181    97 C    1.165
    86   6 C    3.961 --    85 C    1.371    94 C    1.266    87 C    1.021
    87   6 C    3.934 --    88 O    1.702    89 N    1.100    86 C    1.021
    88   8 O    2.023 --    87 C    1.702    89 N    0.121
    89   7 N    3.555 --    92 C    1.145    87 C    1.100    90 C    0.965
                            93 O    0.138    88 O    0.121
    90   6 C    3.948 --    91 C    1.007   167 H    0.968   166 H    0.967
                            89 N    0.965
    91   6 C    3.986 --    90 C    1.007   169 H    0.987   170 H    0.986
                           168 H    0.980
    92   6 C    3.937 --    93 O    1.689    89 N    1.145    94 C    1.001
    93   8 O    2.013 --    92 C    1.689    89 N    0.138
    94   6 C    3.968 --    95 C    1.414    86 C    1.266    92 C    1.001
    95   6 C    3.961 --    94 C    1.414    96 C    1.168   101 C    1.134
    96   6 C    3.971 --   100 N    1.407    97 C    1.177    95 C    1.168
    97   6 C    3.972 --    98 N    1.411    96 C    1.177    85 C    1.165
    98   7 N    3.079 --    99 S    1.417    97 C    1.411   100 N    0.141
    99  16 S    3.139 --    98 N    1.417   100 N    1.410
   100   7 N    3.059 --    99 S    1.410    96 C    1.407    98 N    0.141
   101   6 C    3.947 --   102 C    1.641    95 C    1.134   171 H    0.943
   102   6 C    3.930 --   101 C    1.641   103 S    1.064   118 C    1.042
   103  16 S    2.508 --   104 C    1.105   102 C    1.064
   104   6 C    3.953 --   105 C    1.429   110 N    1.200   103 S    1.105
   105   6 C    3.944 --   104 C    1.429   106 C    1.113   108 C    1.099
   106   6 C    3.948 --   107 N    2.744   105 C    1.113
   107   7 N    2.971 --   106 C    2.744
   108   6 C    3.946 --   109 N    2.764   105 C    1.099
   109   7 N    2.975 --   108 C    2.764
   110   7 N    3.602 --   104 C    1.200   118 C    1.119   111 C    0.957
                           119 O    0.132
   111   6 C    3.940 --   112 C    0.989   173 H    0.957   110 N    0.957
                           172 H    0.943
   112   6 C    3.983 --   117 C    1.417   113 C    1.412   111 C    0.989
                           115 C    0.109
   113   6 C    3.989 --   114 C    1.444   112 C    1.412   174 H    0.967
                           116 C    0.112
   114   6 C    3.990 --   113 C    1.444   115 C    1.438   175 H    0.969
                           117 C    0.112
   115   6 C    3.990 --   116 C    1.440   114 C    1.438   176 H    0.969
                           112 C    0.109
   116   6 C    3.991 --   117 C    1.442   115 C    1.440   177 H    0.970
                           113 C    0.112
   117   6 C    3.992 --   116 C    1.442   112 C    1.417   178 H    0.964
                           114 C    0.112
   118   6 C    3.932 --   119 O    1.657   110 N    1.119   102 C    1.042
   119   8 O    2.001 --   118 C    1.657   110 N    0.132
   120   1 H    0.991 --     1 C    0.943
   121   1 H    0.993 --     6 C    0.961
   122   1 H    0.992 --     8 C    0.962
   123   1 H    0.992 --     9 C    0.962
   124   1 H    0.993 --    12 C    0.961
   125   1 H    0.995 --    14 C    0.959
   126   1 H    0.992 --    25 C    0.963
   127   1 H    0.995 --    25 C    0.945
   128   1 H    0.994 --    26 C    0.979
   129   1 H    0.996 --    26 C    0.982
   130   1 H    0.998 --    26 C    0.979
   131   1 H    0.993 --    29 C    0.964
   132   1 H    0.996 --    29 C    0.967
   133   1 H    0.995 --    30 C    0.982
   134   1 H    0.997 --    30 C    0.982
   135   1 H    0.997 --    30 C    0.983
   136   1 H    0.994 --    35 C    0.960
   137   1 H    0.994 --    36 C    0.959
   138   1 H    0.998 --    41 C    0.965
   139   1 H    0.997 --    42 C    0.969
   140   1 H    0.998 --    43 C    0.969
   141   1 H    0.999 --    45 C    0.974
   142   1 H    0.997 --    45 C    0.972
   143   1 H    0.998 --    46 C    0.988
   144   1 H    0.997 --    46 C    0.985
   145   1 H    0.999 --    46 C    0.988
   146   1 H    0.999 --    47 C    0.967
   147   1 H    0.999 --    63 C    0.970
   148   1 H    0.998 --    64 C    0.970
   149   1 H    0.997 --    65 C    0.968
   150   1 H    0.997 --    67 C    0.975
   151   1 H    0.997 --    67 C    0.970
   152   1 H    0.998 --    68 C    0.988
   153   1 H    0.998 --    68 C    0.988
   154   1 H    0.997 --    68 C    0.985
   155   1 H    0.997 --    69 C    0.964
   156   1 H    0.989 --    81 C    0.952
   157   1 H    0.992 --    81 C    0.961
   158   1 H    0.997 --    82 C    0.984
   159   1 H    0.994 --    82 C    0.980
   160   1 H    0.998 --    82 C    0.987
   161   1 H    0.992 --    83 C    0.960
   162   1 H    0.991 --    83 C    0.961
   163   1 H    0.995 --    84 C    0.979
   164   1 H    0.996 --    84 C    0.979
   165   1 H    0.994 --    84 C    0.980
   166   1 H    0.994 --    90 C    0.967
   167   1 H    0.993 --    90 C    0.968
   168   1 H    0.994 --    91 C    0.980
   169   1 H    0.997 --    91 C    0.987
   170   1 H    0.997 --    91 C    0.986
   171   1 H    0.985 --   101 C    0.943
   172   1 H    0.989 --   111 C    0.943
   173   1 H    0.993 --   111 C    0.957
   174   1 H    0.998 --   113 C    0.967
   175   1 H    0.997 --   114 C    0.969
   176   1 H    0.997 --   115 C    0.969
   177   1 H    0.997 --   116 C    0.970
   178   1 H    0.999 --   117 C    0.964
 ---------------------------------------------------------------------------

Topologies differ in bond orders
Writing corrected topology to xtbtopo.mol

molecular dipole:
                 x           y           z       tot (Debye)
 q only:       -3.935      -3.480       1.064
   full:       -3.671      -4.036       0.801      14.016
molecular quadrupole (traceless):
                xx          xy          yy          xz          yz          zz
 q only:     -187.759     -86.672      78.459      47.400      40.062     109.300
  q+dip:     -159.672     -89.373      58.129      58.866      59.043     101.542
   full:     -166.918     -87.341      53.642      58.117      59.493     113.277


           -------------------------------------------------
          | TOTAL ENERGY             -317.865753720848 Eh   |
          | GRADIENT NORM               0.042188259434 Eh/α |
          | HOMO-LUMO GAP               0.485399695045 eV   |
           -------------------------------------------------

------------------------------------------------------------------------
 * finished run on 2022/02/05 at 05:50:37.712     
------------------------------------------------------------------------
 total:
 * wall-time:     0 d,  0 h,  0 min,  0.660 sec
 *  cpu-time:     0 d,  0 h,  0 min,  5.171 sec
 * ratio c/w:     7.838 speedup
 SCF:
 * wall-time:     0 d,  0 h,  0 min,  0.563 sec
 *  cpu-time:     0 d,  0 h,  0 min,  4.496 sec
 * ratio c/w:     7.981 speedup

