      -----------------------------------------------------------      
     |                   =====================                   |     
     |                           x T B                           |     
     |                   =====================                   |     
     |                         S. Grimme                         |     
     |          Mulliken Center for Theoretical Chemistry        |     
     |                    University of Bonn                     |     
      -----------------------------------------------------------      

   * xtb version 6.4.1 (unknown) compiled by 'oda6@login1.crc.pitt.edu' on 2021-06-25

   xtb is free software: you can redistribute it and/or modify it under
   the terms of the GNU Lesser General Public License as published by
   the Free Software Foundation, either version 3 of the License, or
   (at your option) any later version.
   
   xtb is distributed in the hope that it will be useful,
   but WITHOUT ANY WARRANTY; without even the implied warranty of
   MERCHANTABILITY or FITNESS FOR A PARTICULAR PURPOSE.  See the
   GNU Lesser General Public License for more details.
   
   Cite this work as:
   * C. Bannwarth, E. Caldeweyher, S. Ehlert, A. Hansen, P. Pracht,
     J. Seibert, S. Spicher, S. Grimme, WIREs Comput. Mol. Sci., 2020, 11,
     e01493. DOI: 10.1002/wcms.1493
   
   for GFN2-xTB:
   * C. Bannwarth, S. Ehlert and S. Grimme., J. Chem. Theory Comput., 2019,
     15, 1652-1671. DOI: 10.1021/acs.jctc.8b01176
   for GFN1-xTB:
   * S. Grimme, C. Bannwarth, P. Shushkov, J. Chem. Theory Comput., 2017,
     13, 1989-2009. DOI: 10.1021/acs.jctc.7b00118
   for GFN0-xTB:
   * P. Pracht, E. Caldeweyher, S. Ehlert, S. Grimme, ChemRxiv, 2019, preprint.
     DOI: 10.26434/chemrxiv.8326202.v1
   for GFN-FF:
   * S. Spicher and S. Grimme, Angew. Chem. Int. Ed., 2020, 59, 15665-15673.
     DOI: 10.1002/anie.202004239
   
   for DFT-D4:
   * E. Caldeweyher, C. Bannwarth and S. Grimme, J. Chem. Phys., 2017,
     147, 034112. DOI: 10.1063/1.4993215
   * E. Caldeweyher, S. Ehlert, A. Hansen, H. Neugebauer, S. Spicher,
     C. Bannwarth and S. Grimme, J. Chem. Phys., 2019, 150, 154122.
     DOI: 10.1063/1.5090222
   * E. Caldeweyher, J.-M. Mewes, S. Ehlert and S. Grimme, Phys. Chem. Chem. Phys.
     2020, 22, 8499-8512. DOI: 10.1039/D0CP00502A
   
   for sTDA-xTB:
   * S. Grimme and C. Bannwarth, J. Chem. Phys., 2016, 145, 054103.
     DOI: 10.1063/1.4959605
   
   in the mass-spec context:
   * V. Asgeirsson, C. Bauer and S. Grimme, Chem. Sci., 2017, 8, 4879.
     DOI: 10.1039/c7sc00601b
   * J. Koopman and S. Grimme, ACS Omega 2019, 4, 12, 15120-15133.
     DOI: 10.1021/acsomega.9b02011
   
   for metadynamics refer to:
   * S. Grimme, J. Chem. Theory Comput., 2019, 155, 2847-2862
     DOI: 10.1021/acs.jctc.9b00143
   
   for SPH calculations refer to:
   * S. Spicher and S. Grimme, J. Chem. Theory Comput., 2021, 17, 1701-1714
     DOI: 10.1021/acs.jctc.0c01306
   
   with help from (in alphabetical order)
   P. Atkinson, C. Bannwarth, F. Bohle, G. Brandenburg, E. Caldeweyher
   M. Checinski, S. Dohm, S. Ehlert, S. Ehrlich, I. Gerasimov, J. Koopman
   C. Lavigne, S. Lehtola, F. März, M. Müller, F. Musil, H. Neugebauer
   J. Pisarek, C. Plett, P. Pracht, J. Seibert, P. Shushkov, S. Spicher
   M. Stahn, M. Steiner, T. Strunk, J. Stückrath, T. Rose, and J. Unsleber
   
 * started run on 2022/02/11 at 04:00:00.906     

           -------------------------------------------------
          |                Calculation Setup                |
           -------------------------------------------------

          program call               : /ihome/ghutchison/oda6/xtb/xtb-641/bin/xtb ../../GFN2_output/9_27_86_27_15.mol --sp --alpb water
          hostname                   : smp-n25
          coordinate file            : ../../GFN2_output/9_27_86_27_15.mol
          omp threads                :                     8
          number of atoms            :                   196
          number of electrons        :                   582
          charge                     :                     0
          spin                       :                   0.0
          first test random number   :      0.38704476035144

   ID    Z sym.   atoms
    1    6 C      1-3, 5-10, 12-18, 20, 22-37, 39-49, 51-54, 58, 59, 61-71,
                  73, 74, 76, 77, 79, 80, 82-101, 103-105, 107-116, 118
    2    8 O      4, 106
    3    9 F      11
    4    7 N      19, 21, 55, 57, 75, 78, 117, 119
    5   16 S      38, 50, 56, 60, 72, 81, 102
    6    1 H      120-196

           -------------------------------------------------
          |                 G F N 2 - x T B                 |
           -------------------------------------------------

        Reference                      10.1021/acs.jctc.8b01176
      * Hamiltonian:
        H0-scaling (s, p, d)           1.850000    2.230000    2.230000
        zeta-weighting                 0.500000
      * Dispersion:
        s8                             2.700000
        a1                             0.520000
        a2                             5.000000
        s9                             5.000000
      * Repulsion:
        kExp                           1.500000    1.000000
        rExp                           1.000000
      * Coulomb:
        alpha                          2.000000
        third order                    shell-resolved
        anisotropic                    true
        a3                             3.000000
        a5                             4.000000
        cn-shift                       1.200000
        cn-exp                         4.000000
        max-rad                        5.000000

      * Solvation model:               ALPB
        Solvent                        water
        Parameter file                 internal GFN2-xTB/ALPB
        Dielectric constant                8.0200E+01
        Reference state                gsolv [1 M gas/solution]
        Free energy shift                  1.0808E-03 Eh       6.7819E-01 kcal/mol
        Temperature                        2.9815E+02 K
        Density                            1.0000E+00 kg/L
        Solvent mass                       1.8000E+01 g/mol
        Interaction kernel             P16
        Born radius scaling (c1)           1.4744E+00
        Born radii integrator          GBOBC
        Born offset                        0.0000E+00 a0       0.0000E+00 AA
        H-bond correction              true
        Ion screening                  false
        Surface tension                    1.0000E-05 Eh       1.5569E+01 dyn/cm
        Grid points                               230 per atom

          ...................................................
          :                      SETUP                      :
          :.................................................:
          :  # basis functions                 595          :
          :  # atomic orbitals                 588          :
          :  # shells                          322          :
          :  # electrons                       582          :
          :  max. iterations                   250          :
          :  Hamiltonian                  GFN2-xTB          :
          :  restarted?                      false          :
          :  GBSA solvation                   true          :
          :  PC potential                    false          :
          :  electronic temp.          300.0000000     K    :
          :  accuracy                    1.0000000          :
          :  -> integral cutoff          0.2500000E+02      :
          :  -> integral neglect         0.1000000E-07      :
          :  -> SCF convergence          0.1000000E-05 Eh   :
          :  -> wf. convergence          0.1000000E-03 e    :
          :  Broyden damping             0.4000000          :
          ...................................................

 iter      E             dE          RMSdq      gap      omega  full diag
   1   -319.4406046 -0.319441E+03  0.425E+00    1.01       0.0  T
   2   -319.6879949 -0.247390E+00  0.255E+00    0.85       1.0  T
   3   -319.5693519  0.118643E+00  0.136E+00    0.92       1.0  T
   4   -319.7713830 -0.202031E+00  0.439E-01    0.93       1.0  T
   5   -319.7923239 -0.209409E-01  0.153E-01    0.85       1.0  T
   6   -319.7940760 -0.175207E-02  0.751E-02    0.89       1.0  T
   7   -319.7943982 -0.322231E-03  0.308E-02    0.88       1.0  T
   8   -319.7944396 -0.414052E-04  0.144E-02    0.88       1.0  T
   9   -319.7944512 -0.116166E-04  0.804E-03    0.88       1.0  T
  10   -319.7944541 -0.289440E-05  0.445E-03    0.88       1.6  T
  11   -319.7944554 -0.124191E-05  0.218E-03    0.88       3.3  T
  12   -319.7944555 -0.143712E-06  0.122E-03    0.88       5.9  T
  13   -319.7944556 -0.928470E-07  0.503E-04    0.88      14.2  T
  14   -319.7944556 -0.131607E-07  0.287E-04    0.88      24.9  T

   *** convergence criteria satisfied after 14 iterations ***

         #    Occupation            Energy/Eh            Energy/eV
      -------------------------------------------------------------
         1        2.0000           -0.8358091             -22.7435
       ...           ...                  ...                  ...
       285        2.0000           -0.3875186             -10.5449
       286        2.0000           -0.3851832             -10.4814
       287        2.0000           -0.3828493             -10.4179
       288        2.0000           -0.3814672             -10.3803
       289        2.0000           -0.3774607             -10.2712
       290        2.0000           -0.3743395             -10.1863
       291        2.0000           -0.3635378              -9.8924 (HOMO)
       292                         -0.3311968              -9.0123 (LUMO)
       293                         -0.3287415              -8.9455
       294                         -0.3174246              -8.6376
       295                         -0.3130146              -8.5176
       296                         -0.3021308              -8.2214
       ...                                ...                  ...
       588                          1.1580046              31.5109
      -------------------------------------------------------------
                  HL-Gap            0.0323410 Eh            0.8800 eV
             Fermi-level           -0.3474018 Eh           -9.4533 eV

 SCC (total)                   0 d,  0 h,  0 min,  0.624 sec
 SCC setup                      ...        0 min,  0.007 sec (  1.160%)
 Dispersion                     ...        0 min,  0.009 sec (  1.377%)
 classical contributions        ...        0 min,  0.000 sec (  0.045%)
 integral evaluation            ...        0 min,  0.031 sec (  5.007%)
 iterations                     ...        0 min,  0.477 sec ( 76.447%)
 molecular gradient             ...        0 min,  0.097 sec ( 15.487%)
 printout                       ...        0 min,  0.003 sec (  0.465%)

         :::::::::::::::::::::::::::::::::::::::::::::::::::::
         ::                     SUMMARY                     ::
         :::::::::::::::::::::::::::::::::::::::::::::::::::::
         :: total energy            -314.604602949418 Eh    ::
         :: total w/o Gsasa/hb      -314.583752668279 Eh    ::
         :: gradient norm              0.040853824505 Eh/a0 ::
         :: HOMO-LUMO gap              0.880042148811 eV    ::
         ::.................................................::
         :: SCC energy              -319.794455610174 Eh    ::
         :: -> isotropic ES            0.186046412041 Eh    ::
         :: -> anisotropic ES          0.017351841358 Eh    ::
         :: -> anisotropic XC          0.190441248674 Eh    ::
         :: -> dispersion             -0.322633325037 Eh    ::
         :: -> Gsolv                  -0.063784162425 Eh    ::
         ::    -> Gelec               -0.042933881286 Eh    ::
         ::    -> Gsasa               -0.014452001000 Eh    ::
         ::    -> Ghb                 -0.007479039837 Eh    ::
         ::    -> Gshift               0.001080759698 Eh    ::
         :: repulsion energy           5.183714677055 Eh    ::
         :: add. restraining           0.000000000000 Eh    ::
         :: total charge              -0.000000000003 e     ::
         :::::::::::::::::::::::::::::::::::::::::::::::::::::

           -------------------------------------------------
          |                Property Printout                |
           -------------------------------------------------

    * Orbital Energies and Occupations

         #    Occupation            Energy/Eh            Energy/eV
      -------------------------------------------------------------
         1        2.0000           -0.8358091             -22.7435
       ...           ...                  ...                  ...
       279        2.0000           -0.4024636             -10.9516
       280        2.0000           -0.4002243             -10.8907
       281        2.0000           -0.3983712             -10.8402
       282        2.0000           -0.3959727             -10.7750
       283        2.0000           -0.3914347             -10.6515
       284        2.0000           -0.3908400             -10.6353
       285        2.0000           -0.3875186             -10.5449
       286        2.0000           -0.3851832             -10.4814
       287        2.0000           -0.3828493             -10.4179
       288        2.0000           -0.3814672             -10.3803
       289        2.0000           -0.3774607             -10.2712
       290        2.0000           -0.3743395             -10.1863
       291        2.0000           -0.3635378              -9.8924 (HOMO)
       292                         -0.3311968              -9.0123 (LUMO)
       293                         -0.3287415              -8.9455
       294                         -0.3174246              -8.6376
       295                         -0.3130146              -8.5176
       296                         -0.3021308              -8.2214
       297                         -0.2912616              -7.9256
       298                         -0.2802646              -7.6264
       299                         -0.2738298              -7.4513
       300                         -0.2560607              -6.9678
       301                         -0.2488094              -6.7704
       302                         -0.2472304              -6.7275
       ...                                ...                  ...
       588                          1.1580046              31.5109
      -------------------------------------------------------------
                  HL-Gap            0.0323410 Eh            0.8800 eV
             Fermi-level           -0.3474018 Eh           -9.4533 eV

     #   Z          covCN         q      C6AA      α(0)
     1   6 C        2.928    -0.010    28.277     8.721
     2   6 C        3.011    -0.042    29.028     8.838
     3   6 C        2.870     0.230    23.179     7.892
     4   8 O        0.856    -0.437    22.444     6.352
     5   6 C        3.035    -0.022    28.524     8.760
     6   6 C        2.913    -0.019    28.492     8.753
     7   6 C        2.987     0.018    27.600     8.618
     8   6 C        2.922    -0.031    28.777     8.797
     9   6 C        2.913    -0.048    29.180     8.858
    10   6 C        2.782     0.179    24.142     8.048
    11   9 F        0.787    -0.253    11.795     4.057
    12   6 C        2.917    -0.056    29.382     8.889
    13   6 C        2.991     0.024    27.453     8.595
    14   6 C        2.914    -0.028    28.703     8.785
    15   6 C        3.031     0.007    27.838     8.654
    16   6 C        3.019     0.038    27.116     8.542
    17   6 C        2.948    -0.004    28.123     8.698
    18   6 C        1.930     0.129    27.921     8.533
    19   7 N        0.911    -0.285    27.361     7.565
    20   6 C        1.938     0.131    27.889     8.528
    21   7 N        0.911    -0.290    27.485     7.582
    22   6 C        2.988     0.022    27.514     8.604
    23   6 C        3.133     0.028    27.169     8.533
    24   6 C        2.983    -0.010    28.270     8.722
    25   6 C        2.971     0.008    27.845     8.656
    26   6 C        2.931    -0.053    29.314     8.879
    27   6 C        2.967     0.012    27.750     8.641
    28   6 C        3.807    -0.064    21.720     6.635
    29   6 C        3.754    -0.106    22.574     6.775
    30   6 C        2.931    -0.054    29.329     8.882
    31   6 C        2.971     0.008    27.832     8.654
    32   6 C        3.806    -0.063    21.706     6.632
    33   6 C        3.753    -0.101    22.493     6.763
    34   6 C        3.807    -0.058    21.611     6.618
    35   6 C        3.753    -0.103    22.526     6.768
    36   6 C        3.095    -0.051    29.151     8.849
    37   6 C        3.024     0.042    27.038     8.529
    38  16 S        2.329    -0.053   143.238    20.143
    39   6 C        3.033     0.008    27.801     8.648
    40   6 C        3.108    -0.004    27.967     8.664
    41   6 C        2.977     0.009    27.802     8.649
    42   6 C        2.927    -0.039    28.965     8.826
    43   6 C        2.918    -0.035    28.875     8.812
    44   6 C        2.926    -0.038    28.956     8.825
    45   6 C        2.970     0.017    27.628     8.622
    46   6 C        3.807    -0.063    21.706     6.632
    47   6 C        3.754    -0.105    22.571     6.774
    48   6 C        2.932    -0.041    29.016     8.834
    49   6 C        3.199     0.012    27.189     8.499
    50  16 S        2.175    -0.058   143.448    20.158
    51   6 C        3.099     0.004    27.800     8.641
    52   6 C        3.086    -0.041    28.918     8.815
    53   6 C        3.342     0.068    24.020     7.746
    54   6 C        3.341     0.069    24.023     7.748
    55   7 N        1.854    -0.303    28.697     7.940
    56  16 S        2.688     0.292   129.692    19.167
    57   7 N        1.854    -0.304    28.741     7.946
    58   6 C        3.087    -0.042    28.940     8.818
    59   6 C        3.102     0.001    27.871     8.651
    60  16 S        2.178    -0.058   143.470    20.160
    61   6 C        3.203     0.011    27.180     8.493
    62   6 C        3.107    -0.002    27.939     8.660
    63   6 C        2.975     0.011    27.758     8.642
    64   6 C        2.925    -0.033    28.828     8.805
    65   6 C        2.919    -0.031    28.770     8.796
    66   6 C        2.926    -0.039    28.970     8.827
    67   6 C        2.970     0.019    27.581     8.614
    68   6 C        3.807    -0.060    21.651     6.624
    69   6 C        3.754    -0.107    22.594     6.778
    70   6 C        2.932    -0.040    28.989     8.830
    71   6 C        3.042     0.012    27.709     8.634
    72  16 S        2.297    -0.019   141.827    20.044
    73   6 C        3.117     0.007    27.707     8.622
    74   6 C        3.248     0.029    26.348     8.311
    75   7 N        2.801    -0.015    21.541     6.893
    76   6 C        3.072     0.030    27.253     8.560
    77   6 C        3.071     0.034    27.169     8.547
    78   7 N        2.795    -0.023    21.698     6.918
    79   6 C        3.252     0.030    26.279     8.295
    80   6 C        3.117     0.008    27.675     8.617
    81  16 S        2.265    -0.022   141.945    20.052
    82   6 C        3.747    -0.017    20.951     6.529
    83   6 C        3.752    -0.121    22.884     6.822
    84   6 C        3.743    -0.009    20.818     6.509
    85   6 C        3.752    -0.133    23.112     6.856
    86   6 C        3.036     0.033    27.232     8.559
    87   6 C        3.129     0.005    27.708     8.618
    88   6 C        2.982    -0.016    28.409     8.743
    89   6 C        2.968     0.007    27.869     8.659
    90   6 C        2.930    -0.054    29.349     8.885
    91   6 C        2.967     0.009    27.823     8.652
    92   6 C        3.807    -0.063    21.699     6.631
    93   6 C        3.753    -0.103    22.530     6.769
    94   6 C        2.932    -0.054    29.351     8.885
    95   6 C        2.967     0.003    27.951     8.672
    96   6 C        3.806    -0.058    21.620     6.619
    97   6 C        3.752    -0.100    22.476     6.761
    98   6 C        3.806    -0.059    21.636     6.622
    99   6 C        3.751    -0.106    22.586     6.777
   100   6 C        3.102    -0.036    28.760     8.788
   101   6 C        2.975     0.028    27.374     8.582
   102  16 S        2.380    -0.019   141.829    20.044
   103   6 C        2.951    -0.012    28.313     8.727
   104   6 C        3.003    -0.041    29.009     8.835
   105   6 C        2.866     0.230    23.185     7.893
   106   8 O        0.856    -0.432    22.326     6.335
   107   6 C        3.044    -0.022    28.504     8.757
   108   6 C        2.918    -0.027    28.687     8.783
   109   6 C        2.967     0.037    27.161     8.548
   110   6 C        3.758    -0.135    23.142     6.859
   111   6 C        2.926    -0.034    28.836     8.806
   112   6 C        2.913    -0.027    28.676     8.781
   113   6 C        3.032     0.001    27.978     8.676
   114   6 C        3.021     0.036    27.177     8.551
   115   6 C        2.947    -0.003    28.101     8.694
   116   6 C        1.944     0.130    27.908     8.531
   117   7 N        0.911    -0.290    27.474     7.581
   118   6 C        1.946     0.134    27.819     8.518
   119   7 N        0.911    -0.289    27.454     7.578
   120   1 H        0.925     0.075     2.032     2.229
   121   1 H        0.926     0.074     2.043     2.235
   122   1 H        0.926     0.081     1.972     2.196
   123   1 H        0.926     0.085     1.925     2.170
   124   1 H        0.926     0.080     1.982     2.201
   125   1 H        0.926     0.059     2.206     2.323
   126   1 H        0.926     0.037     2.484     2.465
   127   1 H        0.924     0.043     2.412     2.429
   128   1 H        0.924     0.045     2.389     2.417
   129   1 H        0.925     0.037     2.482     2.464
   130   1 H        0.925     0.036     2.503     2.474
   131   1 H        0.925     0.043     2.403     2.424
   132   1 H        0.926     0.041     2.432     2.439
   133   1 H        0.924     0.049     2.333     2.388
   134   1 H        0.924     0.040     2.448     2.447
   135   1 H        0.925     0.024     2.666     2.553
   136   1 H        0.925     0.043     2.403     2.424
   137   1 H        0.925     0.039     2.459     2.452
   138   1 H        0.924     0.038     2.476     2.461
   139   1 H        0.924     0.029     2.600     2.522
   140   1 H        0.925     0.044     2.400     2.423
   141   1 H        0.925     0.036     2.502     2.474
   142   1 H        0.925     0.043     2.405     2.425
   143   1 H        0.926     0.070     2.082     2.256
   144   1 H        0.926     0.040     2.446     2.446
   145   1 H        0.926     0.043     2.405     2.425
   146   1 H        0.926     0.041     2.441     2.443
   147   1 H        0.924     0.053     2.279     2.361
   148   1 H        0.924     0.037     2.495     2.470
   149   1 H        0.925     0.042     2.428     2.437
   150   1 H        0.925     0.038     2.477     2.461
   151   1 H        0.925     0.047     2.359     2.402
   152   1 H        0.926     0.034     2.535     2.490
   153   1 H        0.926     0.035     2.518     2.481
   154   1 H        0.926     0.043     2.415     2.430
   155   1 H        0.926     0.040     2.446     2.446
   156   1 H        0.924     0.039     2.458     2.452
   157   1 H        0.924     0.045     2.380     2.412
   158   1 H        0.925     0.040     2.454     2.450
   159   1 H        0.925     0.037     2.490     2.468
   160   1 H        0.925     0.045     2.388     2.417
   161   1 H        0.925     0.028     2.619     2.531
   162   1 H        0.924     0.083     1.947     2.182
   163   1 H        0.925     0.094     1.842     2.123
   164   1 H        0.925     0.072     2.060     2.244
   165   1 H        0.925     0.050     2.316     2.380
   166   1 H        0.925     0.045     2.379     2.412
   167   1 H        0.924     0.078     1.999     2.211
   168   1 H        0.924     0.073     2.050     2.239
   169   1 H        0.925     0.072     2.060     2.244
   170   1 H        0.925     0.060     2.198     2.319
   171   1 H        0.925     0.067     2.117     2.275
   172   1 H        0.926     0.043     2.410     2.428
   173   1 H        0.924     0.041     2.430     2.438
   174   1 H        0.924     0.039     2.466     2.456
   175   1 H        0.925     0.036     2.501     2.473
   176   1 H        0.925     0.041     2.430     2.438
   177   1 H        0.925     0.039     2.458     2.452
   178   1 H        0.926     0.036     2.501     2.473
   179   1 H        0.924     0.045     2.388     2.417
   180   1 H        0.925     0.028     2.620     2.531
   181   1 H        0.925     0.040     2.449     2.447
   182   1 H        0.925     0.028     2.620     2.531
   183   1 H        0.925     0.042     2.424     2.435
   184   1 H        0.924     0.052     2.300     2.372
   185   1 H        0.924     0.034     2.534     2.490
   186   1 H        0.925     0.040     2.445     2.445
   187   1 H        0.925     0.040     2.446     2.446
   188   1 H        0.925     0.037     2.488     2.467
   189   1 H        0.926     0.078     1.999     2.211
   190   1 H        0.925     0.064     2.153     2.295
   191   1 H        0.926     0.065     2.138     2.287
   192   1 H        0.925     0.070     2.085     2.258
   193   1 H        0.924     0.082     1.957     2.188
   194   1 H        0.925     0.068     2.112     2.273
   195   1 H        0.926     0.070     2.090     2.261
   196   1 H        0.926     0.053     2.288     2.366

 Mol. C6AA /au·bohr⁶  :     599222.959846
 Mol. C8AA /au·bohr⁸  :   16271909.808432
 Mol. α(0) /au        :       1231.736800


Wiberg/Mayer (AO) data.
largest (>0.10) Wiberg bond orders for each atom

 ---------------------------------------------------------------------------
     #   Z sym  total        # sym  WBO       # sym  WBO       # sym  WBO
 ---------------------------------------------------------------------------
     1   6 C    3.944 --     2 C    1.489    22 C    1.294   120 H    0.945
     2   6 C    3.950 --     1 C    1.489    16 C    1.156     3 C    1.034
     3   6 C    3.907 --     4 O    1.721     2 C    1.034     5 C    1.021
     4   8 O    1.990 --     3 C    1.721
     5   6 C    3.975 --     6 C    1.525    15 C    1.197     3 C    1.021
     6   6 C    3.973 --     5 C    1.525     7 C    1.268   121 H    0.961
     7   6 C    3.980 --     8 C    1.288     6 C    1.268    13 C    1.242
     8   6 C    3.977 --     9 C    1.544     7 C    1.288   122 H    0.963
                            12 C    0.111
     9   6 C    3.972 --     8 C    1.544    10 C    1.296   123 H    0.963
    10   6 C    3.863 --    12 C    1.494     9 C    1.296    11 F    0.940
    11   9 F    1.061 --    10 C    0.940
    12   6 C    3.975 --    10 C    1.494    13 C    1.291   124 H    0.961
                             8 C    0.111
    13   6 C    3.983 --    12 C    1.291    14 C    1.268     7 C    1.242
    14   6 C    3.970 --    15 C    1.512    13 C    1.268   125 H    0.960
    15   6 C    3.983 --    14 C    1.512     5 C    1.197    16 C    1.078
    16   6 C    3.963 --    17 C    1.448     2 C    1.156    15 C    1.078
    17   6 C    3.954 --    16 C    1.448    18 C    1.112    20 C    1.105
    18   6 C    3.941 --    19 N    2.740    17 C    1.112
    19   7 N    2.955 --    18 C    2.740
    20   6 C    3.943 --    21 N    2.741    17 C    1.105
    21   7 N    2.964 --    20 C    2.741
    22   6 C    3.922 --    23 C    1.327     1 C    1.294    38 S    1.091
    23   6 C    3.962 --    36 C    1.374    22 C    1.327    24 C    1.017
    24   6 C    3.981 --    31 C    1.369    25 C    1.365    23 C    1.017
    25   6 C    3.984 --    26 C    1.420    24 C    1.365    34 C    1.013
                            30 C    0.103
    26   6 C    3.988 --    25 C    1.420    27 C    1.410   126 H    0.965
                            31 C    0.102
    27   6 C    3.985 --    30 C    1.411    26 C    1.410    28 C    1.013
    28   6 C    3.996 --    27 C    1.013    29 C    1.000   127 H    0.974
                           128 H    0.973
    29   6 C    3.995 --    28 C    1.000   130 H    0.988   129 H    0.988
                           131 H    0.986
    30   6 C    3.988 --    31 C    1.419    27 C    1.411   132 H    0.965
                            25 C    0.103
    31   6 C    3.983 --    30 C    1.419    24 C    1.369    32 C    1.012
                            26 C    0.102
    32   6 C    3.995 --    31 C    1.012    33 C    1.001   133 H    0.973
                           134 H    0.969
    33   6 C    3.996 --    32 C    1.001   137 H    0.988   135 H    0.987
                           136 H    0.986
    34   6 C    3.996 --    25 C    1.013    35 C    0.999   138 H    0.974
                           139 H    0.966
    35   6 C    3.995 --    34 C    0.999   142 H    0.988   141 H    0.986
                           140 H    0.986
    36   6 C    3.955 --    37 C    1.399    23 C    1.374   143 H    0.956
    37   6 C    3.930 --    36 C    1.399    39 C    1.215    38 S    1.143
    38  16 S    2.613 --    37 C    1.143    22 C    1.091
    39   6 C    3.920 --    40 C    1.413    37 C    1.215    81 S    1.073
    40   6 C    3.955 --    39 C    1.413    49 C    1.287    41 C    1.022
    41   6 C    3.987 --    48 C    1.393    42 C    1.383    40 C    1.022
                            44 C    0.104
    42   6 C    3.988 --    43 C    1.438    41 C    1.383   144 H    0.969
                            45 C    0.105
    43   6 C    3.990 --    44 C    1.446    42 C    1.438   145 H    0.969
                            48 C    0.105
    44   6 C    3.985 --    43 C    1.446    45 C    1.402   146 H    0.969
                            41 C    0.104
    45   6 C    3.985 --    48 C    1.418    44 C    1.402    46 C    1.014
                            42 C    0.105
    46   6 C    3.994 --    45 C    1.014    47 C    0.999   148 H    0.975
                           147 H    0.966
    47   6 C    3.995 --    46 C    0.999   150 H    0.988   149 H    0.988
                           151 H    0.985
    48   6 C    3.984 --    45 C    1.418    41 C    1.393   152 H    0.968
                            43 C    0.105
    49   6 C    3.922 --    80 C    1.331    40 C    1.287    50 S    1.090
    50  16 S    2.508 --    51 C    1.110    49 C    1.090
    51   6 C    3.917 --    79 C    1.310    52 C    1.266    50 S    1.110
    52   6 C    3.956 --    77 C    1.273    51 C    1.266    53 C    1.176
    53   6 C    3.970 --    57 N    1.421    52 C    1.176    54 C    1.161
                            56 S    0.107
    54   6 C    3.970 --    55 N    1.420    58 C    1.178    53 C    1.161
                            56 S    0.106
    55   7 N    3.057 --    54 C    1.420    56 S    1.378    57 N    0.146
    56  16 S    3.092 --    57 N    1.379    55 N    1.378    53 C    0.107
                            54 C    0.106
    57   7 N    3.057 --    53 C    1.421    56 S    1.379    55 N    0.146
    58   6 C    3.955 --    59 C    1.268    76 C    1.267    54 C    1.178
    59   6 C    3.923 --    74 C    1.313    58 C    1.268    60 S    1.108
    60  16 S    2.515 --    59 C    1.108    61 C    1.093
    61   6 C    3.923 --    73 C    1.349    62 C    1.254    60 S    1.093
    62   6 C    3.961 --    71 C    1.441    61 C    1.254    63 C    1.040
    63   6 C    3.986 --    70 C    1.387    64 C    1.384    62 C    1.040
                            66 C    0.101
    64   6 C    3.986 --    65 C    1.447    63 C    1.384   153 H    0.968
                            67 C    0.105
    65   6 C    3.990 --    64 C    1.447    66 C    1.439   154 H    0.967
                            70 C    0.105
    66   6 C    3.984 --    65 C    1.439    67 C    1.404   155 H    0.968
                            63 C    0.101
    67   6 C    3.987 --    70 C    1.418    66 C    1.404    68 C    1.012
                            64 C    0.105
    68   6 C    3.995 --    67 C    1.012    69 C    1.000   157 H    0.973
                           156 H    0.973
    69   6 C    3.995 --    68 C    1.000   159 H    0.988   158 H    0.988
                           160 H    0.985
    70   6 C    3.987 --    67 C    1.418    63 C    1.387   161 H    0.967
                            65 C    0.105
    71   6 C    3.921 --    62 C    1.441    86 C    1.166    72 S    1.083
    72  16 S    2.558 --    73 C    1.124    71 C    1.083
    73   6 C    3.929 --    61 C    1.349    74 C    1.235    72 S    1.124
    74   6 C    3.940 --    59 C    1.313    73 C    1.235    75 N    1.166
    75   7 N    3.571 --    76 C    1.184    74 C    1.166    84 C    0.972
    76   6 C    3.938 --    58 C    1.267    77 C    1.219    75 N    1.184
    77   6 C    3.934 --    52 C    1.273    76 C    1.219    78 N    1.175
    78   7 N    3.550 --    77 C    1.175    79 C    1.159    82 C    0.968
    79   6 C    3.941 --    51 C    1.310    80 C    1.247    78 N    1.159
    80   6 C    3.922 --    49 C    1.331    79 C    1.247    81 S    1.124
    81  16 S    2.542 --    80 C    1.124    39 C    1.073
    82   6 C    3.945 --    83 C    1.005    78 N    0.968   162 H    0.961
                           163 H    0.951
    83   6 C    3.986 --    82 C    1.005   166 H    0.987   165 H    0.984
                           164 H    0.980
    84   6 C    3.950 --    85 C    1.006    75 N    0.972   168 H    0.962
                           167 H    0.959
    85   6 C    3.982 --    84 C    1.006   169 H    0.980   171 H    0.979
                           170 H    0.979
    86   6 C    3.919 --    87 C    1.372   102 S    1.168    71 C    1.166
    87   6 C    3.965 --    86 C    1.372   100 C    1.359    88 C    1.017
    88   6 C    3.982 --    95 C    1.387    89 C    1.349    87 C    1.017
    89   6 C    3.983 --    90 C    1.437    88 C    1.349    98 C    1.012
                            94 C    0.102
    90   6 C    3.988 --    89 C    1.437    91 C    1.394   172 H    0.962
                            95 C    0.101
    91   6 C    3.985 --    94 C    1.427    90 C    1.394    92 C    1.012
    92   6 C    3.996 --    91 C    1.012    93 C    1.002   174 H    0.976
                           173 H    0.971
    93   6 C    3.995 --    92 C    1.002   175 H    0.988   177 H    0.986
                           176 H    0.986
    94   6 C    3.989 --    91 C    1.427    95 C    1.404   178 H    0.964
                            89 C    0.102
    95   6 C    3.984 --    94 C    1.404    88 C    1.387    96 C    1.010
                            90 C    0.101
    96   6 C    3.995 --    95 C    1.010    97 C    1.008   180 H    0.973
                           179 H    0.963
    97   6 C    3.995 --    96 C    1.008   183 H    0.986   181 H    0.985
                           182 H    0.984
    98   6 C    3.996 --    99 C    1.019    89 C    1.012   185 H    0.961
                           184 H    0.954
    99   6 C    3.995 --    98 C    1.019   188 H    0.986   187 H    0.986
                           186 H    0.983
   100   6 C    3.957 --   101 C    1.400    87 C    1.359   189 H    0.948
   101   6 C    3.934 --   100 C    1.400   103 C    1.279   102 S    1.087
   102  16 S    2.587 --    86 C    1.168   101 C    1.087
   103   6 C    3.945 --   104 C    1.505   101 C    1.279   190 H    0.945
   104   6 C    3.957 --   103 C    1.505   114 C    1.143   105 C    1.044
   105   6 C    3.910 --   106 O    1.717   104 C    1.044   107 C    1.025
   106   8 O    2.011 --   105 C    1.717
   107   6 C    3.976 --   108 C    1.431   113 C    1.282   105 C    1.025
   108   6 C    3.980 --   107 C    1.431   109 C    1.380   191 H    0.964
   109   6 C    3.962 --   111 C    1.396   108 C    1.380   110 C    1.037
   110   6 C    3.987 --   109 C    1.037   194 H    0.978   192 H    0.976
                           193 H    0.953
   111   6 C    3.974 --   112 C    1.440   109 C    1.396   195 H    0.966
   112   6 C    3.977 --   111 C    1.440   113 C    1.394   196 H    0.962
   113   6 C    3.978 --   112 C    1.394   107 C    1.282   114 C    1.093
   114   6 C    3.965 --   115 C    1.461   104 C    1.143   113 C    1.093
   115   6 C    3.943 --   114 C    1.461   116 C    1.104   118 C    1.103
   116   6 C    3.940 --   117 N    2.737   115 C    1.104
   117   7 N    2.948 --   116 C    2.737
   118   6 C    3.939 --   119 N    2.745   115 C    1.103
   119   7 N    2.954 --   118 C    2.745
   120   1 H    0.992 --     1 C    0.945
   121   1 H    0.993 --     6 C    0.961
   122   1 H    0.993 --     8 C    0.963
   123   1 H    0.992 --     9 C    0.963
   124   1 H    0.993 --    12 C    0.961
   125   1 H    0.995 --    14 C    0.960
   126   1 H    0.997 --    26 C    0.965
   127   1 H    0.998 --    28 C    0.974
   128   1 H    0.998 --    28 C    0.973
   129   1 H    0.999 --    29 C    0.988
   130   1 H    0.999 --    29 C    0.988
   131   1 H    0.997 --    29 C    0.986
   132   1 H    0.996 --    30 C    0.965
   133   1 H    0.997 --    32 C    0.973
   134   1 H    0.998 --    32 C    0.969
   135   1 H    0.999 --    33 C    0.987
   136   1 H    0.997 --    33 C    0.986
   137   1 H    0.998 --    33 C    0.988
   138   1 H    0.998 --    34 C    0.974
   139   1 H    0.999 --    34 C    0.966
   140   1 H    0.997 --    35 C    0.986
   141   1 H    0.999 --    35 C    0.986
   142   1 H    0.998 --    35 C    0.988
   143   1 H    0.994 --    36 C    0.956
   144   1 H    0.998 --    42 C    0.969
   145   1 H    0.997 --    43 C    0.969
   146   1 H    0.998 --    44 C    0.969
   147   1 H    0.997 --    46 C    0.966
   148   1 H    0.998 --    46 C    0.975
   149   1 H    0.998 --    47 C    0.988
   150   1 H    0.998 --    47 C    0.988
   151   1 H    0.997 --    47 C    0.985
   152   1 H    0.999 --    48 C    0.968
   153   1 H    0.998 --    64 C    0.968
   154   1 H    0.997 --    65 C    0.967
   155   1 H    0.998 --    66 C    0.968
   156   1 H    0.998 --    68 C    0.973
   157   1 H    0.997 --    68 C    0.973
   158   1 H    0.998 --    69 C    0.988
   159   1 H    0.999 --    69 C    0.988
   160   1 H    0.997 --    69 C    0.985
   161   1 H    0.999 --    70 C    0.967
   162   1 H    0.992 --    82 C    0.961
   163   1 H    0.989 --    82 C    0.951
   164   1 H    0.994 --    83 C    0.980
   165   1 H    0.997 --    83 C    0.984
   166   1 H    0.998 --    83 C    0.987
   167   1 H    0.993 --    84 C    0.959
   168   1 H    0.992 --    84 C    0.962
   169   1 H    0.994 --    85 C    0.980
   170   1 H    0.996 --    85 C    0.979
   171   1 H    0.995 --    85 C    0.979
   172   1 H    0.997 --    90 C    0.962
   173   1 H    0.998 --    92 C    0.971
   174   1 H    0.998 --    92 C    0.976
   175   1 H    0.999 --    93 C    0.988
   176   1 H    0.997 --    93 C    0.986
   177   1 H    0.998 --    93 C    0.986
   178   1 H    0.997 --    94 C    0.964
   179   1 H    0.998 --    96 C    0.963
   180   1 H    0.999 --    96 C    0.973
   181   1 H    0.998 --    97 C    0.985
   182   1 H    0.999 --    97 C    0.984
   183   1 H    0.998 --    97 C    0.986
   184   1 H    0.997 --    98 C    0.954
   185   1 H    0.999 --    98 C    0.961
   186   1 H    0.998 --    99 C    0.983
   187   1 H    0.998 --    99 C    0.986
   188   1 H    0.998 --    99 C    0.986
   189   1 H    0.993 --   100 C    0.948
   190   1 H    0.995 --   103 C    0.945
   191   1 H    0.995 --   108 C    0.964
   192   1 H    0.993 --   110 C    0.976
   193   1 H    0.989 --   110 C    0.953
   194   1 H    0.994 --   110 C    0.978
   195   1 H    0.995 --   111 C    0.966
   196   1 H    0.997 --   112 C    0.962
 ---------------------------------------------------------------------------

Topologies differ in bond orders
Writing corrected topology to xtbtopo.mol

molecular dipole:
                 x           y           z       tot (Debye)
 q only:       -2.089       0.200       2.985
   full:       -1.827       0.455       3.077       9.169
molecular quadrupole (traceless):
                xx          xy          yy          xz          yz          zz
 q only:        8.649     -98.370      24.549      27.077      79.123     -33.199
  q+dip:       11.866    -119.658      12.789      10.319      89.470     -24.655
   full:       14.233    -121.653       2.327      20.026      89.009     -16.560


           -------------------------------------------------
          | TOTAL ENERGY             -314.604602949418 Eh   |
          | GRADIENT NORM               0.040853824505 Eh/α |
          | HOMO-LUMO GAP               0.880042148811 eV   |
           -------------------------------------------------

------------------------------------------------------------------------
 * finished run on 2022/02/11 at 04:00:01.618     
------------------------------------------------------------------------
 total:
 * wall-time:     0 d,  0 h,  0 min,  0.711 sec
 *  cpu-time:     0 d,  0 h,  0 min,  5.593 sec
 * ratio c/w:     7.862 speedup
 SCF:
 * wall-time:     0 d,  0 h,  0 min,  0.627 sec
 *  cpu-time:     0 d,  0 h,  0 min,  4.998 sec
 * ratio c/w:     7.975 speedup

