      -----------------------------------------------------------      
     |                   =====================                   |     
     |                           x T B                           |     
     |                   =====================                   |     
     |                         S. Grimme                         |     
     |          Mulliken Center for Theoretical Chemistry        |     
     |                    University of Bonn                     |     
      -----------------------------------------------------------      

   * xtb version 6.4.1 (unknown) compiled by 'oda6@login1.crc.pitt.edu' on 2021-06-25

   xtb is free software: you can redistribute it and/or modify it under
   the terms of the GNU Lesser General Public License as published by
   the Free Software Foundation, either version 3 of the License, or
   (at your option) any later version.
   
   xtb is distributed in the hope that it will be useful,
   but WITHOUT ANY WARRANTY; without even the implied warranty of
   MERCHANTABILITY or FITNESS FOR A PARTICULAR PURPOSE.  See the
   GNU Lesser General Public License for more details.
   
   Cite this work as:
   * C. Bannwarth, E. Caldeweyher, S. Ehlert, A. Hansen, P. Pracht,
     J. Seibert, S. Spicher, S. Grimme, WIREs Comput. Mol. Sci., 2020, 11,
     e01493. DOI: 10.1002/wcms.1493
   
   for GFN2-xTB:
   * C. Bannwarth, S. Ehlert and S. Grimme., J. Chem. Theory Comput., 2019,
     15, 1652-1671. DOI: 10.1021/acs.jctc.8b01176
   for GFN1-xTB:
   * S. Grimme, C. Bannwarth, P. Shushkov, J. Chem. Theory Comput., 2017,
     13, 1989-2009. DOI: 10.1021/acs.jctc.7b00118
   for GFN0-xTB:
   * P. Pracht, E. Caldeweyher, S. Ehlert, S. Grimme, ChemRxiv, 2019, preprint.
     DOI: 10.26434/chemrxiv.8326202.v1
   for GFN-FF:
   * S. Spicher and S. Grimme, Angew. Chem. Int. Ed., 2020, 59, 15665-15673.
     DOI: 10.1002/anie.202004239
   
   for DFT-D4:
   * E. Caldeweyher, C. Bannwarth and S. Grimme, J. Chem. Phys., 2017,
     147, 034112. DOI: 10.1063/1.4993215
   * E. Caldeweyher, S. Ehlert, A. Hansen, H. Neugebauer, S. Spicher,
     C. Bannwarth and S. Grimme, J. Chem. Phys., 2019, 150, 154122.
     DOI: 10.1063/1.5090222
   * E. Caldeweyher, J.-M. Mewes, S. Ehlert and S. Grimme, Phys. Chem. Chem. Phys.
     2020, 22, 8499-8512. DOI: 10.1039/D0CP00502A
   
   for sTDA-xTB:
   * S. Grimme and C. Bannwarth, J. Chem. Phys., 2016, 145, 054103.
     DOI: 10.1063/1.4959605
   
   in the mass-spec context:
   * V. Asgeirsson, C. Bauer and S. Grimme, Chem. Sci., 2017, 8, 4879.
     DOI: 10.1039/c7sc00601b
   * J. Koopman and S. Grimme, ACS Omega 2019, 4, 12, 15120-15133.
     DOI: 10.1021/acsomega.9b02011
   
   for metadynamics refer to:
   * S. Grimme, J. Chem. Theory Comput., 2019, 155, 2847-2862
     DOI: 10.1021/acs.jctc.9b00143
   
   for SPH calculations refer to:
   * S. Spicher and S. Grimme, J. Chem. Theory Comput., 2021, 17, 1701-1714
     DOI: 10.1021/acs.jctc.0c01306
   
   with help from (in alphabetical order)
   P. Atkinson, C. Bannwarth, F. Bohle, G. Brandenburg, E. Caldeweyher
   M. Checinski, S. Dohm, S. Ehlert, S. Ehrlich, I. Gerasimov, J. Koopman
   C. Lavigne, S. Lehtola, F. März, M. Müller, F. Musil, H. Neugebauer
   J. Pisarek, C. Plett, P. Pracht, J. Seibert, P. Shushkov, S. Spicher
   M. Stahn, M. Steiner, T. Strunk, J. Stückrath, T. Rose, and J. Unsleber
   
 * started run on 2022/02/04 at 12:00:23.909     

           -------------------------------------------------
          |                Calculation Setup                |
           -------------------------------------------------

          program call               : /ihome/ghutchison/oda6/xtb/xtb-641/bin/xtb ../../GFN2_output/9_41_113_111_52.mol --sp --alpb water
          hostname                   : smp-n29
          coordinate file            : ../../GFN2_output/9_41_113_111_52.mol
          omp threads                :                     8
          number of atoms            :                   139
          number of electrons        :                   456
          charge                     :                     0
          spin                       :                   0.0
          first test random number   :      0.14532927207322

   ID    Z sym.   atoms
    1    6 C      1-3, 5-10, 12-18, 20, 22, 23, 25, 27, 28, 30, 32-37, 39-45,
                  48, 49, 51-53, 55, 56, 58-61, 63-72, 74, 75, 77, 78, 80-82,
                  84, 87-93
    2    8 O      4, 94
    3    9 F      11, 24, 26, 29, 31
    4    7 N      19, 21, 38, 46, 47, 50, 54, 57, 62, 73, 76, 83, 85, 86
    5   16 S      79
    6    1 H      95-139

           -------------------------------------------------
          |                 G F N 2 - x T B                 |
           -------------------------------------------------

        Reference                      10.1021/acs.jctc.8b01176
      * Hamiltonian:
        H0-scaling (s, p, d)           1.850000    2.230000    2.230000
        zeta-weighting                 0.500000
      * Dispersion:
        s8                             2.700000
        a1                             0.520000
        a2                             5.000000
        s9                             5.000000
      * Repulsion:
        kExp                           1.500000    1.000000
        rExp                           1.000000
      * Coulomb:
        alpha                          2.000000
        third order                    shell-resolved
        anisotropic                    true
        a3                             3.000000
        a5                             4.000000
        cn-shift                       1.200000
        cn-exp                         4.000000
        max-rad                        5.000000

      * Solvation model:               ALPB
        Solvent                        water
        Parameter file                 internal GFN2-xTB/ALPB
        Dielectric constant                8.0200E+01
        Reference state                gsolv [1 M gas/solution]
        Free energy shift                  1.0808E-03 Eh       6.7819E-01 kcal/mol
        Temperature                        2.9815E+02 K
        Density                            1.0000E+00 kg/L
        Solvent mass                       1.8000E+01 g/mol
        Interaction kernel             P16
        Born radius scaling (c1)           1.4744E+00
        Born radii integrator          GBOBC
        Born offset                        0.0000E+00 a0       0.0000E+00 AA
        H-bond correction              true
        Ion screening                  false
        Surface tension                    1.0000E-05 Eh       1.5569E+01 dyn/cm
        Grid points                               230 per atom

          ...................................................
          :                      SETUP                      :
          :.................................................:
          :  # basis functions                 427          :
          :  # atomic orbitals                 426          :
          :  # shells                          234          :
          :  # electrons                       456          :
          :  max. iterations                   250          :
          :  Hamiltonian                  GFN2-xTB          :
          :  restarted?                      false          :
          :  GBSA solvation                   true          :
          :  PC potential                    false          :
          :  electronic temp.          300.0000000     K    :
          :  accuracy                    1.0000000          :
          :  -> integral cutoff          0.2500000E+02      :
          :  -> integral neglect         0.1000000E-07      :
          :  -> SCF convergence          0.1000000E-05 Eh   :
          :  -> wf. convergence          0.1000000E-03 e    :
          :  Broyden damping             0.4000000          :
          ...................................................

 iter      E             dE          RMSdq      gap      omega  full diag
   1   -256.5944946 -0.256594E+03  0.449E+00    0.10       0.0  T
   2   -256.9362799 -0.341785E+00  0.284E+00    0.24       1.0  T
   3   -256.9338737  0.240614E-02  0.148E+00    0.44       1.0  T
   4   -257.0233439 -0.894702E-01  0.491E-01    0.19       1.0  T
   5   -257.0472142 -0.238703E-01  0.158E-01    0.33       1.0  T
   6   -257.0475127 -0.298525E-03  0.108E-01    0.22       1.0  T
   7   -257.0484109 -0.898147E-03  0.651E-02    0.32       1.0  T
   8   -257.0490606 -0.649757E-03  0.182E-02    0.26       1.0  T
   9   -257.0490731 -0.124300E-04  0.809E-03    0.27       1.0  T
  10   -257.0490759 -0.285321E-05  0.364E-03    0.26       2.3  T
  11   -257.0490765 -0.607815E-06  0.178E-03    0.26       4.8  T
  12   -257.0490766 -0.764525E-07  0.992E-04    0.26       8.5  T
  13   -257.0490767 -0.332478E-07  0.508E-04    0.26      16.7  T

   *** convergence criteria satisfied after 13 iterations ***

         #    Occupation            Energy/Eh            Energy/eV
      -------------------------------------------------------------
         1        2.0000           -0.8618332             -23.4517
       ...           ...                  ...                  ...
       222        2.0000           -0.4007736             -10.9056
       223        2.0000           -0.3937998             -10.7158
       224        2.0000           -0.3841809             -10.4541
       225        2.0000           -0.3701656             -10.0727
       226        2.0000           -0.3679874             -10.0134
       227        1.9983           -0.3538009              -9.6274
       228        1.9888           -0.3520221              -9.5790 (HOMO)
       229        0.0129           -0.3423126              -9.3148 (LUMO)
       230                         -0.3299829              -8.9793
       231                         -0.3239516              -8.8152
       232                         -0.2936964              -7.9919
       233                         -0.2912020              -7.9240
       ...                                ...                  ...
       426                          1.1519934              31.3473
      -------------------------------------------------------------
                  HL-Gap            0.0097095 Eh            0.2642 eV
             Fermi-level           -0.3470987 Eh           -9.4450 eV

 SCC (total)                   0 d,  0 h,  0 min,  0.332 sec
 SCC setup                      ...        0 min,  0.004 sec (  1.180%)
 Dispersion                     ...        0 min,  0.005 sec (  1.626%)
 classical contributions        ...        0 min,  0.000 sec (  0.059%)
 integral evaluation            ...        0 min,  0.018 sec (  5.553%)
 iterations                     ...        0 min,  0.252 sec ( 75.834%)
 molecular gradient             ...        0 min,  0.051 sec ( 15.226%)
 printout                       ...        0 min,  0.002 sec (  0.494%)

         :::::::::::::::::::::::::::::::::::::::::::::::::::::
         ::                     SUMMARY                     ::
         :::::::::::::::::::::::::::::::::::::::::::::::::::::
         :: total energy            -253.138363034520 Eh    ::
         :: total w/o Gsasa/hb      -253.109919701395 Eh    ::
         :: gradient norm              0.043691759693 Eh/a0 ::
         :: HOMO-LUMO gap              0.264208418913 eV    ::
         ::.................................................::
         :: SCC energy              -257.049076650202 Eh    ::
         :: -> isotropic ES            0.231540177836 Eh    ::
         :: -> anisotropic ES          0.009252845076 Eh    ::
         :: -> anisotropic XC          0.142264074365 Eh    ::
         :: -> dispersion             -0.204182221786 Eh    ::
         :: -> Gsolv                  -0.074145767023 Eh    ::
         ::    -> Gelec               -0.045702433898 Eh    ::
         ::    -> Gsasa               -0.020963859011 Eh    ::
         ::    -> Ghb                 -0.008560233812 Eh    ::
         ::    -> Gshift               0.001080759698 Eh    ::
         :: repulsion energy           3.911927360360 Eh    ::
         :: add. restraining           0.000000000000 Eh    ::
         :: total charge               0.000000000000 e     ::
         :::::::::::::::::::::::::::::::::::::::::::::::::::::

           -------------------------------------------------
          |                Property Printout                |
           -------------------------------------------------

    * Orbital Energies and Occupations

         #    Occupation            Energy/Eh            Energy/eV
      -------------------------------------------------------------
         1        2.0000           -0.8618332             -23.4517
       ...           ...                  ...                  ...
       216        2.0000           -0.4149921             -11.2925
       217        2.0000           -0.4128212             -11.2334
       218        2.0000           -0.4099635             -11.1557
       219        2.0000           -0.4084943             -11.1157
       220        2.0000           -0.4053180             -11.0293
       221        2.0000           -0.4030529             -10.9676
       222        2.0000           -0.4007736             -10.9056
       223        2.0000           -0.3937998             -10.7158
       224        2.0000           -0.3841809             -10.4541
       225        2.0000           -0.3701656             -10.0727
       226        2.0000           -0.3679874             -10.0134
       227        1.9983           -0.3538009              -9.6274
       228        1.9888           -0.3520221              -9.5790 (HOMO)
       229        0.0129           -0.3423126              -9.3148 (LUMO)
       230                         -0.3299829              -8.9793
       231                         -0.3239516              -8.8152
       232                         -0.2936964              -7.9919
       233                         -0.2912020              -7.9240
       234                         -0.2753968              -7.4939
       235                         -0.2732264              -7.4349
       236                         -0.2729578              -7.4276
       237                         -0.2656066              -7.2275
       238                         -0.2630966              -7.1592
       239                         -0.2545831              -6.9276
       ...                                ...                  ...
       426                          1.1519934              31.3473
      -------------------------------------------------------------
                  HL-Gap            0.0097095 Eh            0.2642 eV
             Fermi-level           -0.3470987 Eh           -9.4450 eV

     #   Z          covCN         q      C6AA      α(0)
     1   6 C        2.901     0.000    28.022     8.680
     2   6 C        3.004    -0.019    28.465     8.752
     3   6 C        2.859     0.239    23.012     7.863
     4   8 O        0.856    -0.418    22.040     6.294
     5   6 C        3.031    -0.020    28.470     8.752
     6   6 C        2.913    -0.015    28.388     8.737
     7   6 C        2.987     0.022    27.517     8.605
     8   6 C        2.922    -0.030    28.738     8.791
     9   6 C        2.913    -0.045    29.115     8.848
    10   6 C        2.782     0.183    24.071     8.036
    11   9 F        0.787    -0.247    11.737     4.047
    12   6 C        2.917    -0.054    29.352     8.884
    13   6 C        2.990     0.028    27.377     8.583
    14   6 C        2.915    -0.026    28.654     8.778
    15   6 C        3.022     0.010    27.777     8.645
    16   6 C        3.010     0.038    27.137     8.545
    17   6 C        2.947     0.009    27.821     8.651
    18   6 C        1.937     0.132    27.863     8.524
    19   7 N        0.911    -0.275    27.101     7.529
    20   6 C        1.937     0.136    27.769     8.510
    21   7 N        0.911    -0.270    26.972     7.511
    22   6 C        2.971    -0.010    28.257     8.719
    23   6 C        2.783     0.163    24.470     8.103
    24   9 F        0.787    -0.205    11.284     3.968
    25   6 C        2.785     0.148    24.781     8.154
    26   9 F        0.787    -0.203    11.265     3.965
    27   6 C        2.973    -0.009    28.241     8.717
    28   6 C        2.783     0.148    24.769     8.152
    29   9 F        0.787    -0.204    11.278     3.967
    30   6 C        2.784     0.150    24.724     8.145
    31   9 F        0.787    -0.207    11.313     3.973
    32   6 C        2.978     0.015    27.683     8.631
    33   6 C        2.922    -0.045    29.118     8.849
    34   6 C        2.909    -0.039    28.959     8.824
    35   6 C        3.065    -0.019    28.420     8.742
    36   6 C        3.201     0.009    27.238     8.504
    37   6 C        3.206     0.023    26.888     8.445
    38   7 N        2.790    -0.029    21.809     6.936
    39   6 C        3.134     0.045    26.785     8.472
    40   6 C        2.913    -0.047    29.169     8.856
    41   6 C        3.738    -0.012    20.864     6.518
    42   6 C        3.752    -0.120    22.858     6.818
    43   6 C        3.068    -0.048    29.121     8.849
    44   6 C        3.143     0.046    26.717     8.457
    45   6 C        3.144     0.047    26.690     8.453
    46   7 N        1.985    -0.278    28.024     7.851
    47   7 N        3.269     0.201    17.918     6.287
    48   6 C        3.744    -0.030    21.185     6.566
    49   6 C        3.753    -0.124    22.947     6.831
    50   7 N        1.985    -0.280    28.068     7.857
    51   6 C        3.070    -0.050    29.177     8.857
    52   6 C        3.073     0.026    27.340     8.573
    53   6 C        3.076     0.028    27.289     8.565
    54   7 N        2.789    -0.045    22.101     6.982
    55   6 C        3.745    -0.010    20.822     6.509
    56   6 C        3.752    -0.118    22.813     6.811
    57   7 N        2.795    -0.033    21.878     6.947
    58   6 C        3.741    -0.003    20.712     6.493
    59   6 C        3.752    -0.128    23.018     6.842
    60   6 C        3.195     0.008    27.329     8.524
    61   6 C        3.208     0.023    26.889     8.444
    62   7 N        2.790    -0.030    21.818     6.937
    63   6 C        3.738    -0.012    20.865     6.518
    64   6 C        3.752    -0.119    22.843     6.816
    65   6 C        3.130     0.044    26.816     8.478
    66   6 C        3.065    -0.018    28.402     8.739
    67   6 C        2.908    -0.041    29.017     8.833
    68   6 C        2.920    -0.050    29.250     8.869
    69   6 C        2.979    -0.005    28.142     8.702
    70   6 C        2.917    -0.045    29.123     8.850
    71   6 C        2.953     0.086    26.080     8.376
    72   6 C        2.895     0.043    27.038     8.525
    73   7 N        1.852    -0.225    26.761     7.667
    74   6 C        2.947     0.080    26.209     8.397
    75   6 C        2.892     0.059    26.686     8.470
    76   7 N        1.851    -0.217    26.569     7.640
    77   6 C        2.954    -0.028    28.693     8.786
    78   6 C        2.955    -0.006    28.172     8.706
    79  16 S        2.234    -0.020   141.883    20.048
    80   6 C        2.930     0.116    25.450     8.273
    81   6 C        2.990    -0.027    28.676     8.784
    82   6 C        1.929     0.128    27.950     8.538
    83   7 N        0.911    -0.278    27.184     7.541
    84   6 C        1.920     0.127    27.977     8.542
    85   7 N        0.911    -0.287    27.391     7.569
    86   7 N        2.856    -0.058    22.355     7.022
    87   6 C        2.926     0.064    26.562     8.452
    88   6 C        2.921    -0.037    28.924     8.819
    89   6 C        2.922    -0.027    28.672     8.781
    90   6 C        2.920    -0.027    28.678     8.782
    91   6 C        2.923    -0.027    28.673     8.781
    92   6 C        2.921    -0.033    28.817     8.803
    93   6 C        2.875     0.281    22.256     7.734
    94   8 O        0.858    -0.446    22.623     6.377
    95   1 H        0.925     0.086     1.920     2.167
    96   1 H        0.926     0.081     1.965     2.192
    97   1 H        0.926     0.087     1.912     2.163
    98   1 H        0.926     0.091     1.871     2.139
    99   1 H        0.926     0.085     1.930     2.173
   100   1 H        0.926     0.068     2.104     2.269
   101   1 H        0.926     0.042     2.424     2.435
   102   1 H        0.926     0.050     2.318     2.381
   103   1 H        0.926     0.052     2.291     2.367
   104   1 H        0.924     0.085     1.933     2.174
   105   1 H        0.924     0.060     2.205     2.322
   106   1 H        0.925     0.060     2.204     2.321
   107   1 H        0.925     0.049     2.335     2.390
   108   1 H        0.925     0.047     2.361     2.403
   109   1 H        0.924     0.087     1.906     2.159
   110   1 H        0.924     0.086     1.923     2.168
   111   1 H        0.925     0.056     2.247     2.344
   112   1 H        0.925     0.060     2.195     2.317
   113   1 H        0.925     0.070     2.087     2.259
   114   1 H        0.924     0.068     2.104     2.268
   115   1 H        0.925     0.077     2.013     2.219
   116   1 H        0.925     0.044     2.401     2.423
   117   1 H        0.925     0.049     2.330     2.387
   118   1 H        0.925     0.058     2.225     2.333
   119   1 H        0.924     0.062     2.178     2.308
   120   1 H        0.924     0.067     2.124     2.279
   121   1 H        0.925     0.055     2.255     2.348
   122   1 H        0.925     0.059     2.213     2.326
   123   1 H        0.925     0.060     2.197     2.318
   124   1 H        0.924     0.082     1.962     2.191
   125   1 H        0.924     0.061     2.189     2.314
   126   1 H        0.925     0.059     2.210     2.325
   127   1 H        0.925     0.048     2.343     2.394
   128   1 H        0.925     0.048     2.346     2.395
   129   1 H        0.926     0.050     2.319     2.382
   130   1 H        0.926     0.037     2.489     2.467
   131   1 H        0.926     0.061     2.181     2.310
   132   1 H        0.926     0.063     2.166     2.301
   133   1 H        0.926     0.054     2.274     2.358
   134   1 H        0.925     0.107     1.720     2.051
   135   1 H        0.926     0.045     2.379     2.412
   136   1 H        0.926     0.066     2.128     2.281
   137   1 H        0.926     0.070     2.082     2.256
   138   1 H        0.926     0.069     2.095     2.263
   139   1 H        0.926     0.054     2.276     2.359

 Mol. C6AA /au·bohr⁶  :     296426.441087
 Mol. C8AA /au·bohr⁸  :    7540360.406512
 Mol. α(0) /au        :        857.283284


Wiberg/Mayer (AO) data.
largest (>0.10) Wiberg bond orders for each atom

 ---------------------------------------------------------------------------
     #   Z sym  total        # sym  WBO       # sym  WBO       # sym  WBO
 ---------------------------------------------------------------------------
     1   6 C    3.903 --     2 C    1.635    22 C    1.118    95 H    0.941
     2   6 C    3.958 --     1 C    1.635    16 C    1.119     3 C    1.006
     3   6 C    3.906 --     4 O    1.748     5 C    1.038     2 C    1.006
     4   8 O    2.017 --     3 C    1.748
     5   6 C    3.977 --     6 C    1.512    15 C    1.193     3 C    1.038
     6   6 C    3.973 --     5 C    1.512     7 C    1.275    96 H    0.960
     7   6 C    3.977 --     8 C    1.286     6 C    1.275    13 C    1.236
     8   6 C    3.974 --     9 C    1.545     7 C    1.286    97 H    0.962
                            12 C    0.110
     9   6 C    3.967 --     8 C    1.545    10 C    1.292    98 H    0.962
    10   6 C    3.863 --    12 C    1.494     9 C    1.292    11 F    0.945
    11   9 F    1.067 --    10 C    0.945
    12   6 C    3.972 --    10 C    1.494    13 C    1.289    99 H    0.960
                             8 C    0.110
    13   6 C    3.983 --    12 C    1.289    14 C    1.276     7 C    1.236
    14   6 C    3.962 --    15 C    1.495    13 C    1.276   100 H    0.957
    15   6 C    3.986 --    14 C    1.495     5 C    1.193    16 C    1.098
    16   6 C    3.951 --    17 C    1.479     2 C    1.119    15 C    1.098
    17   6 C    3.936 --    16 C    1.479    18 C    1.100    20 C    1.099
    18   6 C    3.940 --    19 N    2.752    17 C    1.100
    19   7 N    2.955 --    18 C    2.752
    20   6 C    3.941 --    21 N    2.756    17 C    1.099
    21   7 N    2.961 --    20 C    2.756
    22   6 C    3.963 --    30 C    1.307    23 C    1.300     1 C    1.118
    23   6 C    3.873 --    25 C    1.389    22 C    1.300    24 F    0.975
    24   9 F    1.109 --    23 C    0.975
    25   6 C    3.879 --    23 C    1.389    27 C    1.308    26 F    0.972
    26   9 F    1.106 --    25 C    0.972
    27   6 C    3.948 --    28 C    1.312    25 C    1.308    32 C    1.080
    28   6 C    3.878 --    30 C    1.385    27 C    1.312    29 F    0.972
    29   9 F    1.105 --    28 C    0.972
    30   6 C    3.867 --    28 C    1.385    22 C    1.307    31 F    0.971
    31   9 F    1.103 --    30 C    0.971
    32   6 C    3.939 --    40 C    1.383    33 C    1.307    27 C    1.080
    33   6 C    3.981 --    34 C    1.514    32 C    1.307   101 H    0.969
    34   6 C    3.966 --    33 C    1.514    35 C    1.320   102 H    0.962
    35   6 C    3.973 --    34 C    1.320    36 C    1.235    39 C    1.190
    36   6 C    3.895 --    37 C    1.281    35 C    1.235    54 N    1.149
    37   6 C    3.924 --    36 C    1.281    43 C    1.246    38 N    1.164
    38   7 N    3.576 --    39 C    1.166    37 C    1.164    41 C    0.984
    39   6 C    3.943 --    40 C    1.390    35 C    1.190    38 N    1.166
    40   6 C    3.971 --    39 C    1.390    32 C    1.383   103 H    0.963
    41   6 C    3.961 --    42 C    1.005    38 N    0.984   105 H    0.968
                           104 H    0.963
    42   6 C    3.989 --    41 C    1.005   107 H    0.987   108 H    0.986
                           106 H    0.983
    43   6 C    3.946 --    53 C    1.274    37 C    1.246    44 C    1.179
    44   6 C    3.968 --    50 N    1.368    45 C    1.223    43 C    1.179
    45   6 C    3.969 --    46 N    1.368    44 C    1.223    51 C    1.181
    46   7 N    2.970 --    45 C    1.368    47 N    1.262    50 N    0.199
    47   7 N    3.719 --    50 N    1.264    46 N    1.262    48 C    0.981
    48   6 C    3.955 --    49 C    1.000    47 N    0.981   109 H    0.967
                           110 H    0.963
    49   6 C    3.983 --    48 C    1.000   111 H    0.986   112 H    0.985
                           113 H    0.981
    50   7 N    2.970 --    44 C    1.368    47 N    1.264    46 N    0.199
    51   6 C    3.945 --    52 C    1.262    61 C    1.252    45 C    1.181
    52   6 C    3.915 --    51 C    1.262    53 C    1.241    57 N    1.170
    53   6 C    3.915 --    43 C    1.274    52 C    1.241    54 N    1.154
    54   7 N    3.524 --    53 C    1.154    36 C    1.149    55 C    0.976
    55   6 C    3.958 --    56 C    1.006    54 N    0.976   114 H    0.966
                           115 H    0.954
    56   6 C    3.990 --    55 C    1.006   116 H    0.987   117 H    0.984
                           118 H    0.982
    57   7 N    3.553 --    52 C    1.170    60 C    1.152    58 C    0.981
    58   6 C    3.962 --    59 C    1.007    57 N    0.981   119 H    0.965
                           120 H    0.963
    59   6 C    3.986 --    58 C    1.007   122 H    0.983   121 H    0.980
                           123 H    0.979
    60   6 C    3.896 --    61 C    1.275    66 C    1.238    57 N    1.152
    61   6 C    3.924 --    60 C    1.275    51 C    1.252    62 N    1.168
    62   7 N    3.577 --    61 C    1.168    65 C    1.162    63 C    0.985
    63   6 C    3.961 --    64 C    1.005    62 N    0.985   125 H    0.967
                           124 H    0.963
    64   6 C    3.989 --    63 C    1.005   128 H    0.987   127 H    0.986
                           126 H    0.983
    65   6 C    3.943 --    70 C    1.402    66 C    1.187    62 N    1.162
    66   6 C    3.967 --    67 C    1.313    60 C    1.238    65 C    1.187
    67   6 C    3.967 --    68 C    1.525    66 C    1.313   129 H    0.963
    68   6 C    3.980 --    67 C    1.525    69 C    1.297   130 H    0.966
    69   6 C    3.945 --    70 C    1.364    68 C    1.297    71 C    1.117
    70   6 C    3.968 --    65 C    1.402    69 C    1.364   131 H    0.960
    71   6 C    3.941 --    76 N    1.350    72 C    1.266    69 C    1.117
    72   6 C    3.965 --    73 N    1.531    71 C    1.266   132 H    0.954
    73   7 N    3.077 --    72 C    1.531    74 C    1.325
    74   6 C    3.958 --    73 N    1.325    75 C    1.279    77 C    1.150
    75   6 C    3.963 --    76 N    1.518    74 C    1.279   133 H    0.959
    76   7 N    3.113 --    75 C    1.518    71 C    1.350
    77   6 C    3.935 --    78 C    1.613    74 C    1.150   134 H    0.947
    78   6 C    3.921 --    77 C    1.613    93 C    1.053    79 S    1.050
    79  16 S    2.503 --    80 C    1.117    78 C    1.050
    80   6 C    3.948 --    81 C    1.417    86 N    1.191    79 S    1.117
    81   6 C    3.939 --    80 C    1.417    84 C    1.113    82 C    1.107
    82   6 C    3.946 --    83 N    2.757    81 C    1.107
    83   7 N    2.973 --    82 C    2.757
    84   6 C    3.947 --    85 N    2.743    81 C    1.113
    85   7 N    2.975 --    84 C    2.743
    86   7 N    3.593 --    80 C    1.191    93 C    1.098    87 C    0.959
                            94 O    0.131
    87   6 C    3.944 --    92 C    1.404    88 C    1.396    86 N    0.959
                            90 C    0.105
    88   6 C    3.988 --    89 C    1.444    87 C    1.396   135 H    0.968
                            91 C    0.112
    89   6 C    3.988 --    88 C    1.444    90 C    1.437   136 H    0.967
                            92 C    0.110
    90   6 C    3.986 --    91 C    1.441    89 C    1.437   137 H    0.967
                            87 C    0.105
    91   6 C    3.987 --    90 C    1.441    92 C    1.438   138 H    0.967
                            88 C    0.112
    92   6 C    3.988 --    91 C    1.438    87 C    1.404   139 H    0.968
                            89 C    0.110
    93   6 C    3.932 --    94 O    1.660    86 N    1.098    78 C    1.053
    94   8 O    2.001 --    93 C    1.660    86 N    0.131
    95   1 H    0.990 --     1 C    0.941
    96   1 H    0.992 --     6 C    0.960
    97   1 H    0.992 --     8 C    0.962
    98   1 H    0.991 --     9 C    0.962
    99   1 H    0.992 --    12 C    0.960
   100   1 H    0.994 --    14 C    0.957
   101   1 H    0.998 --    33 C    0.969
   102   1 H    0.996 --    34 C    0.962
   103   1 H    0.997 --    40 C    0.963
   104   1 H    0.992 --    41 C    0.963
   105   1 H    0.996 --    41 C    0.968
   106   1 H    0.995 --    42 C    0.983
   107   1 H    0.998 --    42 C    0.987
   108   1 H    0.998 --    42 C    0.986
   109   1 H    0.991 --    48 C    0.967
   110   1 H    0.991 --    48 C    0.963
   111   1 H    0.997 --    49 C    0.986
   112   1 H    0.996 --    49 C    0.985
   113   1 H    0.995 --    49 C    0.981
   114   1 H    0.995 --    55 C    0.966
   115   1 H    0.993 --    55 C    0.954
   116   1 H    0.998 --    56 C    0.987
   117   1 H    0.998 --    56 C    0.984
   118   1 H    0.996 --    56 C    0.982
   119   1 H    0.994 --    58 C    0.965
   120   1 H    0.995 --    58 C    0.963
   121   1 H    0.997 --    59 C    0.980
   122   1 H    0.996 --    59 C    0.983
   123   1 H    0.996 --    59 C    0.979
   124   1 H    0.993 --    63 C    0.963
   125   1 H    0.995 --    63 C    0.967
   126   1 H    0.996 --    64 C    0.983
   127   1 H    0.998 --    64 C    0.986
   128   1 H    0.998 --    64 C    0.987
   129   1 H    0.997 --    67 C    0.963
   130   1 H    0.998 --    68 C    0.966
   131   1 H    0.996 --    70 C    0.960
   132   1 H    0.994 --    72 C    0.954
   133   1 H    0.996 --    75 C    0.959
   134   1 H    0.986 --    77 C    0.947
   135   1 H    0.998 --    88 C    0.968
   136   1 H    0.995 --    89 C    0.967
   137   1 H    0.995 --    90 C    0.967
   138   1 H    0.994 --    91 C    0.967
   139   1 H    0.997 --    92 C    0.968
 ---------------------------------------------------------------------------

Topologies differ in bond orders
Writing corrected topology to xtbtopo.mol

molecular dipole:
                 x           y           z       tot (Debye)
 q only:       -1.802      -0.129       0.256
   full:       -1.593      -0.550       0.104       4.293
molecular quadrupole (traceless):
                xx          xy          yy          xz          yz          zz
 q only:     -173.976     147.270     157.442    -302.537     126.097      16.534
  q+dip:     -170.054     155.779     158.677    -319.435     137.880      11.377
   full:     -176.902     153.407     162.665    -327.265     139.004      14.237


           -------------------------------------------------
          | TOTAL ENERGY             -253.138363034520 Eh   |
          | GRADIENT NORM               0.043691759693 Eh/α |
          | HOMO-LUMO GAP               0.264208418913 eV   |
           -------------------------------------------------

------------------------------------------------------------------------
 * finished run on 2022/02/04 at 12:00:24.312     
------------------------------------------------------------------------
 total:
 * wall-time:     0 d,  0 h,  0 min,  0.403 sec
 *  cpu-time:     0 d,  0 h,  0 min,  3.136 sec
 * ratio c/w:     7.790 speedup
 SCF:
 * wall-time:     0 d,  0 h,  0 min,  0.334 sec
 *  cpu-time:     0 d,  0 h,  0 min,  2.667 sec
 * ratio c/w:     7.976 speedup

