      -----------------------------------------------------------      
     |                   =====================                   |     
     |                           x T B                           |     
     |                   =====================                   |     
     |                         S. Grimme                         |     
     |          Mulliken Center for Theoretical Chemistry        |     
     |                    University of Bonn                     |     
      -----------------------------------------------------------      

   * xtb version 6.4.1 (unknown) compiled by 'oda6@login1.crc.pitt.edu' on 2021-06-25

   xtb is free software: you can redistribute it and/or modify it under
   the terms of the GNU Lesser General Public License as published by
   the Free Software Foundation, either version 3 of the License, or
   (at your option) any later version.
   
   xtb is distributed in the hope that it will be useful,
   but WITHOUT ANY WARRANTY; without even the implied warranty of
   MERCHANTABILITY or FITNESS FOR A PARTICULAR PURPOSE.  See the
   GNU Lesser General Public License for more details.
   
   Cite this work as:
   * C. Bannwarth, E. Caldeweyher, S. Ehlert, A. Hansen, P. Pracht,
     J. Seibert, S. Spicher, S. Grimme, WIREs Comput. Mol. Sci., 2020, 11,
     e01493. DOI: 10.1002/wcms.1493
   
   for GFN2-xTB:
   * C. Bannwarth, S. Ehlert and S. Grimme., J. Chem. Theory Comput., 2019,
     15, 1652-1671. DOI: 10.1021/acs.jctc.8b01176
   for GFN1-xTB:
   * S. Grimme, C. Bannwarth, P. Shushkov, J. Chem. Theory Comput., 2017,
     13, 1989-2009. DOI: 10.1021/acs.jctc.7b00118
   for GFN0-xTB:
   * P. Pracht, E. Caldeweyher, S. Ehlert, S. Grimme, ChemRxiv, 2019, preprint.
     DOI: 10.26434/chemrxiv.8326202.v1
   for GFN-FF:
   * S. Spicher and S. Grimme, Angew. Chem. Int. Ed., 2020, 59, 15665-15673.
     DOI: 10.1002/anie.202004239
   
   for DFT-D4:
   * E. Caldeweyher, C. Bannwarth and S. Grimme, J. Chem. Phys., 2017,
     147, 034112. DOI: 10.1063/1.4993215
   * E. Caldeweyher, S. Ehlert, A. Hansen, H. Neugebauer, S. Spicher,
     C. Bannwarth and S. Grimme, J. Chem. Phys., 2019, 150, 154122.
     DOI: 10.1063/1.5090222
   * E. Caldeweyher, J.-M. Mewes, S. Ehlert and S. Grimme, Phys. Chem. Chem. Phys.
     2020, 22, 8499-8512. DOI: 10.1039/D0CP00502A
   
   for sTDA-xTB:
   * S. Grimme and C. Bannwarth, J. Chem. Phys., 2016, 145, 054103.
     DOI: 10.1063/1.4959605
   
   in the mass-spec context:
   * V. Asgeirsson, C. Bauer and S. Grimme, Chem. Sci., 2017, 8, 4879.
     DOI: 10.1039/c7sc00601b
   * J. Koopman and S. Grimme, ACS Omega 2019, 4, 12, 15120-15133.
     DOI: 10.1021/acsomega.9b02011
   
   for metadynamics refer to:
   * S. Grimme, J. Chem. Theory Comput., 2019, 155, 2847-2862
     DOI: 10.1021/acs.jctc.9b00143
   
   for SPH calculations refer to:
   * S. Spicher and S. Grimme, J. Chem. Theory Comput., 2021, 17, 1701-1714
     DOI: 10.1021/acs.jctc.0c01306
   
   with help from (in alphabetical order)
   P. Atkinson, C. Bannwarth, F. Bohle, G. Brandenburg, E. Caldeweyher
   M. Checinski, S. Dohm, S. Ehlert, S. Ehrlich, I. Gerasimov, J. Koopman
   C. Lavigne, S. Lehtola, F. März, M. Müller, F. Musil, H. Neugebauer
   J. Pisarek, C. Plett, P. Pracht, J. Seibert, P. Shushkov, S. Spicher
   M. Stahn, M. Steiner, T. Strunk, J. Stückrath, T. Rose, and J. Unsleber
   
 * started run on 2022/02/04 at 23:23:58.147     

           -------------------------------------------------
          |                Calculation Setup                |
           -------------------------------------------------

          program call               : /ihome/ghutchison/oda6/xtb/xtb-641/bin/xtb ../../GFN2_output/9_68_86_160_46.mol --sp --alpb water
          hostname                   : smp-n29
          coordinate file            : ../../GFN2_output/9_68_86_160_46.mol
          omp threads                :                     8
          number of atoms            :                   202
          number of electrons        :                   616
          charge                     :                     0
          spin                       :                   0.0
          first test random number   :      0.35285284742363

   ID    Z sym.   atoms
    1    6 C      1-3, 5-10, 12-18, 20, 22-28, 30, 32-37, 39-42, 44, 46-53,
                  55, 57, 58, 60-70, 72-75, 79, 80, 82-92, 94, 95, 97, 98,
                  100, 101, 103-111, 113-122, 124
    2    8 O      4, 112
    3    9 F      11
    4    7 N      19, 21, 76, 78, 96, 99, 123, 125
    5   17 Cl     29, 54
    6   14 Si     31, 45
    7   16 S      38, 43, 56, 59, 71, 77, 81, 93, 102
    8    1 H      126-202

           -------------------------------------------------
          |                 G F N 2 - x T B                 |
           -------------------------------------------------

        Reference                      10.1021/acs.jctc.8b01176
      * Hamiltonian:
        H0-scaling (s, p, d)           1.850000    2.230000    2.230000
        zeta-weighting                 0.500000
      * Dispersion:
        s8                             2.700000
        a1                             0.520000
        a2                             5.000000
        s9                             5.000000
      * Repulsion:
        kExp                           1.500000    1.000000
        rExp                           1.000000
      * Coulomb:
        alpha                          2.000000
        third order                    shell-resolved
        anisotropic                    true
        a3                             3.000000
        a5                             4.000000
        cn-shift                       1.200000
        cn-exp                         4.000000
        max-rad                        5.000000

      * Solvation model:               ALPB
        Solvent                        water
        Parameter file                 internal GFN2-xTB/ALPB
        Dielectric constant                8.0200E+01
        Reference state                gsolv [1 M gas/solution]
        Free energy shift                  1.0808E-03 Eh       6.7819E-01 kcal/mol
        Temperature                        2.9815E+02 K
        Density                            1.0000E+00 kg/L
        Solvent mass                       1.8000E+01 g/mol
        Interaction kernel             P16
        Born radius scaling (c1)           1.4744E+00
        Born radii integrator          GBOBC
        Born offset                        0.0000E+00 a0       0.0000E+00 AA
        H-bond correction              true
        Ion screening                  false
        Surface tension                    1.0000E-05 Eh       1.5569E+01 dyn/cm
        Grid points                               230 per atom

          ...................................................
          :                      SETUP                      :
          :.................................................:
          :  # basis functions                 655          :
          :  # atomic orbitals                 642          :
          :  # shells                          340          :
          :  # electrons                       616          :
          :  max. iterations                   250          :
          :  Hamiltonian                  GFN2-xTB          :
          :  restarted?                      false          :
          :  GBSA solvation                   true          :
          :  PC potential                    false          :
          :  electronic temp.          300.0000000     K    :
          :  accuracy                    1.0000000          :
          :  -> integral cutoff          0.2500000E+02      :
          :  -> integral neglect         0.1000000E-07      :
          :  -> SCF convergence          0.1000000E-05 Eh   :
          :  -> wf. convergence          0.1000000E-03 e    :
          :  Broyden damping             0.4000000          :
          ...................................................

 iter      E             dE          RMSdq      gap      omega  full diag
   1   -338.3005513 -0.338301E+03  0.448E+00    0.83       0.0  T
   2   -338.6793247 -0.378773E+00  0.264E+00    0.64       1.0  T
   3   -338.5974681  0.818565E-01  0.139E+00    0.70       1.0  T
   4   -338.7881620 -0.190694E+00  0.481E-01    0.66       1.0  T
   5   -338.8074847 -0.193227E-01  0.241E-01    0.60       1.0  T
   6   -338.8105439 -0.305923E-02  0.132E-01    0.63       1.0  T
   7   -338.8108565 -0.312509E-03  0.781E-02    0.63       1.0  T
   8   -338.8110403 -0.183849E-03  0.438E-02    0.63       1.0  T
   9   -338.8110786 -0.383151E-04  0.232E-02    0.63       1.0  T
  10   -338.8110971 -0.185127E-04  0.124E-02    0.62       1.0  T
  11   -338.8111046 -0.744623E-05  0.810E-03    0.62       1.0  T
  12   -338.8111066 -0.202661E-05  0.534E-03    0.62       1.3  T
  13   -338.8111081 -0.149204E-05  0.368E-03    0.62       1.9  T
  14   -338.8111087 -0.655327E-06  0.230E-03    0.62       3.1  T
  15   -338.8111091 -0.397308E-06  0.119E-03    0.62       5.9  T
  16   -338.8111093 -0.111478E-06  0.720E-04    0.62       9.8  T
  17   -338.8111093 -0.272212E-07  0.471E-04    0.62      14.9  T

   *** convergence criteria satisfied after 17 iterations ***

         #    Occupation            Energy/Eh            Energy/eV
      -------------------------------------------------------------
         1        2.0000           -1.0684313             -29.0735
       ...           ...                  ...                  ...
       302        2.0000           -0.3842660             -10.4564
       303        2.0000           -0.3834185             -10.4333
       304        2.0000           -0.3807942             -10.3619
       305        2.0000           -0.3789744             -10.3124
       306        2.0000           -0.3735048             -10.1636
       307        2.0000           -0.3698755             -10.0648
       308        2.0000           -0.3618006              -9.8451 (HOMO)
       309        0.0000           -0.3389074              -9.2221 (LUMO)
       310                         -0.3268985              -8.8954
       311                         -0.3204723              -8.7205
       312                         -0.3133405              -8.5264
       313                         -0.3019154              -8.2155
       ...                                ...                  ...
       642                          1.1558846              31.4532
      -------------------------------------------------------------
                  HL-Gap            0.0228932 Eh            0.6230 eV
             Fermi-level           -0.3503539 Eh           -9.5336 eV

 SCC (total)                   0 d,  0 h,  0 min,  0.811 sec
 SCC setup                      ...        0 min,  0.008 sec (  0.998%)
 Dispersion                     ...        0 min,  0.008 sec (  1.047%)
 classical contributions        ...        0 min,  0.000 sec (  0.039%)
 integral evaluation            ...        0 min,  0.035 sec (  4.322%)
 iterations                     ...        0 min,  0.647 sec ( 79.748%)
 molecular gradient             ...        0 min,  0.109 sec ( 13.431%)
 printout                       ...        0 min,  0.003 sec (  0.406%)

         :::::::::::::::::::::::::::::::::::::::::::::::::::::
         ::                     SUMMARY                     ::
         :::::::::::::::::::::::::::::::::::::::::::::::::::::
         :: total energy            -333.586377621438 Eh    ::
         :: total w/o Gsasa/hb      -333.567020013708 Eh    ::
         :: gradient norm              0.040859888545 Eh/a0 ::
         :: HOMO-LUMO gap              0.622955087112 eV    ::
         ::.................................................::
         :: SCC energy              -338.811109284013 Eh    ::
         :: -> isotropic ES            0.231943008661 Eh    ::
         :: -> anisotropic ES          0.010051123792 Eh    ::
         :: -> anisotropic XC          0.189390835502 Eh    ::
         :: -> dispersion             -0.331881952614 Eh    ::
         :: -> Gsolv                  -0.065797761713 Eh    ::
         ::    -> Gelec               -0.046440153983 Eh    ::
         ::    -> Gsasa               -0.012645845599 Eh    ::
         ::    -> Ghb                 -0.007792521829 Eh    ::
         ::    -> Gshift               0.001080759698 Eh    ::
         :: repulsion energy           5.223743974568 Eh    ::
         :: add. restraining           0.000000000000 Eh    ::
         :: total charge              -0.000000000000 e     ::
         :::::::::::::::::::::::::::::::::::::::::::::::::::::

           -------------------------------------------------
          |                Property Printout                |
           -------------------------------------------------

    * Orbital Energies and Occupations

         #    Occupation            Energy/Eh            Energy/eV
      -------------------------------------------------------------
         1        2.0000           -1.0684313             -29.0735
       ...           ...                  ...                  ...
       296        2.0000           -0.3973519             -10.8125
       297        2.0000           -0.3960984             -10.7784
       298        2.0000           -0.3941792             -10.7262
       299        2.0000           -0.3937460             -10.7144
       300        2.0000           -0.3868164             -10.5258
       301        2.0000           -0.3859369             -10.5019
       302        2.0000           -0.3842660             -10.4564
       303        2.0000           -0.3834185             -10.4333
       304        2.0000           -0.3807942             -10.3619
       305        2.0000           -0.3789744             -10.3124
       306        2.0000           -0.3735048             -10.1636
       307        2.0000           -0.3698755             -10.0648
       308        2.0000           -0.3618006              -9.8451 (HOMO)
       309        0.0000           -0.3389074              -9.2221 (LUMO)
       310                         -0.3268985              -8.8954
       311                         -0.3204723              -8.7205
       312                         -0.3133405              -8.5264
       313                         -0.3019154              -8.2155
       314                         -0.2975918              -8.0979
       315                         -0.2861638              -7.7869
       316                         -0.2807011              -7.6383
       317                         -0.2745971              -7.4722
       318                         -0.2611568              -7.1064
       319                         -0.2557976              -6.9606
       ...                                ...                  ...
       642                          1.1558846              31.4532
      -------------------------------------------------------------
                  HL-Gap            0.0228932 Eh            0.6230 eV
             Fermi-level           -0.3503539 Eh           -9.5336 eV

     #   Z          covCN         q      C6AA      α(0)
     1   6 C        2.939    -0.011    28.293     8.724
     2   6 C        3.006    -0.033    28.798     8.803
     3   6 C        2.870     0.234    23.109     7.880
     4   8 O        0.856    -0.420    22.087     6.301
     5   6 C        3.032    -0.020    28.483     8.754
     6   6 C        2.913    -0.017    28.434     8.744
     7   6 C        2.987     0.020    27.546     8.609
     8   6 C        2.922    -0.030    28.751     8.793
     9   6 C        2.913    -0.046    29.136     8.851
    10   6 C        2.782     0.182    24.098     8.041
    11   9 F        0.787    -0.250    11.761     4.051
    12   6 C        2.917    -0.055    29.355     8.885
    13   6 C        2.991     0.026    27.423     8.590
    14   6 C        2.915    -0.026    28.658     8.778
    15   6 C        3.030     0.007    27.824     8.652
    16   6 C        3.014     0.041    27.071     8.535
    17   6 C        2.948    -0.000    28.035     8.684
    18   6 C        1.934     0.133    27.839     8.521
    19   7 N        0.911    -0.283    27.294     7.556
    20   6 C        1.934     0.132    27.859     8.524
    21   7 N        0.911    -0.283    27.309     7.558
    22   6 C        2.980     0.033    27.249     8.563
    23   6 C        3.068    -0.038    28.863     8.809
    24   6 C        3.134    -0.001    27.840     8.637
    25   6 C        3.013    -0.000    28.010     8.682
    26   6 C        2.998     0.014    27.700     8.633
    27   6 C        3.128    -0.062    29.318     8.865
    28   6 C        3.127     0.076    26.124     8.369
    29  17 Cl       0.950    -0.211   105.820    15.738
    30   6 C        2.901    -0.112    30.847     9.107
    31  14 Si       3.582     0.517    97.947    19.025
    32   6 C        3.696    -0.154    23.668     6.959
    33   6 C        3.760    -0.112    22.694     6.791
    34   6 C        3.696    -0.157    23.722     6.967
    35   6 C        3.760    -0.118    22.815     6.809
    36   6 C        3.696    -0.151    23.617     6.951
    37   6 C        3.761    -0.109    22.627     6.781
    38  16 S        2.538     0.013   140.506    19.950
    39   6 C        3.005     0.023    27.477     8.599
    40   6 C        3.147     0.004    27.680     8.607
    41   6 C        3.014    -0.005    28.123     8.699
    42   6 C        3.000     0.017    27.625     8.622
    43  16 S        2.449    -0.007   141.364    20.011
    44   6 C        2.900    -0.107    30.698     9.085
    45  14 Si       3.601     0.520    97.594    18.974
    46   6 C        3.697    -0.152    23.620     6.952
    47   6 C        3.765    -0.111    22.670     6.787
    48   6 C        3.696    -0.156    23.710     6.965
    49   6 C        3.762    -0.110    22.643     6.783
    50   6 C        3.696    -0.156    23.710     6.965
    51   6 C        3.762    -0.111    22.670     6.787
    52   6 C        3.124     0.077    26.098     8.366
    53   6 C        3.130    -0.065    29.412     8.879
    54  17 Cl       0.951    -0.201   105.467    15.711
    55   6 C        3.006     0.028    27.358     8.580
    56  16 S        2.297    -0.028   142.199    20.070
    57   6 C        3.067    -0.061    29.441     8.897
    58   6 C        3.033     0.035    27.175     8.551
    59  16 S        2.468    -0.037   142.568    20.096
    60   6 C        3.040     0.008    27.808     8.649
    61   6 C        3.107    -0.007    28.052     8.678
    62   6 C        2.973     0.010    27.800     8.649
    63   6 C        2.924    -0.040    29.001     8.831
    64   6 C        2.917    -0.034    28.842     8.807
    65   6 C        2.925    -0.037    28.924     8.820
    66   6 C        2.971     0.017    27.616     8.620
    67   6 C        3.807    -0.060    21.645     6.623
    68   6 C        3.754    -0.106    22.587     6.777
    69   6 C        2.930    -0.042    29.044     8.838
    70   6 C        3.194     0.012    27.234     8.509
    71  16 S        2.181    -0.060   143.564    20.166
    72   6 C        3.101     0.001    27.872     8.652
    73   6 C        3.081    -0.042    28.945     8.820
    74   6 C        3.336     0.069    24.122     7.778
    75   6 C        3.336     0.068    24.127     7.778
    76   7 N        1.853    -0.302    28.682     7.938
    77  16 S        2.680     0.291   129.757    19.172
    78   7 N        1.853    -0.302    28.684     7.938
    79   6 C        3.077    -0.041    28.924     8.817
    80   6 C        3.099     0.004    27.819     8.644
    81  16 S        2.182    -0.054   143.298    20.148
    82   6 C        3.178     0.012    27.341     8.538
    83   6 C        3.112    -0.000    27.881     8.650
    84   6 C        2.974     0.010    27.791     8.647
    85   6 C        2.923    -0.038    28.944     8.823
    86   6 C        2.918    -0.034    28.845     8.807
    87   6 C        2.925    -0.040    29.001     8.831
    88   6 C        2.968     0.018    27.612     8.619
    89   6 C        3.807    -0.064    21.728     6.636
    90   6 C        3.753    -0.105    22.565     6.774
    91   6 C        2.931    -0.042    29.044     8.838
    92   6 C        2.989     0.020    27.555     8.611
    93  16 S        2.239    -0.026   142.131    20.065
    94   6 C        3.123     0.010    27.616     8.606
    95   6 C        3.263     0.032    26.108     8.252
    96   7 N        2.793    -0.028    21.777     6.931
    97   6 C        3.093     0.033    27.153     8.541
    98   6 C        3.090     0.029    27.247     8.556
    99   7 N        2.796    -0.016    21.567     6.897
   100   6 C        3.258     0.030    26.219     8.277
   101   6 C        3.122     0.006    27.706     8.620
   102  16 S        2.344    -0.012   141.531    20.023
   103   6 C        3.741    -0.013    20.886     6.520
   104   6 C        3.751    -0.133    23.110     6.856
   105   6 C        3.743    -0.014    20.896     6.521
   106   6 C        3.752    -0.124    22.941     6.830
   107   6 C        2.919    -0.021    28.528     8.759
   108   6 C        2.894    -0.035    28.873     8.810
   109   6 C        2.898    -0.005    28.155     8.700
   110   6 C        3.014    -0.040    28.975     8.830
   111   6 C        2.872     0.230    23.195     7.895
   112   8 O        0.856    -0.434    22.366     6.341
   113   6 C        3.043    -0.027    28.626     8.775
   114   6 C        2.911    -0.020    28.499     8.754
   115   6 C        2.926    -0.036    28.889     8.814
   116   6 C        2.967     0.037    27.166     8.549
   117   6 C        3.759    -0.134    23.120     6.855
   118   6 C        2.918    -0.036    28.906     8.817
   119   6 C        3.036     0.005    27.873     8.660
   120   6 C        3.017     0.039    27.102     8.540
   121   6 C        2.947    -0.002    28.076     8.691
   122   6 C        1.937     0.131    27.884     8.528
   123   7 N        0.911    -0.290    27.483     7.582
   124   6 C        1.938     0.132    27.850     8.522
   125   7 N        0.911    -0.291    27.493     7.584
   126   1 H        0.925     0.091     1.867     2.137
   127   1 H        0.926     0.081     1.966     2.193
   128   1 H        0.926     0.086     1.918     2.166
   129   1 H        0.926     0.090     1.883     2.146
   130   1 H        0.926     0.079     1.985     2.203
   131   1 H        0.926     0.060     2.202     2.321
   132   1 H        0.926     0.051     2.303     2.373
   133   1 H        0.926     0.033     2.549     2.497
   134   1 H        0.925     0.031     2.573     2.508
   135   1 H        0.924     0.035     2.520     2.482
   136   1 H        0.925     0.031     2.566     2.505
   137   1 H        0.925     0.040     2.453     2.449
   138   1 H        0.925     0.036     2.499     2.472
   139   1 H        0.925     0.043     2.406     2.426
   140   1 H        0.924     0.046     2.366     2.405
   141   1 H        0.925     0.047     2.361     2.403
   142   1 H        0.925     0.040     2.447     2.446
   143   1 H        0.925     0.037     2.493     2.469
   144   1 H        0.924     0.042     2.427     2.436
   145   1 H        0.925     0.031     2.575     2.509
   146   1 H        0.925     0.038     2.475     2.460
   147   1 H        0.925     0.036     2.497     2.471
   148   1 H        0.925     0.028     2.610     2.526
   149   1 H        0.924     0.030     2.582     2.513
   150   1 H        0.925     0.031     2.569     2.506
   151   1 H        0.925     0.035     2.522     2.483
   152   1 H        0.925     0.036     2.504     2.475
   153   1 H        0.925     0.029     2.599     2.521
   154   1 H        0.924     0.040     2.449     2.447
   155   1 H        0.924     0.040     2.447     2.446
   156   1 H        0.925     0.039     2.460     2.453
   157   1 H        0.925     0.029     2.594     2.519
   158   1 H        0.925     0.035     2.522     2.483
   159   1 H        0.924     0.039     2.464     2.455
   160   1 H        0.924     0.034     2.524     2.484
   161   1 H        0.925     0.037     2.483     2.464
   162   1 H        0.925     0.038     2.470     2.458
   163   1 H        0.925     0.025     2.655     2.548
   164   1 H        0.926     0.057     2.239     2.340
   165   1 H        0.926     0.057     2.234     2.337
   166   1 H        0.926     0.036     2.499     2.472
   167   1 H        0.926     0.039     2.456     2.451
   168   1 H        0.926     0.036     2.498     2.472
   169   1 H        0.924     0.041     2.439     2.442
   170   1 H        0.924     0.040     2.448     2.447
   171   1 H        0.925     0.044     2.393     2.419
   172   1 H        0.925     0.040     2.450     2.448
   173   1 H        0.925     0.039     2.459     2.452
   174   1 H        0.926     0.038     2.481     2.463
   175   1 H        0.926     0.041     2.434     2.440
   176   1 H        0.926     0.044     2.394     2.419
   177   1 H        0.926     0.043     2.415     2.430
   178   1 H        0.924     0.042     2.417     2.431
   179   1 H        0.924     0.049     2.330     2.387
   180   1 H        0.925     0.042     2.419     2.432
   181   1 H        0.925     0.040     2.450     2.448
   182   1 H        0.925     0.036     2.505     2.475
   183   1 H        0.926     0.047     2.355     2.400
   184   1 H        0.924     0.077     2.009     2.217
   185   1 H        0.925     0.081     1.973     2.197
   186   1 H        0.925     0.076     2.016     2.220
   187   1 H        0.925     0.065     2.142     2.289
   188   1 H        0.925     0.060     2.202     2.320
   189   1 H        0.924     0.079     1.991     2.207
   190   1 H        0.925     0.091     1.867     2.137
   191   1 H        0.925     0.049     2.328     2.386
   192   1 H        0.925     0.071     2.075     2.253
   193   1 H        0.925     0.049     2.334     2.389
   194   1 H        0.925     0.073     2.054     2.241
   195   1 H        0.925     0.050     2.322     2.383
   196   1 H        0.925     0.083     1.945     2.181
   197   1 H        0.926     0.064     2.150     2.293
   198   1 H        0.926     0.069     2.094     2.263
   199   1 H        0.924     0.080     1.979     2.200
   200   1 H        0.925     0.068     2.106     2.269
   201   1 H        0.925     0.065     2.139     2.287
   202   1 H        0.926     0.053     2.288     2.366

 Mol. C6AA /au·bohr⁶  :     704047.820485
 Mol. C8AA /au·bohr⁸  :   20280863.014273
 Mol. α(0) /au        :       1343.341212


Wiberg/Mayer (AO) data.
largest (>0.10) Wiberg bond orders for each atom

 ---------------------------------------------------------------------------
     #   Z sym  total        # sym  WBO       # sym  WBO       # sym  WBO
 ---------------------------------------------------------------------------
     1   6 C    3.935 --     2 C    1.542    22 C    1.238   126 H    0.949
     2   6 C    3.947 --     1 C    1.542    16 C    1.143     3 C    1.014
     3   6 C    3.910 --     4 O    1.742     5 C    1.028     2 C    1.014
     4   8 O    2.009 --     3 C    1.742
     5   6 C    3.976 --     6 C    1.519    15 C    1.195     3 C    1.028
     6   6 C    3.974 --     5 C    1.519     7 C    1.271   127 H    0.960
     7   6 C    3.979 --     8 C    1.287     6 C    1.271    13 C    1.240
     8   6 C    3.976 --     9 C    1.545     7 C    1.287   128 H    0.962
                            12 C    0.111
     9   6 C    3.970 --     8 C    1.545    10 C    1.294   129 H    0.962
    10   6 C    3.863 --    12 C    1.494     9 C    1.294    11 F    0.943
    11   9 F    1.065 --    10 C    0.943
    12   6 C    3.975 --    10 C    1.494    13 C    1.290   130 H    0.961
                             8 C    0.111
    13   6 C    3.983 --    12 C    1.290    14 C    1.271     7 C    1.240
    14   6 C    3.970 --    15 C    1.507    13 C    1.271   131 H    0.959
    15   6 C    3.985 --    14 C    1.507     5 C    1.195    16 C    1.083
    16   6 C    3.966 --    17 C    1.461     2 C    1.143    15 C    1.083
    17   6 C    3.952 --    16 C    1.461    20 C    1.106    18 C    1.103
    18   6 C    3.942 --    19 N    2.751    17 C    1.103
    19   7 N    2.958 --    18 C    2.751
    20   6 C    3.942 --    21 N    2.746    17 C    1.106
    21   7 N    2.966 --    20 C    2.746
    22   6 C    3.934 --    23 C    1.462     1 C    1.238    56 S    1.081
    23   6 C    3.965 --    22 C    1.462    24 C    1.285   132 H    0.955
    24   6 C    3.969 --    23 C    1.285    25 C    1.236    55 C    1.230
    25   6 C    3.952 --    39 C    1.380    24 C    1.236    26 C    1.107
    26   6 C    3.949 --    27 C    1.512    38 S    1.142    25 C    1.107
    27   6 C    3.970 --    26 C    1.512    28 C    1.282   133 H    0.959
    28   6 C    3.886 --    30 C    1.547    27 C    1.282    29 Cl   0.949
    29  17 Cl   1.087 --    28 C    0.949
    30   6 C    3.868 --    28 C    1.547    38 S    1.207    31 Si   0.798
    31  14 Si   3.511 --    34 C    0.891    36 C    0.874    32 C    0.868
                            30 C    0.798
    32   6 C    3.982 --    33 C    1.030   134 H    0.980   135 H    0.979
                            31 Si   0.868
    33   6 C    3.995 --    32 C    1.030   136 H    0.990   137 H    0.990
                           138 H    0.985
    34   6 C    3.988 --    35 C    1.025   139 H    0.978   140 H    0.972
                            31 Si   0.891
    35   6 C    3.994 --    34 C    1.025   142 H    0.989   143 H    0.986
                           141 H    0.985
    36   6 C    3.984 --    37 C    1.029   145 H    0.978   144 H    0.975
                            31 Si   0.874
    37   6 C    3.995 --    36 C    1.029   146 H    0.991   148 H    0.990
                           147 H    0.985
    38  16 S    2.646 --    30 C    1.207    26 C    1.142
    39   6 C    3.946 --    25 C    1.380    40 C    1.238    59 S    1.104
    40   6 C    3.964 --    41 C    1.257    57 C    1.252    39 C    1.238
    41   6 C    3.949 --    55 C    1.377    40 C    1.257    42 C    1.084
    42   6 C    3.954 --    53 C    1.534    43 S    1.144    41 C    1.084
                            44 C    0.103
    43  16 S    2.623 --    44 C    1.197    42 C    1.144
    44   6 C    3.886 --    52 C    1.554    43 S    1.197    45 Si   0.819
                            42 C    0.103
    45  14 Si   3.507 --    48 C    0.882    50 C    0.869    46 C    0.864
                            44 C    0.819
    46   6 C    3.985 --    47 C    1.032   150 H    0.981   149 H    0.980
                            45 Si   0.864
    47   6 C    3.995 --    46 C    1.032   153 H    0.992   151 H    0.991
                           152 H    0.985
    48   6 C    3.987 --    49 C    1.027   155 H    0.979   154 H    0.975
                            45 Si   0.882
    49   6 C    3.996 --    48 C    1.027   158 H    0.990   157 H    0.989
                           156 H    0.985
    50   6 C    3.984 --    51 C    1.029   159 H    0.979   160 H    0.978
                            45 Si   0.869
    51   6 C    3.996 --    50 C    1.029   163 H    0.990   161 H    0.990
                           162 H    0.985
    52   6 C    3.895 --    44 C    1.554    53 C    1.273    54 Cl   0.954
    53   6 C    3.974 --    42 C    1.534    52 C    1.273   164 H    0.960
    54  17 Cl   1.094 --    52 C    0.954
    55   6 C    3.945 --    41 C    1.377    24 C    1.230    56 S    1.119
    56  16 S    2.511 --    55 C    1.119    22 C    1.081
    57   6 C    3.946 --    58 C    1.511    40 C    1.252   165 H    0.949
    58   6 C    3.922 --    57 C    1.511    60 C    1.178    59 S    1.090
    59  16 S    2.531 --    39 C    1.104    58 C    1.090
    60   6 C    3.918 --    61 C    1.428    58 C    1.178   102 S    1.097
    61   6 C    3.955 --    60 C    1.428    70 C    1.274    62 C    1.025
    62   6 C    3.987 --    69 C    1.403    63 C    1.382    61 C    1.025
                            65 C    0.105
    63   6 C    3.989 --    64 C    1.448    62 C    1.382   166 H    0.970
                            66 C    0.107
    64   6 C    3.990 --    63 C    1.448    65 C    1.437   167 H    0.969
                            69 C    0.105
    65   6 C    3.987 --    64 C    1.437    66 C    1.411   168 H    0.967
                            62 C    0.105
    66   6 C    3.987 --    69 C    1.412    65 C    1.411    67 C    1.013
                            63 C    0.107
    67   6 C    3.996 --    66 C    1.013    68 C    1.000   169 H    0.973
                           170 H    0.973
    68   6 C    3.995 --    67 C    1.000   172 H    0.988   173 H    0.988
                           171 H    0.985
    69   6 C    3.987 --    66 C    1.412    62 C    1.403   174 H    0.968
                            64 C    0.105
    70   6 C    3.923 --   101 C    1.342    61 C    1.274    71 S    1.089
    71  16 S    2.500 --    72 C    1.106    70 C    1.089
    72   6 C    3.920 --   100 C    1.311    73 C    1.268    71 S    1.106
    73   6 C    3.953 --    98 C    1.269    72 C    1.268    74 C    1.174
    74   6 C    3.969 --    78 N    1.427    73 C    1.174    75 C    1.156
                            77 S    0.107
    75   6 C    3.969 --    76 N    1.426    79 C    1.175    74 C    1.156
                            77 S    0.108
    76   7 N    3.058 --    75 C    1.426    77 S    1.376    78 N    0.144
    77  16 S    3.085 --    76 N    1.376    78 N    1.376    75 C    0.108
                            74 C    0.107
    78   7 N    3.058 --    74 C    1.427    77 S    1.376    76 N    0.144
    79   6 C    3.955 --    97 C    1.273    80 C    1.264    75 C    1.175
    80   6 C    3.914 --    95 C    1.308    79 C    1.264    81 S    1.111
    81  16 S    2.504 --    80 C    1.111    82 C    1.086
    82   6 C    3.927 --    94 C    1.322    83 C    1.299    81 S    1.086
    83   6 C    3.942 --    92 C    1.359    82 C    1.299    84 C    1.058
    84   6 C    3.985 --    91 C    1.382    85 C    1.373    83 C    1.058
    85   6 C    3.980 --    86 C    1.454    84 C    1.373   175 H    0.967
                            88 C    0.104
    86   6 C    3.989 --    85 C    1.454    87 C    1.432   176 H    0.969
                            91 C    0.105
    87   6 C    3.977 --    86 C    1.432    88 C    1.409   177 H    0.968
    88   6 C    3.987 --    91 C    1.416    87 C    1.409    89 C    1.013
                            85 C    0.104
    89   6 C    3.995 --    88 C    1.013    90 C    1.003   178 H    0.977
                           179 H    0.966
    90   6 C    3.995 --    89 C    1.003   182 H    0.989   181 H    0.986
                           180 H    0.984
    91   6 C    3.982 --    88 C    1.416    84 C    1.382   183 H    0.964
                            86 C    0.105
    92   6 C    3.921 --    83 C    1.359   107 C    1.266    93 S    1.083
    93  16 S    2.570 --    94 C    1.125    92 C    1.083
    94   6 C    3.927 --    82 C    1.322    95 C    1.254    93 S    1.125
    95   6 C    3.941 --    80 C    1.308    94 C    1.254    96 N    1.154
    96   7 N    3.547 --    97 C    1.177    95 C    1.154   105 C    0.967
    97   6 C    3.933 --    79 C    1.273    98 C    1.219    96 N    1.177
    98   6 C    3.938 --    73 C    1.269    97 C    1.219    99 N    1.184
    99   7 N    3.571 --    98 C    1.184   100 C    1.167   103 C    0.970
   100   6 C    3.940 --    72 C    1.311   101 C    1.238    99 N    1.167
   101   6 C    3.928 --    70 C    1.342   100 C    1.238   102 S    1.127
   102  16 S    2.575 --   101 C    1.127    60 C    1.097
   103   6 C    3.948 --   104 C    1.007    99 N    0.970   185 H    0.964
                           184 H    0.961
   104   6 C    3.982 --   103 C    1.007   186 H    0.980   188 H    0.977
                           187 H    0.976
   105   6 C    3.948 --   106 C    1.005    96 N    0.967   189 H    0.964
                           190 H    0.956
   106   6 C    3.986 --   105 C    1.005   193 H    0.987   191 H    0.984
                           192 H    0.980
   107   6 C    3.954 --   108 C    1.549    92 C    1.266   194 H    0.949
   108   6 C    3.954 --   107 C    1.549   109 C    1.281   195 H    0.953
   109   6 C    3.944 --   110 C    1.508   108 C    1.281   196 H    0.936
   110   6 C    3.932 --   109 C    1.508   120 C    1.160   111 C    1.026
   111   6 C    3.911 --   112 O    1.727   113 C    1.030   110 C    1.026
   112   8 O    2.000 --   111 C    1.727
   113   6 C    3.972 --   114 C    1.414   119 C    1.280   111 C    1.030
   114   6 C    3.981 --   115 C    1.429   113 C    1.414   197 H    0.965
   115   6 C    3.966 --   114 C    1.429   116 C    1.402   198 H    0.965
   116   6 C    3.974 --   115 C    1.402   118 C    1.382   117 C    1.036
   117   6 C    3.988 --   116 C    1.036   200 H    0.978   201 H    0.976
                           199 H    0.954
   118   6 C    3.977 --   119 C    1.423   116 C    1.382   202 H    0.961
   119   6 C    3.979 --   118 C    1.423   113 C    1.280   120 C    1.076
   120   6 C    3.964 --   121 C    1.454   110 C    1.160   119 C    1.076
   121   6 C    3.954 --   120 C    1.454   122 C    1.106   124 C    1.106
   122   6 C    3.941 --   123 N    2.740   121 C    1.106
   123   7 N    2.965 --   122 C    2.740
   124   6 C    3.940 --   125 N    2.745   121 C    1.106
   125   7 N    2.952 --   124 C    2.745
   126   1 H    0.989 --     1 C    0.949
   127   1 H    0.992 --     6 C    0.960
   128   1 H    0.992 --     8 C    0.962
   129   1 H    0.991 --     9 C    0.962
   130   1 H    0.993 --    12 C    0.961
   131   1 H    0.995 --    14 C    0.959
   132   1 H    0.997 --    23 C    0.955
   133   1 H    0.998 --    27 C    0.959
   134   1 H    0.999 --    32 C    0.980
   135   1 H    0.999 --    32 C    0.979
   136   1 H    0.999 --    33 C    0.990
   137   1 H    0.998 --    33 C    0.990
   138   1 H    0.998 --    33 C    0.985
   139   1 H    0.998 --    34 C    0.978
   140   1 H    0.998 --    34 C    0.972
   141   1 H    0.997 --    35 C    0.985
   142   1 H    0.998 --    35 C    0.989
   143   1 H    0.999 --    35 C    0.986
   144   1 H    0.998 --    36 C    0.975
   145   1 H    0.999 --    36 C    0.978
   146   1 H    0.998 --    37 C    0.991
   147   1 H    0.998 --    37 C    0.985
   148   1 H    0.999 --    37 C    0.990
   149   1 H    0.999 --    46 C    0.980
   150   1 H    0.999 --    46 C    0.981
   151   1 H    0.999 --    47 C    0.991
   152   1 H    0.998 --    47 C    0.985
   153   1 H    0.999 --    47 C    0.992
   154   1 H    0.998 --    48 C    0.975
   155   1 H    0.998 --    48 C    0.979
   156   1 H    0.998 --    49 C    0.985
   157   1 H    0.999 --    49 C    0.989
   158   1 H    0.999 --    49 C    0.990
   159   1 H    0.998 --    50 C    0.979
   160   1 H    0.998 --    50 C    0.978
   161   1 H    0.999 --    51 C    0.990
   162   1 H    0.998 --    51 C    0.985
   163   1 H    0.999 --    51 C    0.990
   164   1 H    0.996 --    53 C    0.960
   165   1 H    0.996 --    57 C    0.949
   166   1 H    0.998 --    63 C    0.970
   167   1 H    0.997 --    64 C    0.969
   168   1 H    0.998 --    65 C    0.967
   169   1 H    0.998 --    67 C    0.973
   170   1 H    0.998 --    67 C    0.973
   171   1 H    0.997 --    68 C    0.985
   172   1 H    0.998 --    68 C    0.988
   173   1 H    0.998 --    68 C    0.988
   174   1 H    0.999 --    69 C    0.968
   175   1 H    0.998 --    85 C    0.967
   176   1 H    0.997 --    86 C    0.969
   177   1 H    0.998 --    87 C    0.968
   178   1 H    0.998 --    89 C    0.977
   179   1 H    0.997 --    89 C    0.966
   180   1 H    0.998 --    90 C    0.984
   181   1 H    0.998 --    90 C    0.986
   182   1 H    0.999 --    90 C    0.989
   183   1 H    0.998 --    91 C    0.964
   184   1 H    0.992 --   103 C    0.961
   185   1 H    0.993 --   103 C    0.964
   186   1 H    0.993 --   104 C    0.980
   187   1 H    0.996 --   104 C    0.976
   188   1 H    0.996 --   104 C    0.977
   189   1 H    0.991 --   105 C    0.964
   190   1 H    0.991 --   105 C    0.956
   191   1 H    0.997 --   106 C    0.984
   192   1 H    0.994 --   106 C    0.980
   193   1 H    0.998 --   106 C    0.987
   194   1 H    0.994 --   107 C    0.949
   195   1 H    0.996 --   108 C    0.953
   196   1 H    0.991 --   109 C    0.936
   197   1 H    0.995 --   114 C    0.965
   198   1 H    0.995 --   115 C    0.965
   199   1 H    0.990 --   117 C    0.954
   200   1 H    0.994 --   117 C    0.978
   201   1 H    0.995 --   117 C    0.976
   202   1 H    0.997 --   118 C    0.961
 ---------------------------------------------------------------------------

Topologies differ in bond orders
Writing corrected topology to xtbtopo.mol

molecular dipole:
                 x           y           z       tot (Debye)
 q only:        0.285      -0.444      -1.826
   full:       -0.068      -0.640      -0.711       2.439
molecular quadrupole (traceless):
                xx          xy          yy          xz          yz          zz
 q only:       86.904      46.888      53.727      63.858      25.440    -140.631
  q+dip:       84.342      37.763      45.337      74.811      12.277    -129.679
   full:       91.848      39.545      36.074      70.678      10.891    -127.922


           -------------------------------------------------
          | TOTAL ENERGY             -333.586377621438 Eh   |
          | GRADIENT NORM               0.040859888545 Eh/α |
          | HOMO-LUMO GAP               0.622955087112 eV   |
           -------------------------------------------------

------------------------------------------------------------------------
 * finished run on 2022/02/04 at 23:23:59.060     
------------------------------------------------------------------------
 total:
 * wall-time:     0 d,  0 h,  0 min,  0.913 sec
 *  cpu-time:     0 d,  0 h,  0 min,  7.183 sec
 * ratio c/w:     7.865 speedup
 SCF:
 * wall-time:     0 d,  0 h,  0 min,  0.814 sec
 *  cpu-time:     0 d,  0 h,  0 min,  6.482 sec
 * ratio c/w:     7.964 speedup

