      -----------------------------------------------------------      
     |                   =====================                   |     
     |                           x T B                           |     
     |                   =====================                   |     
     |                         S. Grimme                         |     
     |          Mulliken Center for Theoretical Chemistry        |     
     |                    University of Bonn                     |     
      -----------------------------------------------------------      

   * xtb version 6.4.1 (unknown) compiled by 'oda6@login1.crc.pitt.edu' on 2021-06-25

   xtb is free software: you can redistribute it and/or modify it under
   the terms of the GNU Lesser General Public License as published by
   the Free Software Foundation, either version 3 of the License, or
   (at your option) any later version.
   
   xtb is distributed in the hope that it will be useful,
   but WITHOUT ANY WARRANTY; without even the implied warranty of
   MERCHANTABILITY or FITNESS FOR A PARTICULAR PURPOSE.  See the
   GNU Lesser General Public License for more details.
   
   Cite this work as:
   * C. Bannwarth, E. Caldeweyher, S. Ehlert, A. Hansen, P. Pracht,
     J. Seibert, S. Spicher, S. Grimme, WIREs Comput. Mol. Sci., 2020, 11,
     e01493. DOI: 10.1002/wcms.1493
   
   for GFN2-xTB:
   * C. Bannwarth, S. Ehlert and S. Grimme., J. Chem. Theory Comput., 2019,
     15, 1652-1671. DOI: 10.1021/acs.jctc.8b01176
   for GFN1-xTB:
   * S. Grimme, C. Bannwarth, P. Shushkov, J. Chem. Theory Comput., 2017,
     13, 1989-2009. DOI: 10.1021/acs.jctc.7b00118
   for GFN0-xTB:
   * P. Pracht, E. Caldeweyher, S. Ehlert, S. Grimme, ChemRxiv, 2019, preprint.
     DOI: 10.26434/chemrxiv.8326202.v1
   for GFN-FF:
   * S. Spicher and S. Grimme, Angew. Chem. Int. Ed., 2020, 59, 15665-15673.
     DOI: 10.1002/anie.202004239
   
   for DFT-D4:
   * E. Caldeweyher, C. Bannwarth and S. Grimme, J. Chem. Phys., 2017,
     147, 034112. DOI: 10.1063/1.4993215
   * E. Caldeweyher, S. Ehlert, A. Hansen, H. Neugebauer, S. Spicher,
     C. Bannwarth and S. Grimme, J. Chem. Phys., 2019, 150, 154122.
     DOI: 10.1063/1.5090222
   * E. Caldeweyher, J.-M. Mewes, S. Ehlert and S. Grimme, Phys. Chem. Chem. Phys.
     2020, 22, 8499-8512. DOI: 10.1039/D0CP00502A
   
   for sTDA-xTB:
   * S. Grimme and C. Bannwarth, J. Chem. Phys., 2016, 145, 054103.
     DOI: 10.1063/1.4959605
   
   in the mass-spec context:
   * V. Asgeirsson, C. Bauer and S. Grimme, Chem. Sci., 2017, 8, 4879.
     DOI: 10.1039/c7sc00601b
   * J. Koopman and S. Grimme, ACS Omega 2019, 4, 12, 15120-15133.
     DOI: 10.1021/acsomega.9b02011
   
   for metadynamics refer to:
   * S. Grimme, J. Chem. Theory Comput., 2019, 155, 2847-2862
     DOI: 10.1021/acs.jctc.9b00143
   
   for SPH calculations refer to:
   * S. Spicher and S. Grimme, J. Chem. Theory Comput., 2021, 17, 1701-1714
     DOI: 10.1021/acs.jctc.0c01306
   
   with help from (in alphabetical order)
   P. Atkinson, C. Bannwarth, F. Bohle, G. Brandenburg, E. Caldeweyher
   M. Checinski, S. Dohm, S. Ehlert, S. Ehrlich, I. Gerasimov, J. Koopman
   C. Lavigne, S. Lehtola, F. März, M. Müller, F. Musil, H. Neugebauer
   J. Pisarek, C. Plett, P. Pracht, J. Seibert, P. Shushkov, S. Spicher
   M. Stahn, M. Steiner, T. Strunk, J. Stückrath, T. Rose, and J. Unsleber
   
 * started run on 2022/02/11 at 07:52:28.803     

           -------------------------------------------------
          |                Calculation Setup                |
           -------------------------------------------------

          program call               : /ihome/ghutchison/oda6/xtb/xtb-641/bin/xtb ../../GFN2_output/0_15_130_15_9.mol --sp --alpb hexane
          hostname                   : smp-n25
          coordinate file            : ../../GFN2_output/0_15_130_15_9.mol
          omp threads                :                     8
          number of atoms            :                   158
          number of electrons        :                   520
          charge                     :                     0
          spin                       :                   0.0
          first test random number   :      0.47966933100107

   ID    Z sym.   atoms
    1    6 C      1-3, 5-7, 9, 11-15, 17, 19-22, 24-34, 36-39, 41-47, 49-52,
                  54, 55, 57-60, 62-68, 70-73, 75-78, 80-91, 93-98, 100-106,
                  108
    2    8 O      4, 23, 79, 92
    3    9 F      8, 10, 99
    4    7 N      16, 18, 35, 56, 107, 109
    5   16 S      40, 48, 53, 61, 69, 74
    6    1 H      110-158

           -------------------------------------------------
          |                 G F N 2 - x T B                 |
           -------------------------------------------------

        Reference                      10.1021/acs.jctc.8b01176
      * Hamiltonian:
        H0-scaling (s, p, d)           1.850000    2.230000    2.230000
        zeta-weighting                 0.500000
      * Dispersion:
        s8                             2.700000
        a1                             0.520000
        a2                             5.000000
        s9                             5.000000
      * Repulsion:
        kExp                           1.500000    1.000000
        rExp                           1.000000
      * Coulomb:
        alpha                          2.000000
        third order                    shell-resolved
        anisotropic                    true
        a3                             3.000000
        a5                             4.000000
        cn-shift                       1.200000
        cn-exp                         4.000000
        max-rad                        5.000000

      * Solvation model:               ALPB
        Solvent                        hexane
        Parameter file                 internal GFN2-xTB/ALPB
        Dielectric constant                1.8800E+00
        Reference state                gsolv [1 M gas/solution]
        Free energy shift                  4.8134E-03 Eh       3.0204E+00 kcal/mol
        Temperature                        2.9815E+02 K
        Density                            6.6000E-01 kg/L
        Solvent mass                       8.6180E+01 g/mol
        Interaction kernel             P16
        Born radius scaling (c1)           1.1040E+00
        Born radii integrator          GBOBC
        Born offset                        0.0000E+00 a0       0.0000E+00 AA
        H-bond correction              false
        Ion screening                  false
        Surface tension                    1.0000E-05 Eh       1.5569E+01 dyn/cm
        Grid points                               230 per atom

          ...................................................
          :                      SETUP                      :
          :.................................................:
          :  # basis functions                 521          :
          :  # atomic orbitals                 515          :
          :  # shells                          273          :
          :  # electrons                       520          :
          :  max. iterations                   250          :
          :  Hamiltonian                  GFN2-xTB          :
          :  restarted?                      false          :
          :  GBSA solvation                   true          :
          :  PC potential                    false          :
          :  electronic temp.          300.0000000     K    :
          :  accuracy                    1.0000000          :
          :  -> integral cutoff          0.2500000E+02      :
          :  -> integral neglect         0.1000000E-07      :
          :  -> SCF convergence          0.1000000E-05 Eh   :
          :  -> wf. convergence          0.1000000E-03 e    :
          :  Broyden damping             0.4000000          :
          ...................................................

 iter      E             dE          RMSdq      gap      omega  full diag
   1   -289.5820326 -0.289582E+03  0.499E+00    0.73       0.0  T
   2   -289.7607236 -0.178691E+00  0.286E+00    0.71       1.0  T
   3   -289.6080809  0.152643E+00  0.146E+00    0.13       1.0  T
   4   -289.8074286 -0.199348E+00  0.491E-01    0.42       1.0  T
   5   -289.8277742 -0.203456E-01  0.168E-01    0.24       1.0  T
   6   -289.8286367 -0.862421E-03  0.714E-02    0.25       1.0  T
   7   -289.8289409 -0.304220E-03  0.298E-02    0.24       1.0  T
   8   -289.8289797 -0.387831E-04  0.160E-02    0.25       1.0  T
   9   -289.8289938 -0.141663E-04  0.804E-03    0.24       1.0  T
  10   -289.8289965 -0.262717E-05  0.379E-03    0.25       2.1  T
  11   -289.8289974 -0.943941E-06  0.170E-03    0.25       4.7  T
  12   -289.8289975 -0.604533E-07  0.968E-04    0.25       8.2  T
  13   -289.8289975 -0.369492E-07  0.353E-04    0.25      22.5  T

   *** convergence criteria satisfied after 13 iterations ***

         #    Occupation            Energy/Eh            Energy/eV
      -------------------------------------------------------------
         1        2.0000           -0.8565065             -23.3067
       ...           ...                  ...                  ...
       254        2.0000           -0.3902060             -10.6180
       255        2.0000           -0.3882133             -10.5638
       256        2.0000           -0.3775540             -10.2738
       257        2.0000           -0.3720244             -10.1233
       258        2.0000           -0.3705962             -10.0844
       259        1.9989           -0.3556344              -9.6773
       260        1.9833           -0.3530185              -9.6061 (HOMO)
       261        0.0177           -0.3439949              -9.3606 (LUMO)
       262        0.0000           -0.3381839              -9.2025
       263        0.0000           -0.3336220              -9.0783
       264                         -0.3219485              -8.7607
       265                         -0.3206954              -8.7266
       ...                                ...                  ...
       515                          1.1528271              31.3700
      -------------------------------------------------------------
                  HL-Gap            0.0090236 Eh            0.2455 eV
             Fermi-level           -0.3484779 Eh           -9.4826 eV

 SCC (total)                   0 d,  0 h,  0 min,  0.738 sec
 SCC setup                      ...        0 min,  0.005 sec (  0.667%)
 Dispersion                     ...        0 min,  0.006 sec (  0.878%)
 classical contributions        ...        0 min,  0.000 sec (  0.031%)
 integral evaluation            ...        0 min,  0.027 sec (  3.660%)
 iterations                     ...        0 min,  0.629 sec ( 85.259%)
 molecular gradient             ...        0 min,  0.068 sec (  9.170%)
 printout                       ...        0 min,  0.002 sec (  0.320%)

         :::::::::::::::::::::::::::::::::::::::::::::::::::::
         ::                     SUMMARY                     ::
         :::::::::::::::::::::::::::::::::::::::::::::::::::::
         :: total energy            -285.155046342502 Eh    ::
         :: total w/o Gsasa/hb      -285.065489350618 Eh    ::
         :: gradient norm              0.027197808029 Eh/a0 ::
         :: HOMO-LUMO gap              0.245543923366 eV    ::
         ::.................................................::
         :: SCC energy              -289.828997499593 Eh    ::
         :: -> isotropic ES            0.216385949836 Eh    ::
         :: -> anisotropic ES          0.005251094268 Eh    ::
         :: -> anisotropic XC          0.168745668836 Eh    ::
         :: -> dispersion             -0.278568356806 Eh    ::
         :: -> Gsolv                  -0.122701351429 Eh    ::
         ::    -> Gelec               -0.033144359546 Eh    ::
         ::    -> Gsasa               -0.094370347704 Eh    ::
         ::    -> Ghb                  0.000000000000 Eh    ::
         ::    -> Gshift               0.004813355820 Eh    ::
         :: repulsion energy           4.670153764734 Eh    ::
         :: add. restraining           0.000000000000 Eh    ::
         :: total charge               0.000000000000 e     ::
         :::::::::::::::::::::::::::::::::::::::::::::::::::::

           -------------------------------------------------
          |                Property Printout                |
           -------------------------------------------------

    * Orbital Energies and Occupations

         #    Occupation            Energy/Eh            Energy/eV
      -------------------------------------------------------------
         1        2.0000           -0.8565065             -23.3067
       ...           ...                  ...                  ...
       248        2.0000           -0.4123254             -11.2199
       249        2.0000           -0.4099161             -11.1544
       250        2.0000           -0.4088349             -11.1250
       251        2.0000           -0.4073356             -11.0842
       252        2.0000           -0.4022013             -10.9445
       253        2.0000           -0.4000007             -10.8846
       254        2.0000           -0.3902060             -10.6180
       255        2.0000           -0.3882133             -10.5638
       256        2.0000           -0.3775540             -10.2738
       257        2.0000           -0.3720244             -10.1233
       258        2.0000           -0.3705962             -10.0844
       259        1.9989           -0.3556344              -9.6773
       260        1.9833           -0.3530185              -9.6061 (HOMO)
       261        0.0177           -0.3439949              -9.3606 (LUMO)
       262        0.0000           -0.3381839              -9.2025
       263        0.0000           -0.3336220              -9.0783
       264                         -0.3219485              -8.7607
       265                         -0.3206954              -8.7266
       266                         -0.3145239              -8.5586
       267                         -0.2902079              -7.8970
       268                         -0.2880580              -7.8385
       269                         -0.2793289              -7.6009
       270                         -0.2669523              -7.2641
       271                         -0.2574558              -7.0057
       ...                                ...                  ...
       515                          1.1528271              31.3700
      -------------------------------------------------------------
                  HL-Gap            0.0090236 Eh            0.2455 eV
             Fermi-level           -0.3484779 Eh           -9.4826 eV

     #   Z          covCN         q      C6AA      α(0)
     1   6 C        2.907    -0.001    28.053     8.685
     2   6 C        3.005    -0.027    28.657     8.781
     3   6 C        2.870     0.240    23.001     7.862
     4   8 O        0.856    -0.385    21.387     6.200
     5   6 C        3.042    -0.015    28.352     8.733
     6   6 C        2.912    -0.032    28.788     8.798
     7   6 C        2.782     0.170    24.327     8.079
     8   9 F        0.787    -0.201    11.245     3.961
     9   6 C        2.782     0.173    24.269     8.069
    10   9 F        0.787    -0.199    11.220     3.957
    11   6 C        2.913    -0.043    29.078     8.842
    12   6 C        3.037     0.014    27.673     8.628
    13   6 C        3.016     0.045    26.969     8.519
    14   6 C        2.947     0.022    27.509     8.602
    15   6 C        1.932     0.133    27.839     8.521
    16   7 N        0.911    -0.245    26.383     7.429
    17   6 C        1.932     0.136    27.768     8.510
    18   7 N        0.911    -0.252    26.562     7.454
    19   6 C        2.972     0.021    27.524     8.606
    20   6 C        2.917    -0.012    28.306     8.724
    21   6 C        3.047    -0.019    28.436     8.746
    22   6 C        2.865     0.242    22.962     7.855
    23   8 O        0.856    -0.396    21.606     6.232
    24   6 C        3.047    -0.023    28.531     8.761
    25   6 C        3.041     0.010    27.762     8.642
    26   6 C        3.040     0.027    27.372     8.581
    27   6 C        2.911    -0.019    28.478     8.751
    28   6 C        2.928    -0.014    28.353     8.732
    29   6 C        2.912    -0.025    28.618     8.772
    30   6 C        2.926    -0.027    28.673     8.781
    31   6 C        2.999     0.017    27.619     8.621
    32   6 C        2.919    -0.018    28.454     8.747
    33   6 C        3.003    -0.007    28.185     8.709
    34   6 C        3.054     0.047    26.890     8.504
    35   7 N        2.748    -0.066    22.510     7.046
    36   6 C        2.922     0.059    26.671     8.469
    37   6 C        2.922    -0.048    29.183     8.859
    38   6 C        2.984    -0.041    29.008     8.835
    39   6 C        2.966     0.042    27.056     8.532
    40  16 S        2.033    -0.192   149.206    20.559
    41   6 C        3.745    -0.049    21.523     6.618
    42   6 C        2.942    -0.044    29.085     8.845
    43   6 C        2.924    -0.045    29.120     8.849
    44   6 C        2.928     0.059    26.676     8.470
    45   6 C        2.922    -0.043    29.069     8.842
    46   6 C        2.985    -0.038    28.938     8.824
    47   6 C        2.966     0.048    26.918     8.510
    48  16 S        2.035    -0.183   148.803    20.531
    49   6 C        3.744    -0.051    21.561     6.624
    50   6 C        2.942    -0.044    29.092     8.846
    51   6 C        2.923    -0.046    29.140     8.853
    52   6 C        3.179     0.000    27.598     8.577
    53  16 S        2.255    -0.056   143.367    20.152
    54   6 C        3.005    -0.005    28.134     8.701
    55   6 C        3.058     0.045    26.924     8.509
    56   7 N        2.748    -0.066    22.521     7.048
    57   6 C        2.925     0.057    26.722     8.477
    58   6 C        2.923    -0.046    29.139     8.852
    59   6 C        2.987    -0.039    28.961     8.828
    60   6 C        2.966     0.045    26.991     8.522
    61  16 S        2.036    -0.190   149.109    20.552
    62   6 C        3.745    -0.052    21.581     6.627
    63   6 C        2.942    -0.046    29.154     8.856
    64   6 C        2.923    -0.048    29.204     8.862
    65   6 C        2.924     0.059    26.674     8.470
    66   6 C        2.922    -0.046    29.141     8.852
    67   6 C        2.984    -0.039    28.957     8.827
    68   6 C        2.966     0.046    26.956     8.516
    69  16 S        2.034    -0.187   148.981    20.543
    70   6 C        3.744    -0.050    21.551     6.622
    71   6 C        2.943    -0.044    29.097     8.847
    72   6 C        2.924    -0.048    29.201     8.862
    73   6 C        3.174     0.001    27.601     8.580
    74  16 S        2.253    -0.063   143.679    20.174
    75   6 C        3.002     0.016    27.651     8.626
    76   6 C        2.917    -0.016    28.419     8.742
    77   6 C        3.045    -0.020    28.466     8.751
    78   6 C        2.865     0.245    22.902     7.844
    79   8 O        0.856    -0.381    21.302     6.188
    80   6 C        3.043    -0.015    28.349     8.733
    81   6 C        3.041     0.021    27.492     8.600
    82   6 C        3.041     0.009    27.778     8.645
    83   6 C        2.912    -0.027    28.682     8.782
    84   6 C        2.928    -0.028    28.709     8.787
    85   6 C        2.911    -0.027    28.666     8.779
    86   6 C        2.928    -0.021    28.527     8.759
    87   6 C        2.974     0.028    27.375     8.582
    88   6 C        2.916     0.005    27.907     8.663
    89   6 C        2.905    -0.001    28.048     8.684
    90   6 C        3.001    -0.026    28.627     8.777
    91   6 C        2.858     0.239    23.016     7.863
    92   8 O        0.856    -0.401    21.709     6.247
    93   6 C        3.033    -0.018    28.437     8.747
    94   6 C        2.913    -0.014    28.358     8.732
    95   6 C        2.987     0.018    27.600     8.618
    96   6 C        2.922    -0.028    28.699     8.785
    97   6 C        2.913    -0.041    29.006     8.831
    98   6 C        2.782     0.181    24.113     8.043
    99   9 F        0.787    -0.235    11.601     4.023
   100   6 C        2.917    -0.051    29.255     8.870
   101   6 C        2.990     0.025    27.448     8.594
   102   6 C        2.915    -0.028    28.709     8.786
   103   6 C        3.021     0.009    27.791     8.647
   104   6 C        3.011     0.039    27.104     8.540
   105   6 C        2.947     0.012    27.736     8.638
   106   6 C        1.939     0.132    27.860     8.524
   107   7 N        0.911    -0.261    26.777     7.484
   108   6 C        1.941     0.134    27.806     8.516
   109   7 N        0.911    -0.259    26.710     7.475
   110   1 H        0.925     0.089     1.887     2.148
   111   1 H        0.926     0.104     1.753     2.070
   112   1 H        0.926     0.099     1.797     2.096
   113   1 H        0.926     0.048     2.344     2.394
   114   1 H        0.926     0.064     2.155     2.296
   115   1 H        0.926     0.065     2.140     2.288
   116   1 H        0.926     0.058     2.225     2.333
   117   1 H        0.926     0.057     2.229     2.335
   118   1 H        0.926     0.058     2.227     2.334
   119   1 H        0.926     0.042     2.422     2.434
   120   1 H        0.926     0.049     2.335     2.390
   121   1 H        0.925     0.068     2.109     2.271
   122   1 H        0.925     0.056     2.248     2.345
   123   1 H        0.925     0.065     2.137     2.286
   124   1 H        0.926     0.045     2.382     2.413
   125   1 H        0.926     0.048     2.348     2.396
   126   1 H        0.926     0.040     2.452     2.448
   127   1 H        0.926     0.050     2.325     2.384
   128   1 H        0.925     0.062     2.179     2.308
   129   1 H        0.925     0.070     2.091     2.261
   130   1 H        0.925     0.063     2.159     2.298
   131   1 H        0.926     0.047     2.362     2.403
   132   1 H        0.926     0.041     2.429     2.437
   133   1 H        0.926     0.042     2.425     2.435
   134   1 H        0.926     0.048     2.349     2.397
   135   1 H        0.925     0.071     2.073     2.252
   136   1 H        0.925     0.066     2.131     2.283
   137   1 H        0.925     0.062     2.175     2.306
   138   1 H        0.926     0.048     2.346     2.395
   139   1 H        0.926     0.044     2.394     2.419
   140   1 H        0.926     0.044     2.402     2.424
   141   1 H        0.926     0.049     2.328     2.386
   142   1 H        0.925     0.063     2.163     2.300
   143   1 H        0.925     0.069     2.096     2.264
   144   1 H        0.925     0.061     2.192     2.315
   145   1 H        0.926     0.045     2.381     2.413
   146   1 H        0.926     0.036     2.499     2.472
   147   1 H        0.926     0.062     2.177     2.307
   148   1 H        0.926     0.050     2.323     2.383
   149   1 H        0.926     0.049     2.335     2.390
   150   1 H        0.926     0.050     2.315     2.380
   151   1 H        0.926     0.055     2.252     2.347
   152   1 H        0.926     0.070     2.086     2.258
   153   1 H        0.925     0.074     2.037     2.232
   154   1 H        0.926     0.071     2.080     2.255
   155   1 H        0.926     0.066     2.126     2.280
   156   1 H        0.926     0.073     2.048     2.238
   157   1 H        0.926     0.076     2.018     2.222
   158   1 H        0.926     0.067     2.121     2.278

 Mol. C6AA /au·bohr⁶  :     455697.771373
 Mol. C8AA /au·bohr⁸  :   12680423.003581
 Mol. α(0) /au        :       1086.267421


Wiberg/Mayer (AO) data.
largest (>0.10) Wiberg bond orders for each atom

 ---------------------------------------------------------------------------
     #   Z sym  total        # sym  WBO       # sym  WBO       # sym  WBO
 ---------------------------------------------------------------------------
     1   6 C    3.935 --     2 C    1.613    19 C    1.150   110 H    0.948
     2   6 C    3.970 --     1 C    1.613    13 C    1.116     3 C    1.010
     3   6 C    3.920 --     4 O    1.772     5 C    1.019     2 C    1.010
     4   8 O    2.048 --     3 C    1.772
     5   6 C    3.975 --     6 C    1.413    12 C    1.296     3 C    1.019
     6   6 C    3.977 --     5 C    1.413     7 C    1.390   111 H    0.957
     7   6 C    3.874 --     6 C    1.390     9 C    1.330     8 F    0.979
     8   9 F    1.113 --     7 C    0.979
     9   6 C    3.883 --    11 C    1.394     7 C    1.330    10 F    0.982
    10   9 F    1.119 --     9 C    0.982
    11   6 C    3.970 --    12 C    1.398     9 C    1.394   112 H    0.954
    12   6 C    3.984 --    11 C    1.398     5 C    1.296    13 C    1.082
    13   6 C    3.970 --    14 C    1.502     2 C    1.116    12 C    1.082
    14   6 C    3.970 --    13 C    1.502    17 C    1.094    15 C    1.094
    15   6 C    3.945 --    16 N    2.770    14 C    1.094
    16   7 N    2.971 --    15 C    2.770
    17   6 C    3.944 --    18 N    2.768    14 C    1.094
    18   7 N    2.976 --    17 C    2.768
    19   6 C    3.964 --    28 C    1.353    20 C    1.308     1 C    1.150
    20   6 C    3.980 --    21 C    1.475    19 C    1.308   113 H    0.964
    21   6 C    3.982 --    20 C    1.475    26 C    1.273    22 C    1.007
    22   6 C    3.917 --    23 O    1.782    24 C    1.014    21 C    1.007
    23   8 O    2.051 --    22 C    1.782
    24   6 C    3.978 --    32 C    1.461    25 C    1.274    22 C    1.014
    25   6 C    3.966 --    29 C    1.411    24 C    1.274    26 C    1.078
    26   6 C    3.967 --    27 C    1.403    21 C    1.273    25 C    1.078
    27   6 C    3.970 --    28 C    1.444    26 C    1.403   114 H    0.965
    28   6 C    3.971 --    27 C    1.444    19 C    1.353   115 H    0.967
    29   6 C    3.970 --    30 C    1.428    25 C    1.411   116 H    0.966
    30   6 C    3.973 --    29 C    1.428    31 C    1.383   117 H    0.965
    31   6 C    3.957 --    30 C    1.383    32 C    1.313    33 C    1.105
    32   6 C    3.978 --    24 C    1.461    31 C    1.313   118 H    0.964
    33   6 C    3.906 --    34 C    1.436    31 C    1.105    74 S    1.096
    34   6 C    3.953 --    33 C    1.436    52 C    1.207    35 N    1.090
    35   7 N    3.492 --    34 C    1.090    36 C    1.056    44 C    1.046
    36   6 C    3.965 --    43 C    1.368    37 C    1.344    35 N    1.056
    37   6 C    3.986 --    38 C    1.482    36 C    1.344   119 H    0.966
    38   6 C    3.989 --    37 C    1.482    39 C    1.362   120 H    0.967
    39   6 C    3.955 --    42 C    1.389    38 C    1.362    40 S    1.043
    40  16 S    2.246 --    39 C    1.043    41 C    1.009
    41   6 C    3.974 --    40 S    1.009   123 H    0.981   122 H    0.979
                           121 H    0.978
    42   6 C    3.989 --    43 C    1.449    39 C    1.389   124 H    0.964
    43   6 C    3.984 --    42 C    1.449    36 C    1.368   125 H    0.965
    44   6 C    3.961 --    51 C    1.370    45 C    1.352    35 N    1.046
    45   6 C    3.984 --    46 C    1.473    44 C    1.352   126 H    0.966
    46   6 C    3.989 --    45 C    1.473    47 C    1.368   127 H    0.967
                            51 C    0.102
    47   6 C    3.952 --    50 C    1.384    46 C    1.368    48 S    1.050
    48  16 S    2.252 --    47 C    1.050    49 C    1.009
    49   6 C    3.973 --    48 S    1.009   128 H    0.981   130 H    0.981
                           129 H    0.977
    50   6 C    3.988 --    51 C    1.454    47 C    1.384   131 H    0.964
    51   6 C    3.983 --    50 C    1.454    44 C    1.370   132 H    0.966
                            46 C    0.102
    52   6 C    3.934 --    73 C    1.389    34 C    1.207    53 S    1.114
    53  16 S    2.551 --    52 C    1.114    54 C    1.105
    54   6 C    3.907 --    55 C    1.445    53 S    1.105    75 C    1.089
    55   6 C    3.954 --    54 C    1.445    73 C    1.207    56 N    1.083
    56   7 N    3.489 --    55 C    1.083    65 C    1.060    57 C    1.048
    57   6 C    3.964 --    64 C    1.373    58 C    1.348    56 N    1.048
    58   6 C    3.986 --    59 C    1.484    57 C    1.348   133 H    0.967
    59   6 C    3.989 --    58 C    1.484    60 C    1.360   134 H    0.967
    60   6 C    3.956 --    63 C    1.390    59 C    1.360    61 S    1.049
    61  16 S    2.253 --    60 C    1.049    62 C    1.009
    62   6 C    3.972 --    61 S    1.009   136 H    0.980   137 H    0.979
                           135 H    0.977
    63   6 C    3.988 --    64 C    1.445    60 C    1.390   138 H    0.964
    64   6 C    3.983 --    63 C    1.445    57 C    1.373   139 H    0.966
    65   6 C    3.962 --    72 C    1.366    66 C    1.345    56 N    1.060
    66   6 C    3.983 --    67 C    1.483    65 C    1.345   140 H    0.966
    67   6 C    3.989 --    66 C    1.483    68 C    1.362   141 H    0.967
    68   6 C    3.950 --    71 C    1.391    67 C    1.362    69 S    1.047
    69  16 S    2.245 --    68 C    1.047    70 C    1.009
    70   6 C    3.973 --    69 S    1.009   144 H    0.981   142 H    0.981
                           143 H    0.977
    71   6 C    3.988 --    72 C    1.447    68 C    1.391   145 H    0.964
    72   6 C    3.983 --    71 C    1.447    65 C    1.366   146 H    0.966
    73   6 C    3.934 --    52 C    1.389    55 C    1.207    74 S    1.113
    74  16 S    2.536 --    73 C    1.113    33 C    1.096
    75   6 C    3.959 --    84 C    1.374    76 C    1.340    54 C    1.089
    76   6 C    3.978 --    77 C    1.457    75 C    1.340   147 H    0.963
    77   6 C    3.978 --    76 C    1.457    82 C    1.284    78 C    1.007
    78   6 C    3.916 --    79 O    1.799    77 C    1.007    80 C    1.005
    79   8 O    2.063 --    78 C    1.799
    80   6 C    3.982 --    88 C    1.469    81 C    1.280    78 C    1.005
    81   6 C    3.969 --    85 C    1.405    80 C    1.280    82 C    1.075
    82   6 C    3.969 --    83 C    1.411    77 C    1.284    81 C    1.075
    83   6 C    3.972 --    84 C    1.431    82 C    1.411   148 H    0.966
    84   6 C    3.977 --    83 C    1.431    75 C    1.374   149 H    0.968
    85   6 C    3.973 --    86 C    1.440    81 C    1.405   150 H    0.965
    86   6 C    3.969 --    85 C    1.440    87 C    1.362   151 H    0.968
    87   6 C    3.965 --    86 C    1.362    88 C    1.313    89 C    1.138
    88   6 C    3.968 --    80 C    1.469    87 C    1.313   152 H    0.963
    89   6 C    3.942 --    90 C    1.623    87 C    1.138   153 H    0.943
    90   6 C    3.971 --    89 C    1.623   104 C    1.119    91 C    1.012
    91   6 C    3.916 --    92 O    1.758    93 C    1.030    90 C    1.012
    92   8 O    2.038 --    91 C    1.758
    93   6 C    3.978 --    94 C    1.515   103 C    1.199    91 C    1.030
    94   6 C    3.979 --    93 C    1.515    95 C    1.276   154 H    0.962
    95   6 C    3.979 --    96 C    1.285    94 C    1.276   101 C    1.238
    96   6 C    3.980 --    97 C    1.548    95 C    1.285   155 H    0.965
                           100 C    0.111
    97   6 C    3.973 --    96 C    1.548    98 C    1.291   156 H    0.965
    98   6 C    3.871 --   100 C    1.494    97 C    1.291    99 F    0.954
    99   9 F    1.080 --    98 C    0.954
   100   6 C    3.976 --    98 C    1.494   101 C    1.288   157 H    0.962
                            96 C    0.111
   101   6 C    3.984 --   100 C    1.288   102 C    1.277    95 C    1.238
   102   6 C    3.971 --   103 C    1.496   101 C    1.277   158 H    0.957
   103   6 C    3.986 --   102 C    1.496    93 C    1.199   104 C    1.095
   104   6 C    3.974 --   105 C    1.494    90 C    1.119   103 C    1.095
   105   6 C    3.947 --   104 C    1.494   106 C    1.097   108 C    1.096
   106   6 C    3.944 --   107 N    2.756   105 C    1.097
   107   7 N    2.966 --   106 C    2.756
   108   6 C    3.944 --   109 N    2.762   105 C    1.096
   109   7 N    2.970 --   108 C    2.762
   110   1 H    0.990 --     1 C    0.948
   111   1 H    0.989 --     6 C    0.957
   112   1 H    0.990 --    11 C    0.954
   113   1 H    0.997 --    20 C    0.964
   114   1 H    0.995 --    27 C    0.965
   115   1 H    0.995 --    28 C    0.967
   116   1 H    0.996 --    29 C    0.966
   117   1 H    0.996 --    30 C    0.965
   118   1 H    0.996 --    32 C    0.964
   119   1 H    0.998 --    37 C    0.966
   120   1 H    0.997 --    38 C    0.967
   121   1 H    0.995 --    41 C    0.978
   122   1 H    0.997 --    41 C    0.979
   123   1 H    0.995 --    41 C    0.981
   124   1 H    0.998 --    42 C    0.964
   125   1 H    0.998 --    43 C    0.965
   126   1 H    0.998 --    45 C    0.966
   127   1 H    0.997 --    46 C    0.967
   128   1 H    0.996 --    49 C    0.981
   129   1 H    0.995 --    49 C    0.977
   130   1 H    0.996 --    49 C    0.981
   131   1 H    0.997 --    50 C    0.964
   132   1 H    0.998 --    51 C    0.966
   133   1 H    0.998 --    58 C    0.967
   134   1 H    0.997 --    59 C    0.967
   135   1 H    0.995 --    62 C    0.977
   136   1 H    0.995 --    62 C    0.980
   137   1 H    0.996 --    62 C    0.979
   138   1 H    0.997 --    63 C    0.964
   139   1 H    0.998 --    64 C    0.966
   140   1 H    0.998 --    66 C    0.966
   141   1 H    0.997 --    67 C    0.967
   142   1 H    0.996 --    70 C    0.981
   143   1 H    0.995 --    70 C    0.977
   144   1 H    0.996 --    70 C    0.981
   145   1 H    0.997 --    71 C    0.964
   146   1 H    0.999 --    72 C    0.966
   147   1 H    0.996 --    76 C    0.963
   148   1 H    0.996 --    83 C    0.966
   149   1 H    0.997 --    84 C    0.968
   150   1 H    0.996 --    85 C    0.965
   151   1 H    0.996 --    86 C    0.968
   152   1 H    0.995 --    88 C    0.963
   153   1 H    0.992 --    89 C    0.943
   154   1 H    0.994 --    94 C    0.962
   155   1 H    0.995 --    96 C    0.965
   156   1 H    0.994 --    97 C    0.965
   157   1 H    0.994 --   100 C    0.962
   158   1 H    0.995 --   102 C    0.957
 ---------------------------------------------------------------------------

Topologies differ in bond orders
Writing corrected topology to xtbtopo.mol

molecular dipole:
                 x           y           z       tot (Debye)
 q only:        1.119      -0.607       0.448
   full:        0.078      -0.443      -0.122       1.184
molecular quadrupole (traceless):
                xx          xy          yy          xz          yz          zz
 q only:       97.184      13.722      67.212     -40.241     101.433    -164.396
  q+dip:       97.390      -2.088      78.067     -34.953      93.778    -175.457
   full:       95.738       0.130      79.021     -39.412      98.060    -174.759


           -------------------------------------------------
          | TOTAL ENERGY             -285.155046342502 Eh   |
          | GRADIENT NORM               0.027197808029 Eh/α |
          | HOMO-LUMO GAP               0.245543923366 eV   |
           -------------------------------------------------

------------------------------------------------------------------------
 * finished run on 2022/02/11 at 07:52:29.620     
------------------------------------------------------------------------
 total:
 * wall-time:     0 d,  0 h,  0 min,  0.817 sec
 *  cpu-time:     0 d,  0 h,  0 min,  6.431 sec
 * ratio c/w:     7.868 speedup
 SCF:
 * wall-time:     0 d,  0 h,  0 min,  0.741 sec
 *  cpu-time:     0 d,  0 h,  0 min,  5.908 sec
 * ratio c/w:     7.976 speedup

