      -----------------------------------------------------------      
     |                   =====================                   |     
     |                           x T B                           |     
     |                   =====================                   |     
     |                         S. Grimme                         |     
     |          Mulliken Center for Theoretical Chemistry        |     
     |                    University of Bonn                     |     
      -----------------------------------------------------------      

   * xtb version 6.4.1 (unknown) compiled by 'oda6@login1.crc.pitt.edu' on 2021-06-25

   xtb is free software: you can redistribute it and/or modify it under
   the terms of the GNU Lesser General Public License as published by
   the Free Software Foundation, either version 3 of the License, or
   (at your option) any later version.
   
   xtb is distributed in the hope that it will be useful,
   but WITHOUT ANY WARRANTY; without even the implied warranty of
   MERCHANTABILITY or FITNESS FOR A PARTICULAR PURPOSE.  See the
   GNU Lesser General Public License for more details.
   
   Cite this work as:
   * C. Bannwarth, E. Caldeweyher, S. Ehlert, A. Hansen, P. Pracht,
     J. Seibert, S. Spicher, S. Grimme, WIREs Comput. Mol. Sci., 2020, 11,
     e01493. DOI: 10.1002/wcms.1493
   
   for GFN2-xTB:
   * C. Bannwarth, S. Ehlert and S. Grimme., J. Chem. Theory Comput., 2019,
     15, 1652-1671. DOI: 10.1021/acs.jctc.8b01176
   for GFN1-xTB:
   * S. Grimme, C. Bannwarth, P. Shushkov, J. Chem. Theory Comput., 2017,
     13, 1989-2009. DOI: 10.1021/acs.jctc.7b00118
   for GFN0-xTB:
   * P. Pracht, E. Caldeweyher, S. Ehlert, S. Grimme, ChemRxiv, 2019, preprint.
     DOI: 10.26434/chemrxiv.8326202.v1
   for GFN-FF:
   * S. Spicher and S. Grimme, Angew. Chem. Int. Ed., 2020, 59, 15665-15673.
     DOI: 10.1002/anie.202004239
   
   for DFT-D4:
   * E. Caldeweyher, C. Bannwarth and S. Grimme, J. Chem. Phys., 2017,
     147, 034112. DOI: 10.1063/1.4993215
   * E. Caldeweyher, S. Ehlert, A. Hansen, H. Neugebauer, S. Spicher,
     C. Bannwarth and S. Grimme, J. Chem. Phys., 2019, 150, 154122.
     DOI: 10.1063/1.5090222
   * E. Caldeweyher, J.-M. Mewes, S. Ehlert and S. Grimme, Phys. Chem. Chem. Phys.
     2020, 22, 8499-8512. DOI: 10.1039/D0CP00502A
   
   for sTDA-xTB:
   * S. Grimme and C. Bannwarth, J. Chem. Phys., 2016, 145, 054103.
     DOI: 10.1063/1.4959605
   
   in the mass-spec context:
   * V. Asgeirsson, C. Bauer and S. Grimme, Chem. Sci., 2017, 8, 4879.
     DOI: 10.1039/c7sc00601b
   * J. Koopman and S. Grimme, ACS Omega 2019, 4, 12, 15120-15133.
     DOI: 10.1021/acsomega.9b02011
   
   for metadynamics refer to:
   * S. Grimme, J. Chem. Theory Comput., 2019, 155, 2847-2862
     DOI: 10.1021/acs.jctc.9b00143
   
   for SPH calculations refer to:
   * S. Spicher and S. Grimme, J. Chem. Theory Comput., 2021, 17, 1701-1714
     DOI: 10.1021/acs.jctc.0c01306
   
   with help from (in alphabetical order)
   P. Atkinson, C. Bannwarth, F. Bohle, G. Brandenburg, E. Caldeweyher
   M. Checinski, S. Dohm, S. Ehlert, S. Ehrlich, I. Gerasimov, J. Koopman
   C. Lavigne, S. Lehtola, F. März, M. Müller, F. Musil, H. Neugebauer
   J. Pisarek, C. Plett, P. Pracht, J. Seibert, P. Shushkov, S. Spicher
   M. Stahn, M. Steiner, T. Strunk, J. Stückrath, T. Rose, and J. Unsleber
   
 * started run on 2022/02/09 at 06:24:14.319     

           -------------------------------------------------
          |                Calculation Setup                |
           -------------------------------------------------

          program call               : /ihome/ghutchison/oda6/xtb/xtb-641/bin/xtb ../../GFN2_output/21_127_130_130_21.mol --sp --alpb hexane
          hostname                   : smp-n26
          coordinate file            : ../../GFN2_output/21_127_130_130_21.mol
          omp threads                :                     8
          number of atoms            :                   238
          number of electrons        :                   704
          charge                     :                     0
          spin                       :                   0.0
          first test random number   :      0.79226034895616

   ID    Z sym.   atoms
    1    6 C      1, 2, 4, 6, 7, 10-12, 14-21, 23, 25, 26, 28-31, 33-37,
                  39-42, 44-50, 52-55, 57, 58, 60-63, 65-71, 73-76, 78, 79,
                  81-84, 86-92, 94-97, 99, 100, 102-105, 107-113, 115-118,
                  120-125, 128-130, 133, 135-138
    2    7 N      3, 9, 27, 32, 38, 59, 80, 101, 127, 132
    3    8 O      5, 8, 126, 134
    4   16 S      13, 43, 51, 56, 64, 72, 77, 85, 93, 98, 106, 114, 119, 131
    5    9 F      22, 24
    6    1 H      139-238

           -------------------------------------------------
          |                 G F N 2 - x T B                 |
           -------------------------------------------------

        Reference                      10.1021/acs.jctc.8b01176
      * Hamiltonian:
        H0-scaling (s, p, d)           1.850000    2.230000    2.230000
        zeta-weighting                 0.500000
      * Dispersion:
        s8                             2.700000
        a1                             0.520000
        a2                             5.000000
        s9                             5.000000
      * Repulsion:
        kExp                           1.500000    1.000000
        rExp                           1.000000
      * Coulomb:
        alpha                          2.000000
        third order                    shell-resolved
        anisotropic                    true
        a3                             3.000000
        a5                             4.000000
        cn-shift                       1.200000
        cn-exp                         4.000000
        max-rad                        5.000000

      * Solvation model:               ALPB
        Solvent                        hexane
        Parameter file                 internal GFN2-xTB/ALPB
        Dielectric constant                1.8800E+00
        Reference state                gsolv [1 M gas/solution]
        Free energy shift                  4.8134E-03 Eh       3.0204E+00 kcal/mol
        Temperature                        2.9815E+02 K
        Density                            6.6000E-01 kg/L
        Solvent mass                       8.6180E+01 g/mol
        Interaction kernel             P16
        Born radius scaling (c1)           1.1040E+00
        Born radii integrator          GBOBC
        Born offset                        0.0000E+00 a0       0.0000E+00 AA
        H-bond correction              false
        Ion screening                  false
        Surface tension                    1.0000E-05 Eh       1.5569E+01 dyn/cm
        Grid points                               230 per atom

          ...................................................
          :                      SETUP                      :
          :.................................................:
          :  # basis functions                 736          :
          :  # atomic orbitals                 722          :
          :  # shells                          390          :
          :  # electrons                       704          :
          :  max. iterations                   250          :
          :  Hamiltonian                  GFN2-xTB          :
          :  restarted?                      false          :
          :  GBSA solvation                   true          :
          :  PC potential                    false          :
          :  electronic temp.          300.0000000     K    :
          :  accuracy                    1.0000000          :
          :  -> integral cutoff          0.2500000E+02      :
          :  -> integral neglect         0.1000000E-07      :
          :  -> SCF convergence          0.1000000E-05 Eh   :
          :  -> wf. convergence          0.1000000E-03 e    :
          :  Broyden damping             0.4000000          :
          ...................................................

 iter      E             dE          RMSdq      gap      omega  full diag
   1   -388.0813274 -0.388081E+03  0.452E+00    0.98       0.0  T
   2   -388.5469745 -0.465647E+00  0.249E+00    0.50       1.0  T
   3   -388.5227416  0.242328E-01  0.118E+00    0.91       1.0  T
   4   -388.5832409 -0.604993E-01  0.457E-01    0.56       1.0  T
   5   -388.6052231 -0.219822E-01  0.207E-01    0.66       1.0  T
   6   -388.6085430 -0.331989E-02  0.924E-02    0.64       1.0  T
   7   -388.6094965 -0.953499E-03  0.281E-02    0.64       1.0  T
   8   -388.6095180 -0.215163E-04  0.158E-02    0.64       1.0  T
   9   -388.6095308 -0.127789E-04  0.882E-03    0.64       1.0  T
  10   -388.6095346 -0.382126E-05  0.347E-03    0.64       1.9  T
  11   -388.6095356 -0.963416E-06  0.160E-03    0.64       4.1  T
  12   -388.6095357 -0.118206E-06  0.954E-04    0.64       6.8  T
  13   -388.6095358 -0.562798E-07  0.356E-04    0.64      18.2  T

   *** convergence criteria satisfied after 13 iterations ***

         #    Occupation            Energy/Eh            Energy/eV
      -------------------------------------------------------------
         1        2.0000           -0.8474025             -23.0590
       ...           ...                  ...                  ...
       346        2.0000           -0.3666009              -9.9757
       347        2.0000           -0.3663079              -9.9677
       348        2.0000           -0.3652251              -9.9383
       349        2.0000           -0.3559708              -9.6865
       350        2.0000           -0.3525150              -9.5924
       351        2.0000           -0.3512884              -9.5590
       352        2.0000           -0.3476250              -9.4594 (HOMO)
       353        0.0000           -0.3239581              -8.8153 (LUMO)
       354                         -0.3192123              -8.6862
       355                         -0.3162617              -8.6059
       356                         -0.2884226              -7.8484
       357                         -0.2693943              -7.3306
       ...                                ...                  ...
       722                          0.6919458              18.8288
      -------------------------------------------------------------
                  HL-Gap            0.0236670 Eh            0.6440 eV
             Fermi-level           -0.3357822 Eh           -9.1371 eV

 SCC (total)                   0 d,  0 h,  0 min,  0.870 sec
 SCC setup                      ...        0 min,  0.010 sec (  1.142%)
 Dispersion                     ...        0 min,  0.011 sec (  1.248%)
 classical contributions        ...        0 min,  0.000 sec (  0.050%)
 integral evaluation            ...        0 min,  0.048 sec (  5.491%)
 iterations                     ...        0 min,  0.631 sec ( 72.548%)
 molecular gradient             ...        0 min,  0.165 sec ( 19.005%)
 printout                       ...        0 min,  0.004 sec (  0.506%)

         :::::::::::::::::::::::::::::::::::::::::::::::::::::
         ::                     SUMMARY                     ::
         :::::::::::::::::::::::::::::::::::::::::::::::::::::
         :: total energy            -383.085002352868 Eh    ::
         :: total w/o Gsasa/hb      -382.968351485423 Eh    ::
         :: gradient norm              0.027256504507 Eh/a0 ::
         :: HOMO-LUMO gap              0.644011089801 eV    ::
         ::.................................................::
         :: SCC energy              -388.609535768443 Eh    ::
         :: -> isotropic ES            0.251301974978 Eh    ::
         :: -> anisotropic ES          0.012230262827 Eh    ::
         :: -> anisotropic XC          0.177488683102 Eh    ::
         :: -> dispersion             -0.419432474395 Eh    ::
         :: -> Gsolv                  -0.152866774994 Eh    ::
         ::    -> Gelec               -0.036215907549 Eh    ::
         ::    -> Gsasa               -0.121464223265 Eh    ::
         ::    -> Ghb                  0.000000000000 Eh    ::
         ::    -> Gshift               0.004813355820 Eh    ::
         :: repulsion energy           5.506341460615 Eh    ::
         :: add. restraining           0.000000000000 Eh    ::
         :: total charge               0.000000000005 e     ::
         :::::::::::::::::::::::::::::::::::::::::::::::::::::

           -------------------------------------------------
          |                Property Printout                |
           -------------------------------------------------

    * Orbital Energies and Occupations

         #    Occupation            Energy/Eh            Energy/eV
      -------------------------------------------------------------
         1        2.0000           -0.8474025             -23.0590
       ...           ...                  ...                  ...
       340        2.0000           -0.3800047             -10.3405
       341        2.0000           -0.3742596             -10.1841
       342        2.0000           -0.3722869             -10.1304
       343        2.0000           -0.3714923             -10.1088
       344        2.0000           -0.3692232             -10.0471
       345        2.0000           -0.3674069              -9.9977
       346        2.0000           -0.3666009              -9.9757
       347        2.0000           -0.3663079              -9.9677
       348        2.0000           -0.3652251              -9.9383
       349        2.0000           -0.3559708              -9.6865
       350        2.0000           -0.3525150              -9.5924
       351        2.0000           -0.3512884              -9.5590
       352        2.0000           -0.3476250              -9.4594 (HOMO)
       353        0.0000           -0.3239581              -8.8153 (LUMO)
       354                         -0.3192123              -8.6862
       355                         -0.3162617              -8.6059
       356                         -0.2884226              -7.8484
       357                         -0.2693943              -7.3306
       358                         -0.2688230              -7.3150
       359                         -0.2680194              -7.2932
       360                         -0.2652290              -7.2172
       361                         -0.2504171              -6.8142
       362                         -0.2495433              -6.7904
       363                         -0.2476603              -6.7392
       ...                                ...                  ...
       722                          0.6919458              18.8288
      -------------------------------------------------------------
                  HL-Gap            0.0236670 Eh            0.6440 eV
             Fermi-level           -0.3357822 Eh           -9.1371 eV

     #   Z          covCN         q      C6AA      α(0)
     1   6 C        3.752    -0.108    22.620     6.782
     2   6 C        3.759     0.006    20.519     6.458
     3   7 N        2.805    -0.072    22.633     7.066
     4   6 C        2.773     0.278    22.303     7.735
     5   8 O        0.859    -0.452    22.753     6.395
     6   6 C        2.957    -0.080    30.001     8.984
     7   6 C        2.776     0.274    22.362     7.745
     8   8 O        0.859    -0.454    22.781     6.399
     9   7 N        2.805    -0.073    22.647     7.068
    10   6 C        3.758     0.006    20.521     6.458
    11   6 C        3.752    -0.107    22.613     6.781
    12   6 C        2.836     0.197    23.815     7.997
    13  16 S        1.111    -0.414   157.378    21.215
    14   6 C        2.960     0.071    26.403     8.428
    15   6 C        2.901    -0.041    29.022     8.833
    16   6 C        2.909     0.008    27.838     8.652
    17   6 C        3.866    -0.007    20.656     6.463
    18   6 C        3.816    -0.060    21.645     6.622
    19   6 C        3.812    -0.066    21.762     6.640
    20   6 C        2.975    -0.017    28.424     8.745
    21   6 C        2.781     0.146    24.814     8.159
    22   9 F        0.787    -0.223    11.476     4.002
    23   6 C        2.781     0.139    24.946     8.181
    24   9 F        0.786    -0.221    11.458     3.998
    25   6 C        3.005    -0.016    28.384     8.739
    26   6 C        2.970     0.069    26.456     8.437
    27   7 N        1.942    -0.224    26.723     7.665
    28   6 C        2.942     0.095    25.881     8.344
    29   6 C        3.809    -0.066    21.753     6.639
    30   6 C        3.754    -0.097    22.400     6.749
    31   6 C        2.941     0.096    25.868     8.342
    32   7 N        1.853    -0.237    27.057     7.709
    33   6 C        2.968     0.069    26.457     8.437
    34   6 C        3.810    -0.067    21.772     6.642
    35   6 C        3.754    -0.100    22.462     6.758
    36   6 C        3.004     0.000    28.009     8.681
    37   6 C        3.051     0.053    26.759     8.484
    38   7 N        2.748    -0.059    22.376     7.026
    39   6 C        2.924     0.060    26.657     8.467
    40   6 C        2.924    -0.044    29.084     8.844
    41   6 C        2.944    -0.042    29.054     8.840
    42   6 C        2.966     0.042    27.051     8.531
    43  16 S        2.030    -0.189   149.086    20.550
    44   6 C        3.744    -0.052    21.583     6.627
    45   6 C        2.979    -0.043    29.063     8.843
    46   6 C        2.922    -0.051    29.273     8.873
    47   6 C        2.930     0.061    26.634     8.464
    48   6 C        2.922    -0.039    28.960     8.825
    49   6 C        2.986    -0.038    28.934     8.824
    50   6 C        2.966     0.048    26.920     8.510
    51  16 S        2.038    -0.188   149.018    20.546
    52   6 C        3.745    -0.048    21.508     6.616
    53   6 C        2.945    -0.043    29.068     8.843
    54   6 C        2.923    -0.042    29.055     8.840
    55   6 C        3.168    -0.000    27.666     8.594
    56  16 S        2.289    -0.077   144.254    20.215
    57   6 C        3.007    -0.001    28.034     8.685
    58   6 C        3.061     0.049    26.840     8.496
    59   7 N        2.748    -0.073    22.660     7.070
    60   6 C        2.930     0.060    26.646     8.465
    61   6 C        2.923    -0.048    29.195     8.861
    62   6 C        2.943    -0.044    29.085     8.845
    63   6 C        2.966     0.045    26.982     8.520
    64  16 S        2.031    -0.197   149.427    20.574
    65   6 C        3.744    -0.050    21.550     6.622
    66   6 C        2.981    -0.037    28.918     8.821
    67   6 C        2.925    -0.045    29.114     8.849
    68   6 C        2.926     0.062    26.621     8.461
    69   6 C        2.925    -0.046    29.137     8.852
    70   6 C        2.977    -0.038    28.935     8.824
    71   6 C        2.966     0.046    26.963     8.517
    72  16 S        2.030    -0.200   149.578    20.584
    73   6 C        3.744    -0.051    21.556     6.623
    74   6 C        2.946    -0.042    29.049     8.840
    75   6 C        2.924    -0.046    29.141     8.853
    76   6 C        3.182    -0.004    27.673     8.586
    77  16 S        2.340    -0.049   143.085    20.133
    78   6 C        3.040    -0.003    28.051     8.687
    79   6 C        3.075     0.046    26.899     8.503
    80   7 N        2.750    -0.070    22.603     7.061
    81   6 C        2.923     0.062    26.613     8.460
    82   6 C        2.924    -0.047    29.172     8.857
    83   6 C        2.979    -0.038    28.937     8.824
    84   6 C        2.966     0.049    26.899     8.507
    85  16 S        2.030    -0.202   149.661    20.590
    86   6 C        3.744    -0.049    21.526     6.619
    87   6 C        2.945    -0.040    28.986     8.830
    88   6 C        2.924    -0.048    29.204     8.862
    89   6 C        2.927     0.062    26.617     8.461
    90   6 C        2.923    -0.048    29.204     8.862
    91   6 C        2.966    -0.037    28.919     8.821
    92   6 C        2.966     0.044    27.012     8.525
    93  16 S        2.022    -0.206   149.811    20.600
    94   6 C        3.744    -0.042    21.407     6.600
    95   6 C        2.950    -0.038    28.956     8.826
    96   6 C        2.924    -0.050    29.247     8.869
    97   6 C        3.173    -0.001    27.659     8.590
    98  16 S        2.260    -0.063   143.652    20.172
    99   6 C        2.998    -0.006    28.165     8.706
   100   6 C        3.061     0.041    27.026     8.525
   101   7 N        2.748    -0.076    22.720     7.079
   102   6 C        2.925     0.062    26.614     8.460
   103   6 C        2.923    -0.045    29.111     8.848
   104   6 C        2.976    -0.035    28.867     8.813
   105   6 C        2.966     0.044    27.004     8.524
   106  16 S        2.026    -0.210   150.013    20.614
   107   6 C        3.745    -0.045    21.450     6.607
   108   6 C        2.944    -0.043    29.071     8.843
   109   6 C        2.924    -0.051    29.265     8.871
   110   6 C        2.923     0.060    26.665     8.468
   111   6 C        2.923    -0.048    29.202     8.862
   112   6 C        2.943    -0.041    29.028     8.836
   113   6 C        2.965     0.046    26.967     8.518
   114  16 S        2.030    -0.199   149.532    20.581
   115   6 C        3.744    -0.053    21.592     6.629
   116   6 C        2.980    -0.039    28.971     8.829
   117   6 C        2.921    -0.048    29.187     8.860
   118   6 C        3.181     0.000    27.583     8.573
   119  16 S        2.248    -0.073   144.069    20.202
   120   6 C        3.892    -0.015    20.796     6.483
   121   6 C        2.913    -0.005    28.153     8.701
   122   6 C        2.903    -0.038    28.946     8.822
   123   6 C        2.962     0.070    26.423     8.431
   124   6 C        2.957    -0.079    29.961     8.978
   125   6 C        2.774     0.278    22.306     7.735
   126   8 O        0.859    -0.448    22.672     6.384
   127   7 N        2.804    -0.071    22.610     7.062
   128   6 C        3.759     0.007    20.516     6.458
   129   6 C        3.752    -0.108    22.617     6.782
   130   6 C        2.836     0.196    23.827     7.999
   131  16 S        1.112    -0.404   156.931    21.184
   132   7 N        2.806    -0.070    22.593     7.060
   133   6 C        2.776     0.275    22.354     7.744
   134   8 O        0.859    -0.461    22.937     6.421
   135   6 C        3.759     0.007    20.509     6.456
   136   6 C        3.752    -0.108    22.623     6.783
   137   6 C        3.814    -0.063    21.707     6.631
   138   6 C        3.820    -0.060    21.635     6.620
   139   1 H        0.925     0.047     2.354     2.399
   140   1 H        0.925     0.058     2.228     2.334
   141   1 H        0.925     0.054     2.266     2.354
   142   1 H        0.924     0.080     1.981     2.201
   143   1 H        0.924     0.074     2.040     2.233
   144   1 H        0.924     0.078     2.004     2.214
   145   1 H        0.924     0.076     2.017     2.221
   146   1 H        0.925     0.052     2.299     2.371
   147   1 H        0.925     0.058     2.224     2.332
   148   1 H        0.925     0.049     2.327     2.385
   149   1 H        0.926     0.085     1.929     2.172
   150   1 H        0.926     0.061     2.186     2.312
   151   1 H        0.924     0.080     1.983     2.202
   152   1 H        0.925     0.057     2.231     2.336
   153   1 H        0.924     0.055     2.253     2.347
   154   1 H        0.924     0.086     1.918     2.166
   155   1 H        0.924     0.090     1.884     2.146
   156   1 H        0.924     0.056     2.246     2.344
   157   1 H        0.924     0.064     2.149     2.292
   158   1 H        0.925     0.049     2.335     2.390
   159   1 H        0.925     0.039     2.456     2.451
   160   1 H        0.925     0.045     2.385     2.415
   161   1 H        0.924     0.065     2.137     2.286
   162   1 H        0.925     0.057     2.236     2.338
   163   1 H        0.925     0.039     2.463     2.454
   164   1 H        0.925     0.050     2.318     2.381
   165   1 H        0.925     0.044     2.402     2.424
   166   1 H        0.926     0.047     2.362     2.404
   167   1 H        0.926     0.050     2.325     2.385
   168   1 H        0.925     0.073     2.054     2.241
   169   1 H        0.925     0.060     2.204     2.322
   170   1 H        0.925     0.066     2.129     2.282
   171   1 H        0.926     0.045     2.378     2.412
   172   1 H        0.926     0.038     2.479     2.462
   173   1 H        0.926     0.049     2.331     2.387
   174   1 H        0.926     0.049     2.338     2.391
   175   1 H        0.925     0.063     2.170     2.303
   176   1 H        0.925     0.078     2.005     2.214
   177   1 H        0.925     0.058     2.220     2.330
   178   1 H        0.926     0.048     2.343     2.394
   179   1 H        0.926     0.043     2.407     2.426
   180   1 H        0.926     0.039     2.463     2.454
   181   1 H        0.926     0.044     2.396     2.421
   182   1 H        0.925     0.058     2.220     2.330
   183   1 H        0.925     0.067     2.114     2.274
   184   1 H        0.925     0.062     2.177     2.307
   185   1 H        0.926     0.055     2.253     2.347
   186   1 H        0.926     0.042     2.428     2.437
   187   1 H        0.926     0.035     2.510     2.477
   188   1 H        0.926     0.049     2.334     2.389
   189   1 H        0.925     0.060     2.196     2.318
   190   1 H        0.925     0.067     2.116     2.275
   191   1 H        0.925     0.068     2.107     2.270
   192   1 H        0.926     0.053     2.277     2.360
   193   1 H        0.926     0.041     2.441     2.443
   194   1 H        0.926     0.033     2.540     2.492
   195   1 H        0.926     0.043     2.413     2.429
   196   1 H        0.925     0.057     2.234     2.337
   197   1 H        0.925     0.069     2.096     2.264
   198   1 H        0.925     0.065     2.140     2.288
   199   1 H        0.926     0.046     2.373     2.409
   200   1 H        0.926     0.040     2.444     2.445
   201   1 H        0.926     0.035     2.514     2.479
   202   1 H        0.926     0.051     2.308     2.376
   203   1 H        0.925     0.053     2.277     2.360
   204   1 H        0.925     0.064     2.155     2.296
   205   1 H        0.925     0.055     2.261     2.351
   206   1 H        0.926     0.043     2.411     2.428
   207   1 H        0.926     0.051     2.305     2.374
   208   1 H        0.926     0.046     2.369     2.407
   209   1 H        0.926     0.051     2.302     2.373
   210   1 H        0.925     0.059     2.214     2.327
   211   1 H        0.925     0.065     2.139     2.287
   212   1 H        0.925     0.056     2.241     2.341
   213   1 H        0.926     0.040     2.447     2.446
   214   1 H        0.926     0.032     2.553     2.498
   215   1 H        0.926     0.039     2.466     2.456
   216   1 H        0.926     0.046     2.369     2.407
   217   1 H        0.925     0.079     1.989     2.206
   218   1 H        0.925     0.066     2.130     2.282
   219   1 H        0.925     0.057     2.234     2.337
   220   1 H        0.926     0.049     2.334     2.389
   221   1 H        0.926     0.042     2.423     2.434
   222   1 H        0.924     0.073     2.050     2.239
   223   1 H        0.926     0.063     2.161     2.299
   224   1 H        0.926     0.085     1.929     2.172
   225   1 H        0.924     0.077     2.009     2.217
   226   1 H        0.924     0.077     2.006     2.215
   227   1 H        0.925     0.050     2.316     2.380
   228   1 H        0.925     0.059     2.215     2.327
   229   1 H        0.925     0.052     2.290     2.367
   230   1 H        0.924     0.076     2.026     2.226
   231   1 H        0.924     0.079     1.990     2.206
   232   1 H        0.925     0.055     2.264     2.353
   233   1 H        0.925     0.048     2.347     2.396
   234   1 H        0.925     0.058     2.219     2.330
   235   1 H        0.924     0.090     1.884     2.146
   236   1 H        0.924     0.086     1.914     2.164
   237   1 H        0.925     0.054     2.266     2.354
   238   1 H        0.924     0.053     2.285     2.364

 Mol. C6AA /au·bohr⁶  :     891708.235494
 Mol. C8AA /au·bohr⁸  :   25130733.452480
 Mol. α(0) /au        :       1505.326921


Wiberg/Mayer (AO) data.
largest (>0.10) Wiberg bond orders for each atom

 ---------------------------------------------------------------------------
     #   Z sym  total        # sym  WBO       # sym  WBO       # sym  WBO
 ---------------------------------------------------------------------------
     1   6 C    3.990 --     2 C    1.009   139 H    0.987   141 H    0.985
                           140 H    0.982
     2   6 C    3.943 --     1 C    1.009   143 H    0.964   142 H    0.963
                             3 N    0.959
     3   7 N    3.589 --    12 C    1.200     4 C    1.105     2 C    0.959
                             5 O    0.126
     4   6 C    3.944 --     5 O    1.648     3 N    1.105     6 C    1.069
     5   8 O    2.003 --     4 C    1.648     3 N    0.126
     6   6 C    3.969 --    14 C    1.505     7 C    1.073     4 C    1.069
     7   6 C    3.945 --     8 O    1.647     9 N    1.106     6 C    1.073
     8   8 O    1.996 --     7 C    1.647     9 N    0.126
     9   7 N    3.588 --    12 C    1.198     7 C    1.106    10 C    0.959
                             8 O    0.126
    10   6 C    3.944 --    11 C    1.009   144 H    0.965   145 H    0.962
                             9 N    0.959
    11   6 C    3.990 --    10 C    1.009   148 H    0.986   146 H    0.985
                           147 H    0.982
    12   6 C    3.958 --    13 S    1.467     3 N    1.200     9 N    1.198
    13  16 S    1.819 --    12 C    1.467
    14   6 C    3.939 --     6 C    1.505    15 C    1.182    19 C    1.039
    15   6 C    3.981 --    16 C    1.737    14 C    1.182   149 H    0.947
    16   6 C    3.957 --    15 C    1.737    17 C    1.018   150 H    0.965
    17   6 C    3.992 --    16 C    1.018    20 C    0.999    18 C    0.965
                           151 H    0.929
    18   6 C    3.986 --    19 C    1.004   153 H    0.973   152 H    0.970
                            17 C    0.965
    19   6 C    3.989 --    14 C    1.039    18 C    1.004   154 H    0.945
                           155 H    0.927
    20   6 C    3.944 --    21 C    1.443    33 C    1.233    17 C    0.999
    21   6 C    3.875 --    20 C    1.443    23 C    1.286    22 F    0.956
    22   9 F    1.083 --    21 C    0.956
    23   6 C    3.861 --    25 C    1.377    21 C    1.286    24 F    0.957
    24   9 F    1.085 --    23 C    0.957
    25   6 C    3.974 --    23 C    1.377    26 C    1.193    36 C    1.157
    26   6 C    3.975 --    27 N    1.312    33 C    1.231    25 C    1.193
    27   7 N    3.142 --    28 C    1.500    26 C    1.312
    28   6 C    3.944 --    27 N    1.500    31 C    1.220    29 C    1.014
    29   6 C    3.991 --    28 C    1.014    30 C    0.991   157 H    0.970
                           156 H    0.966
    30   6 C    3.989 --    29 C    0.991   158 H    0.986   159 H    0.986
                           160 H    0.983
    31   6 C    3.959 --    32 N    1.516    28 C    1.220    34 C    1.012
    32   7 N    3.078 --    31 C    1.516    33 C    1.292
    33   6 C    3.981 --    32 N    1.292    20 C    1.233    26 C    1.231
    34   6 C    3.991 --    31 C    1.012    35 C    0.992   161 H    0.969
                           162 H    0.967
    35   6 C    3.990 --    34 C    0.992   165 H    0.988   163 H    0.987
                           164 H    0.984
    36   6 C    3.918 --    37 C    1.388    25 C    1.157    77 S    1.092
    37   6 C    3.954 --    36 C    1.388    55 C    1.219    38 N    1.111
    38   7 N    3.493 --    37 C    1.111    39 C    1.059    47 C    1.026
    39   6 C    3.963 --    40 C    1.365    46 C    1.348    38 N    1.059
    40   6 C    3.982 --    41 C    1.453    39 C    1.365   166 H    0.965
    41   6 C    3.989 --    40 C    1.453    42 C    1.389   167 H    0.964
    42   6 C    3.956 --    41 C    1.389    45 C    1.367    43 S    1.043
    43  16 S    2.245 --    42 C    1.043    44 C    1.007
    44   6 C    3.971 --    43 S    1.007   169 H    0.982   170 H    0.980
                           168 H    0.977
    45   6 C    3.989 --    46 C    1.478    42 C    1.367   171 H    0.968
    46   6 C    3.987 --    45 C    1.478    39 C    1.348   172 H    0.966
    47   6 C    3.962 --    54 C    1.376    48 C    1.364    38 N    1.026
    48   6 C    3.983 --    49 C    1.468    47 C    1.364   173 H    0.964
    49   6 C    3.989 --    48 C    1.468    50 C    1.370   174 H    0.965
                            54 C    0.103
    50   6 C    3.954 --    53 C    1.385    49 C    1.370    51 S    1.050
    51  16 S    2.256 --    50 C    1.050    52 C    1.008
    52   6 C    3.970 --    51 S    1.008   177 H    0.981   175 H    0.980
                           176 H    0.974
    53   6 C    3.988 --    54 C    1.453    50 C    1.385   178 H    0.964
    54   6 C    3.983 --    53 C    1.453    47 C    1.376   179 H    0.967
                            49 C    0.103
    55   6 C    3.934 --    76 C    1.382    37 C    1.219    56 S    1.106
    56  16 S    2.535 --    55 C    1.106    57 C    1.077
    57   6 C    3.905 --    58 C    1.448    78 C    1.136    56 S    1.077
    58   6 C    3.953 --    57 C    1.448    76 C    1.210    59 N    1.070
    59   7 N    3.478 --    58 C    1.070    68 C    1.055    60 C    1.052
    60   6 C    3.962 --    61 C    1.367    67 C    1.348    59 N    1.052
    61   6 C    3.982 --    62 C    1.452    60 C    1.367   180 H    0.965
                            66 C    0.101
    62   6 C    3.988 --    61 C    1.452    63 C    1.387   181 H    0.964
    63   6 C    3.950 --    62 C    1.387    66 C    1.371    64 S    1.039
    64  16 S    2.231 --    63 C    1.039    65 C    1.007
    65   6 C    3.974 --    64 S    1.007   184 H    0.982   182 H    0.981
                           183 H    0.978
    66   6 C    3.989 --    67 C    1.474    63 C    1.371   185 H    0.965
                            61 C    0.101
    67   6 C    3.984 --    66 C    1.474    60 C    1.348   186 H    0.957
    68   6 C    3.963 --    75 C    1.357    69 C    1.352    59 N    1.055
    69   6 C    3.985 --    70 C    1.459    68 C    1.352   187 H    0.966
    70   6 C    3.989 --    69 C    1.459    71 C    1.384   188 H    0.968
                            75 C    0.101
    71   6 C    3.954 --    70 C    1.384    74 C    1.379    72 S    1.038
    72  16 S    2.221 --    71 C    1.038    73 C    1.004
    73   6 C    3.968 --    72 S    1.004   189 H    0.982   190 H    0.978
                           191 H    0.974
    74   6 C    3.988 --    75 C    1.464    71 C    1.379   192 H    0.961
    75   6 C    3.986 --    74 C    1.464    68 C    1.357   193 H    0.966
                            70 C    0.101
    76   6 C    3.937 --    55 C    1.382    58 C    1.210    77 S    1.114
    77  16 S    2.631 --    76 C    1.114    36 C    1.092
    78   6 C    3.924 --    79 C    1.439    57 C    1.136   119 S    1.090
    79   6 C    3.947 --    78 C    1.439    97 C    1.221    80 N    1.056
    80   7 N    3.488 --    81 C    1.069    89 C    1.057    79 C    1.056
    81   6 C    3.963 --    88 C    1.359    82 C    1.347    80 N    1.069
    82   6 C    3.984 --    83 C    1.472    81 C    1.347   194 H    0.966
    83   6 C    3.990 --    82 C    1.472    84 C    1.374   195 H    0.968
                            88 C    0.101
    84   6 C    3.950 --    87 C    1.386    83 C    1.374    85 S    1.036
    85  16 S    2.225 --    84 C    1.036    86 C    1.007
    86   6 C    3.972 --    85 S    1.007   196 H    0.982   198 H    0.978
                           197 H    0.978
    87   6 C    3.989 --    88 C    1.458    84 C    1.386   199 H    0.965
    88   6 C    3.984 --    87 C    1.458    81 C    1.359   200 H    0.966
                            83 C    0.101
    89   6 C    3.965 --    96 C    1.361    90 C    1.360    80 N    1.057
    90   6 C    3.985 --    91 C    1.464    89 C    1.360   201 H    0.967
    91   6 C    3.989 --    90 C    1.464    92 C    1.379   202 H    0.967
    92   6 C    3.956 --    95 C    1.390    91 C    1.379    93 S    1.025
    93  16 S    2.187 --    92 C    1.025    94 C    1.001
    94   6 C    3.975 --    93 S    1.001   203 H    0.983   205 H    0.983
                           204 H    0.980
    95   6 C    3.989 --    96 C    1.459    92 C    1.390   206 H    0.965
    96   6 C    3.985 --    95 C    1.459    89 C    1.361   207 H    0.958
    97   6 C    3.941 --   118 C    1.391    79 C    1.221    98 S    1.110
    98  16 S    2.543 --    99 C    1.117    97 C    1.110
    99   6 C    3.907 --   100 C    1.511    98 S    1.117   120 C    1.016
   100   6 C    3.959 --    99 C    1.511   118 C    1.196   101 N    1.057
   101   7 N    3.476 --   102 C    1.069   100 C    1.057   110 C    1.051
   102   6 C    3.965 --   109 C    1.364   103 C    1.346   101 N    1.069
   103   6 C    3.985 --   104 C    1.478   102 C    1.346   208 H    0.965
   104   6 C    3.989 --   103 C    1.478   105 C    1.369   209 H    0.966
   105   6 C    3.949 --   108 C    1.395   104 C    1.369   106 S    1.028
   106  16 S    2.229 --   105 C    1.028   107 C    1.005
   107   6 C    3.972 --   106 S    1.005   210 H    0.982   212 H    0.982
                           211 H    0.978
   108   6 C    3.990 --   109 C    1.448   105 C    1.395   213 H    0.965
   109   6 C    3.984 --   108 C    1.448   102 C    1.364   214 H    0.966
   110   6 C    3.964 --   111 C    1.365   117 C    1.347   101 N    1.051
   111   6 C    3.985 --   112 C    1.452   110 C    1.365   215 H    0.966
   112   6 C    3.989 --   111 C    1.452   113 C    1.387   216 H    0.964
   113   6 C    3.957 --   112 C    1.387   116 C    1.367   114 S    1.044
   114  16 S    2.231 --   113 C    1.044   115 C    1.004
   115   6 C    3.967 --   114 S    1.004   219 H    0.980   218 H    0.978
                           217 H    0.976
   116   6 C    3.989 --   117 C    1.478   113 C    1.367   220 H    0.967
   117   6 C    3.985 --   116 C    1.478   110 C    1.347   221 H    0.966
   118   6 C    3.934 --    97 C    1.391   100 C    1.196   119 S    1.113
   119  16 S    2.571 --   118 C    1.113    78 C    1.090
   120   6 C    3.991 --    99 C    1.016   121 C    1.015   138 C    0.960
                           222 H    0.918
   121   6 C    3.958 --   122 C    1.762   120 C    1.015   223 H    0.965
   122   6 C    3.982 --   121 C    1.762   123 C    1.168   224 H    0.944
   123   6 C    3.937 --   124 C    1.514   122 C    1.168   137 C    1.039
   124   6 C    3.973 --   123 C    1.514   133 C    1.077   125 C    1.065
   125   6 C    3.946 --   126 O    1.653   127 N    1.109   124 C    1.065
   126   8 O    2.007 --   125 C    1.653   127 N    0.127
   127   7 N    3.590 --   130 C    1.198   125 C    1.109   128 C    0.958
                           126 O    0.127
   128   6 C    3.943 --   129 C    1.009   226 H    0.965   225 H    0.962
                           127 N    0.958
   129   6 C    3.990 --   128 C    1.009   227 H    0.986   229 H    0.985
                           228 H    0.982
   130   6 C    3.959 --   131 S    1.472   127 N    1.198   132 N    1.195
   131  16 S    1.826 --   130 C    1.472
   132   7 N    3.591 --   130 C    1.195   133 C    1.115   135 C    0.958
                           134 O    0.127
   133   6 C    3.947 --   134 O    1.633   132 N    1.115   124 C    1.077
   134   8 O    1.988 --   133 C    1.633   132 N    0.127
   135   6 C    3.943 --   136 C    1.009   231 H    0.964   230 H    0.964
                           132 N    0.958
   136   6 C    3.990 --   135 C    1.009   233 H    0.986   232 H    0.985
                           234 H    0.982
   137   6 C    3.990 --   123 C    1.039   138 C    1.007   236 H    0.941
                           235 H    0.924
   138   6 C    3.988 --   137 C    1.007   238 H    0.973   237 H    0.968
                           120 C    0.960
   139   1 H    0.998 --     1 C    0.987
   140   1 H    0.996 --     1 C    0.982
   141   1 H    0.997 --     1 C    0.985
   142   1 H    0.993 --     2 C    0.963
   143   1 H    0.994 --     2 C    0.964
   144   1 H    0.993 --    10 C    0.965
   145   1 H    0.994 --    10 C    0.962
   146   1 H    0.997 --    11 C    0.985
   147   1 H    0.996 --    11 C    0.982
   148   1 H    0.998 --    11 C    0.986
   149   1 H    0.992 --    15 C    0.947
   150   1 H    0.995 --    16 C    0.965
   151   1 H    0.990 --    17 C    0.929
   152   1 H    0.996 --    18 C    0.970
   153   1 H    0.997 --    18 C    0.973
   154   1 H    0.990 --    19 C    0.945
   155   1 H    0.990 --    19 C    0.927
   156   1 H    0.995 --    29 C    0.966
   157   1 H    0.995 --    29 C    0.970
   158   1 H    0.998 --    30 C    0.986
   159   1 H    0.998 --    30 C    0.986
   160   1 H    0.997 --    30 C    0.983
   161   1 H    0.995 --    34 C    0.969
   162   1 H    0.996 --    34 C    0.967
   163   1 H    0.998 --    35 C    0.987
   164   1 H    0.996 --    35 C    0.984
   165   1 H    0.998 --    35 C    0.988
   166   1 H    0.998 --    40 C    0.965
   167   1 H    0.997 --    41 C    0.964
   168   1 H    0.994 --    44 C    0.977
   169   1 H    0.996 --    44 C    0.982
   170   1 H    0.995 --    44 C    0.980
   171   1 H    0.998 --    45 C    0.968
   172   1 H    0.998 --    46 C    0.966
   173   1 H    0.997 --    48 C    0.964
   174   1 H    0.997 --    49 C    0.965
   175   1 H    0.996 --    52 C    0.980
   176   1 H    0.994 --    52 C    0.974
   177   1 H    0.996 --    52 C    0.981
   178   1 H    0.997 --    53 C    0.964
   179   1 H    0.998 --    54 C    0.967
   180   1 H    0.998 --    61 C    0.965
   181   1 H    0.998 --    62 C    0.964
   182   1 H    0.996 --    65 C    0.981
   183   1 H    0.995 --    65 C    0.978
   184   1 H    0.996 --    65 C    0.982
   185   1 H    0.996 --    66 C    0.965
   186   1 H    0.998 --    67 C    0.957
   187   1 H    0.998 --    69 C    0.966
   188   1 H    0.997 --    70 C    0.968
   189   1 H    0.996 --    73 C    0.982
   190   1 H    0.995 --    73 C    0.978
   191   1 H    0.995 --    73 C    0.974
   192   1 H    0.997 --    74 C    0.961
   193   1 H    0.998 --    75 C    0.966
   194   1 H    0.999 --    82 C    0.966
   195   1 H    0.998 --    83 C    0.968
   196   1 H    0.996 --    86 C    0.982
   197   1 H    0.995 --    86 C    0.978
   198   1 H    0.995 --    86 C    0.978
   199   1 H    0.997 --    87 C    0.965
   200   1 H    0.998 --    88 C    0.966
   201   1 H    0.998 --    90 C    0.967
   202   1 H    0.997 --    91 C    0.967
   203   1 H    0.997 --    94 C    0.983
   204   1 H    0.995 --    94 C    0.980
   205   1 H    0.997 --    94 C    0.983
   206   1 H    0.998 --    95 C    0.965
   207   1 H    0.997 --    96 C    0.958
   208   1 H    0.998 --   103 C    0.965
   209   1 H    0.997 --   104 C    0.966
   210   1 H    0.996 --   107 C    0.982
   211   1 H    0.995 --   107 C    0.978
   212   1 H    0.996 --   107 C    0.982
   213   1 H    0.998 --   108 C    0.965
   214   1 H    0.999 --   109 C    0.966
   215   1 H    0.998 --   111 C    0.966
   216   1 H    0.997 --   112 C    0.964
   217   1 H    0.994 --   115 C    0.976
   218   1 H    0.995 --   115 C    0.978
   219   1 H    0.996 --   115 C    0.980
   220   1 H    0.997 --   116 C    0.967
   221   1 H    0.998 --   117 C    0.966
   222   1 H    0.993 --   120 C    0.918
   223   1 H    0.995 --   121 C    0.965
   224   1 H    0.991 --   122 C    0.944
   225   1 H    0.994 --   128 C    0.962
   226   1 H    0.993 --   128 C    0.965
   227   1 H    0.997 --   129 C    0.986
   228   1 H    0.996 --   129 C    0.982
   229   1 H    0.997 --   129 C    0.985
   230   1 H    0.994 --   135 C    0.964
   231   1 H    0.993 --   135 C    0.964
   232   1 H    0.997 --   136 C    0.985
   233   1 H    0.998 --   136 C    0.986
   234   1 H    0.996 --   136 C    0.982
   235   1 H    0.990 --   137 C    0.924
   236   1 H    0.990 --   137 C    0.941
   237   1 H    0.996 --   138 C    0.968
   238   1 H    0.997 --   138 C    0.973
 ---------------------------------------------------------------------------

Topologies differ in bond orders
Writing corrected topology to xtbtopo.mol

molecular dipole:
                 x           y           z       tot (Debye)
 q only:        0.181       1.023       0.125
   full:       -0.199       0.505       0.239       1.508
molecular quadrupole (traceless):
                xx          xy          yy          xz          yz          zz
 q only:       37.834     -62.788      98.760      54.847      65.317    -136.594
  q+dip:       40.530     -70.643     120.945      69.364      60.364    -161.475
   full:       38.711     -68.826     123.438      70.169      58.648    -162.149


           -------------------------------------------------
          | TOTAL ENERGY             -383.085002352868 Eh   |
          | GRADIENT NORM               0.027256504507 Eh/α |
          | HOMO-LUMO GAP               0.644011089801 eV   |
           -------------------------------------------------

------------------------------------------------------------------------
 * finished run on 2022/02/09 at 06:24:15.309     
------------------------------------------------------------------------
 total:
 * wall-time:     0 d,  0 h,  0 min,  0.989 sec
 *  cpu-time:     0 d,  0 h,  0 min,  7.788 sec
 * ratio c/w:     7.871 speedup
 SCF:
 * wall-time:     0 d,  0 h,  0 min,  0.873 sec
 *  cpu-time:     0 d,  0 h,  0 min,  6.956 sec
 * ratio c/w:     7.965 speedup

